LAMMPS (27 Jun 2024)
KOKKOS mode with Kokkos version 4.3.1 is enabled (src/KOKKOS/kokkos.cpp:72)
  will use up to 1 GPU(s) per node
WARNING: When using a single thread, the Kokkos Serial backend (i.e. Makefile.kokkos_mpi_only) gives better performance than the OpenMP backend (src/KOKKOS/kokkos.cpp:202)
  using 1 OpenMP thread(s) per MPI task
package kokkos
package kokkos newton on neigh half

units		metal						## E in [eV], t in [ps], P in [10000 Pa], l in [A]
atom_style	atomic						## mass x y z vx vy vz

neighbor	0.5 bin						## neighbor list, skin = 0.5 Angstrom
neigh_modify	every 2 delay 10 check yes			## update of neighbor list

############################## main variables
variable        seed equal 31735

variable	temperature equal 460
variable	tempDamp equal 0.1

variable        pressure equal 30000
variable        pressureDamp equal 1.0 				# This is 1 ps

##############################

read_data water.dat
Reading data file ...
  orthogonal box = (0 0 0) to (20.254784 20.261831 35.959838)
  1 by 1 by 1 MPI processor grid
  reading atoms ...
  2160 atoms
  read_data CPU = 0.016 seconds

mass		1 1.008    # H
mass		2 15.9994  # O


pair_style	pace/extrapolation
ACE/AL version: 2023.11.25
pair_coeff	* * /pc2/users/a/acepdw01/work/phase_diagram/pot_dir/interim_potential_ladder_step_1.yaml /pc2/users/a/acepdw01/work/phase_diagram/pot_dir/interim_potential_ladder_step_1.asi H O
Loading /pc2/users/a/acepdw01/work/phase_diagram/pot_dir/interim_potential_ladder_step_1.yaml
Total number of basis functions
	H: 23 (r=1) 664 (r>1)
	O: 23 (r=1) 664 (r>1)
Mapping LAMMPS atom type #1(H) -> ACE species type #0
Mapping LAMMPS atom type #2(O) -> ACE species type #1
Loading ASI /pc2/users/a/acepdw01/work/phase_diagram/pot_dir/interim_potential_ladder_step_1.asi
LINEAR ASI is loaded

fix pace_gamma all pair 1000 pace/extrapolation gamma 1
compute max_pace_gamma all reduce max f_pace_gamma
variable dump_skip equal "c_max_pace_gamma < 10"

dump pace_dump all custom 1000 extrapolative_structures.dump id type x y z f_pace_gamma
dump_modify pace_dump skip v_dump_skip
dump_modify pace_dump element H O

variable max_pace_gamma equal c_max_pace_gamma

timestep	0.0005						## timestep = 0.0005*ps = 0.5 fs

thermo		100
thermo_style custom step etotal pe ke press temp vol density c_max_pace_gamma


min_style cg
minimize 0.0 5.0e-4 10000 100000

CITE-CITE-CITE-CITE-CITE-CITE-CITE-CITE-CITE-CITE-CITE-CITE-CITE

Your simulation uses code contributions which should be cited:

- Type Label Framework: https://doi.org/10.1021/acs.jpcb.3c08419

@Article{Gissinger24,
 author = {Jacob R. Gissinger, Ilia Nikiforov, Yaser Afshar, Brendon Waters, Moon-ki Choi, Daniel S. Karls, Alexander Stukowski, Wonpil Im, Hendrik Heinz, Axel Kohlmeyer, and Ellad B. Tadmor},
 title = {Type Label Framework for Bonded Force Fields in LAMMPS},
 journal = {J. Phys. Chem. B},
 year =    2024,
 volume =  128,
 number =  13,
 pages =   {3282–-3297}
}

CITE-CITE-CITE-CITE-CITE-CITE-CITE-CITE-CITE-CITE-CITE-CITE-CITE

Switching to 'neigh_modify every 1 delay 0 check yes' setting during minimization
Neighbor list info ...
  update: every = 1 steps, delay = 0 steps, check = yes
  max neighbors/atom: 2000, page size: 100000
  master list distance cutoff = 6.5
  ghost atom cutoff = 6.5
  binsize = 6.5, bins = 4 4 6
  1 neighbor lists, perpetual/occasional/extra = 1 0 0
  (1) pair pace/extrapolation/kk, perpetual
      attributes: full, newton on, kokkos_device
      pair build: full/bin/kk/device
      stencil: full/bin/3d
      bin: kk/device
WARNING: Fix with atom-based arrays not compatible with sending data in Kokkos communication, switching to classic exchange/border communication (src/KOKKOS/comm_kokkos.cpp:754)
WARNING: Fix with atom-based arrays not compatible with Kokkos sorting on device, switching to classic host sorting (src/KOKKOS/atom_kokkos.cpp:216)
Per MPI rank memory allocation (min/avg/max) = 1829 | 1829 | 1829 Mbytes
   Step         TotEng         PotEng         KinEng         Press           Temp          Volume        Density     c_max_pace_gamma
         0  -10267.647     -10267.647      0              24119.03       0              14757.882      1.459491       0.7806069    
       100  -10395.841     -10395.841      0              9145.7563      0              14757.882      1.459491       0.7806069    
       200  -10399.128     -10399.128      0              9051.951       0              14757.882      1.459491       0.7806069    
       300  -10400.996     -10400.996      0              8813.1578      0              14757.882      1.459491       0.7806069    
       400  -10401.233     -10401.233      0              8825.7464      0              14757.882      1.459491       0.7806069    
       500  -10401.326     -10401.326      0              8854.1247      0              14757.882      1.459491       0.7806069    
       600  -10401.339     -10401.339      0              8835.4585      0              14757.882      1.459491       0.7806069    
       700  -10401.34      -10401.34       0              8835.0407      0              14757.882      1.459491       0.7806069    
       800  -10401.34      -10401.34       0              8833.9437      0              14757.882      1.459491       0.7806069    
       900  -10401.34      -10401.34       0              8832.81        0              14757.882      1.459491       0.7806069    
      1000  -10401.34      -10401.34       0              8832.2823      0              14757.882      1.459491       0.8735245    
      1075  -10401.34      -10401.34       0              8831.916       0              14757.882      1.459491       0.8735245    
Loop time of 10.4133 on 1 procs for 1075 steps with 2160 atoms

99.7% CPU use with 1 MPI tasks x 1 OpenMP threads

Minimization stats:
  Stopping criterion = force tolerance
  Energy initial, next-to-last, final = 
     -10267.6469093095  -10401.3399695501  -10401.3399695579
  Force two-norm initial, final = 75.815043 0.00049399614
  Force max component initial, final = 6.4689651 0.00010834417
  Final line search alpha, max atom move = 1 0.00010834417
  Iterations, force evaluations = 1075 2149

MPI task timing breakdown:
Section |  min time  |  avg time  |  max time  |%varavg| %total
---------------------------------------------------------------
Pair    | 9.5634     | 9.5634     | 9.5634     |   0.0 | 91.84
Neigh   | 0.025034   | 0.025034   | 0.025034   |   0.0 |  0.24
Comm    | 0.064347   | 0.064347   | 0.064347   |   0.0 |  0.62
Output  | 0.0014183  | 0.0014183  | 0.0014183  |   0.0 |  0.01
Modify  | 0.4714     | 0.4714     | 0.4714     |   0.0 |  4.53
Other   |            | 0.2877     |            |       |  2.76

Nlocal:           2160 ave        2160 max        2160 min
Histogram: 1 0 0 0 0 0 0 0 0 0
Nghost:           5595 ave        5595 max        5595 min
Histogram: 1 0 0 0 0 0 0 0 0 0
Neighs:              0 ave           0 max           0 min
Histogram: 1 0 0 0 0 0 0 0 0 0
FullNghs:       363186 ave      363186 max      363186 min
Histogram: 1 0 0 0 0 0 0 0 0 0

Total # of neighbors = 363186
Ave neighs/atom = 168.14167
Neighbor list builds = 56
Dangerous builds = 0

################## equilibration of main calculation
# Equilibrate to specified number of ice

dump            3 all custom 1000 traj.lammpstrj id type element x y z
dump_modify     3 element H O

fix             1 all plumed plumedfile plumed.equil.dat outfile plumed.out
fix             3 all nph z ${pressure} ${pressure} ${pressureDamp}
fix             3 all nph z 30000 ${pressure} ${pressureDamp}
fix             3 all nph z 30000 30000 ${pressureDamp}
fix             3 all nph z 30000 30000 1
fix             4 all temp/csvr ${temperature} ${temperature} ${tempDamp} ${seed}
fix             4 all temp/csvr 460 ${temperature} ${tempDamp} ${seed}
fix             4 all temp/csvr 460 460 ${tempDamp} ${seed}
fix             4 all temp/csvr 460 460 0.1 ${seed}
fix             4 all temp/csvr 460 460 0.1 31735
velocity 	all create ${temperature} ${seed} dist gaussian
velocity 	all create 460 ${seed} dist gaussian
velocity 	all create 460 31735 dist gaussian

run 200000
WARNING: Fix with atom-based arrays not compatible with Kokkos sorting on device, switching to classic host sorting (src/KOKKOS/atom_kokkos.cpp:216)
Per MPI rank memory allocation (min/avg/max) = 1828 | 1828 | 1828 Mbytes
   Step         TotEng         PotEng         KinEng         Press           Temp          Volume        Density     c_max_pace_gamma
      1075  -10272.967     -10401.34       128.37342      18123.081      460            14757.882      1.459491       0.8735245    
      1100  -10268.127     -10323.491      55.36375       5284.2998      198.38472      14755.27       1.4597494      0.8735245    
      1200  -10236.935     -10318.896      81.960873      24632.25       293.69009      14709.699      1.4642718      0.8735245    
      1300  -10212.695     -10303.05       90.355056      27800.657      323.76894      14649.247      1.4703143      0.8735245    
      1400  -10194.861     -10293.199      98.338065      28231.56       352.37442      14590.325      1.476252       0.8735245    
      1500  -10180.582     -10287.791      107.2096       30392.071      384.16377      14541.915      1.4811664      0.8735245    
      1600  -10173.171     -10281.995      108.82458      33896.526      389.9507       14510.355      1.484388       0.8735245    
      1700  -10164.213     -10279.385      115.1725       31270.889      412.69717      14498.31       1.4856211      0.8735245    
      1800  -10156.582     -10272.702      116.11953      31264.031      416.09067      14503.209      1.4851194      0.8735245    
      1900  -10149.06      -10269.767      120.70758      32328.88       432.53103      14525.217      1.4828692      0.8735245    
      2000  -10150.285     -10271.927      121.64203      33302.661      435.87942      14564.059      1.4789144      0.77816121   
      2100  -10146.735     -10267.163      120.42781      32863.279      431.52853      14611.481      1.4741146      0.77816121   
      2200  -10147.866     -10267.566      119.70018      36455.379      428.9212       14662.896      1.4689456      0.77816121   
      2300  -10145.392     -10266.773      121.38041      30305.441      434.94196      14705.794      1.4646606      0.77816121   
      2400  -10141.364     -10262.27       120.90529      5639.3962      433.23948      14730.138      1.46224        0.77816121   
      2500  -10138.668     -10260.253      121.58446      32050.225      435.67314      14733.69       1.4618875      0.77816121   
      2600  -10136.217     -10262.455      126.23825      8406.6093      452.34905      14742.481      1.4610157      0.77816121   
      2700  -10135.403     -10256.888      121.4851       32119.327      435.3171       14730.173      1.4622365      0.77816121   
      2800  -10139.013     -10263.836      124.82348      31446.505      447.27952      14723.329      1.4629162      0.77816121   
      2900  -10139.302     -10262.618      123.31602      27967.9        441.87784      14725.843      1.4626664      0.77816121   
      3000  -10139.328     -10259.992      120.664        30321.589      432.37487      14723.966      1.4628529      0.77969945   
      3100  -10139.205     -10265.57       126.36551      31948.902      452.80506      14721.443      1.4631037      0.77969945   
      3200  -10136.49      -10260.3        123.81028     -9608.7243      443.64892      14721.992      1.463049       0.77969945   
      3300  -10134.474     -10259.654      125.18064      32356.336      448.55931      14694.534      1.4657829      0.77969945   
      3400  -10131.306     -10256.189      124.88288     -17722.588      447.49235      14676.359      1.4675981      0.77969945   
      3500  -10128.507     -10253.935      125.42843      33845.665      449.44724      14636.656      1.4715791      0.77969945   
      3600  -10128.105     -10255.965      127.85919      35084.231      458.15737      14610.615      1.4742019      0.77969945   
      3700  -10127.418     -10257.674      130.25514      33952.945      466.74275      14602.42       1.4750292      0.77969945   
      3800  -10128.422     -10257.619      129.1969       34156.589      462.95078      14611.537      1.4741088      0.77969945   
      3900  -10127.072     -10255.78       128.70716      33692.677      461.19591      14640.551      1.4711875      0.77969945   
      4000  -10125.789     -10253.831      128.04196      34668.452      458.81227      14683.179      1.4669165      0.85888575   
      4100  -10125.943     -10254.489      128.54511      37770.361      460.61522      14715.127      1.4637316      0.85888575   
      4200  -10128.081     -10255.135      127.05417      32898.434      455.27272      14733.592      1.4618972      0.85888575   
      4300  -10130.57      -10255.514      124.94354      21137.842      447.70974      14746.072      1.46066        0.85888575   
      4400  -10129.831     -10259.476      129.64503      31807.752      464.55656      14731.572      1.4620977      0.85888575   
      4500  -10125.951     -10256.209      130.25833      31055.426      466.75419      14714.831      1.463761       0.85888575   
      4600  -10126.776     -10254.443      127.66714      22937.834      457.46918      14695.985      1.4656382      0.85888575   
      4700  -10129.277     -10259.384      130.10645      32041.618      466.20994      14683.063      1.466928       0.85888575   
      4800  -10127.265     -10256.798      129.53306      33117.434      464.15534      14682.665      1.4669678      0.85888575   
      4900  -10128.311     -10255.142      126.83103      31681.349      454.47316      14690.186      1.4662167      0.85888575   
      5000  -10129.593     -10256.318      126.72449      31293.829      454.09139      14700.099      1.465228       0.80949773   
      5100  -10131.236     -10260.869      129.63341     -8880.9753      464.51491      14722.009      1.4630474      0.80949773   
      5200  -10126.276     -10256.988      130.71294      35708.489      468.38318      14714.012      1.4638425      0.80949773   
      5300  -10126.337     -10253.318      126.981        31974.869      455.01055      14705.342      1.4647056      0.80949773   
      5400  -10131.821     -10260.43       128.60923      33316.467      460.84499      14695.793      1.4656573      0.80949773   
      5500  -10134.093     -10260.482      126.38951      33645.612      452.89106      14695.491      1.4656874      0.80949773   
      5600  -10130.781     -10257.823      127.04187      24356.936      455.22867      14701.155      1.4651227      0.80949773   
      5700  -10128.085     -10257.98       129.89448      32160.888      465.45042      14702.247      1.4650139      0.80949773   
      5800  -10130.069     -10255.092      125.02229      36627.783      447.99189      14711.03       1.4641393      0.80949773   
      5900  -10132.092     -10259.071      126.97885      30729.19       455.00284      14710.495      1.4641925      0.80949773   
      6000  -10128.179     -10258.31       130.13144      33627.935      466.2995       14686.06       1.4666287      0.76747681   
      6100  -10124.82      -10254.543      129.7231       30803.652      464.83631      14669.182      1.4683161      0.76747681   
      6200  -10122.519     -10254.055      131.53562      34029.804      471.33112      14663.401      1.468895       0.76747681   
      6300  -10122.137     -10251.734      129.59715      33503.978      464.38497      14670.087      1.4682255      0.76747681   
      6400  -10123.248     -10254.592      131.34315      35863.589      470.64143      14661.003      1.4691352      0.76747681   
      6500  -10126.138     -10255.839      129.7009       35983.81       464.75674      14621.704      1.4730839      0.76747681   
      6600  -10126.505     -10257.681      131.1763       32830.373      470.04353      14597.197      1.475557       0.76747681   
      6700  -10124.824     -10258.12       133.29615      31632.074      477.63959      14588.838      1.4764025      0.76747681   
      6800  -10122.505     -10252.748      130.24298      31959.666      466.69918      14597.145      1.4755623      0.76747681   
      6900  -10123.361     -10253.934      130.57321      32610.916      467.8825       14622.536      1.4730001      0.76747681   
      7000  -10121.874     -10254.718      132.84341      19554.258      476.0173       14663.232      1.4689119      0.85535273   
      7100  -10122.429     -10254.672      132.24277      34619.69       473.86503      14700.065      1.4652314      0.85535273   
      7200  -10125.431     -10253.346      127.91488      15178.202      458.35691      14734.188      1.461838       0.85535273   
      7300  -10123.492     -10256.591      133.09901      20215.69       476.93319      14750.911      1.4601807      0.85535273   
      7400  -10123.84      -10255.483      131.64375      32847.578      471.71855      14757.206      1.4595579      0.85535273   
      7500  -10125.236     -10253.635      128.39861      29979.271      460.09025      14756.281      1.4596494      0.85535273   
      7600  -10126.77      -10256.42       129.6498       22689.427      464.57365      14742.226      1.461041       0.85535273   
      7700  -10127.015     -10254.709      127.69338      36168.841      457.5632       14726.914      1.4625601      0.85535273   
      7800  -10124.484     -10256.177      131.69268      30102.981      471.8939       14723.843      1.4628652      0.85535273   
      7900  -10121.332     -10254.515      133.18336      18869.157      477.23544      14734.661      1.4617911      0.85535273   
      8000  -10121.46      -10255.966      134.50598      32436.284      481.97479      14744.676      1.4607982      0.77110988   
      8100  -10120.673     -10251.174      130.50105      33553.699      467.62394      14764.579      1.458829       0.77110988   
      8200  -10121.04      -10256.034      134.99371      12640.202      483.72245      14773.286      1.4579692      0.77110988   
      8300  -10119.134     -10255.778      136.64477      30246.746      489.63869      14737.39       1.4615205      0.77110988   
      8400  -10121.861     -10254.979      133.118        34307.189      477.00122      14711.362      1.4641063      0.77110988   
      8500  -10120.765     -10255.146      134.38142      30780.605      481.52843      14684.31       1.4668034      0.77110988   
      8600  -10124.811     -10255.79       130.97871      33972.049      469.33552      14664.684      1.4687665      0.77110988   
      8700  -10128.996     -10255.367      126.37069      35314.42       452.82364      14662.997      1.4689355      0.77110988   
      8800  -10129.792     -10262.125      132.33311      30018.446      474.18873      14678.847      1.4673494      0.77110988   
      8900  -10128.422     -10256.321      127.89827      11921.681      458.2974       14704.779      1.4647616      0.77110988   
      9000  -10124.912     -10257.563      132.651        30591.232      475.32783      14723.723      1.462877       0.81163172   
      9100  -10123.801     -10255.027      131.22621      7693.4954      470.22239      14747.864      1.4604824      0.81163172   
      9200  -10128.674     -10258.725      130.05116      14009.82       466.01184      14758.612      1.4594188      0.81163172   
      9300  -10129.133     -10261.51       132.37728      31683.815      474.34703      14762.038      1.4590801      0.81163172   
      9400  -10133.036     -10260.016      126.98022      30527.489      455.00777      14769.29       1.4583637      0.81163172   
      9500  -10132.212     -10259.874      127.66193      32142.524      457.45052      14767.943      1.4584967      0.81163172   
      9600  -10129.476     -10258.275      128.79859      31078.037      461.52349      14761.079      1.4591749      0.81163172   
      9700  -10131.498     -10261.122      129.6249       29402.64       464.48442      14757.322      1.4595464      0.81163172   
      9800  -10131.792     -10259.814      128.02164      6810.1439      458.73947      14759.31       1.4593498      0.81163172   
      9900  -10129.669     -10256.539      126.86998      6332.488       454.61272      14746.012      1.4606658      0.81163172   
     10000  -10127.995     -10258.726      130.7303       32244.5        468.4454       14718.475      1.4633987      0.81416166   
     10100  -10129.2       -10257.548      128.34755      31299.763      459.90729      14695.708      1.4656657      0.81416166   
     10200  -10129.758     -10263.801      134.0432       34762.021      480.31651      14682.744      1.4669599      0.81416166   
     10300  -10133.005     -10259.554      126.54901      30026.372      453.4626       14678.92       1.4673421      0.81416166   
     10400  -10132.551     -10259.739      127.18775      15868.326      455.7514       14680.603      1.4671738      0.81416166   
     10500  -10130.745     -10259.303      128.55741      30669.773      460.65927      14680.48       1.4671862      0.81416166   
     10600  -10129.673     -10259.11       129.437       -9201.3492      463.81114      14690.649      1.4661705      0.81416166   
     10700  -10128.676     -10257.589      128.91264      32912.792      461.93219      14687.202      1.4665147      0.81416166   
     10800  -10130.308     -10260.551      130.24333      32517.695      466.70044      14691.087      1.4661269      0.81416166   
     10900  -10131.56      -10263.704      132.14408      31489.682      473.51139      14702.107      1.4650278      0.81416166   
     11000  -10127.495     -10258.107      130.61178      33083.396      468.02072      14707.836      1.4644572      0.79956242   
     11100  -10126.637     -10254.039      127.40178      29780.8        456.51834      14710.627      1.4641793      0.79956242   
     11200  -10129.803     -10259.002      129.19842      30007.708      462.95621      14721.164      1.4631314      0.79956242   
     11300  -10128.499     -10258.648      130.14907      25849.538      466.36267      14730.889      1.4621654      0.79956242   
     11400  -10129.898     -10256.741      126.84334      29736.657      454.51727      14733.426      1.4619137      0.79956242   
     11500  -10131.494     -10260.707      129.21217      28245.954      463.0055       14744.385      1.4608271      0.79956242   
     11600  -10133.344     -10260.653      127.30869      33696.267      456.18475      14743.966      1.4608685      0.79956242   
     11700  -10134.82      -10260.175      125.35444      30566.288      449.18211      14737.602      1.4614994      0.79956242   
     11800  -10134.224     -10260.142      125.91855      31336.026      451.20346      14733.738      1.4618827      0.79956242   
     11900  -10136.39      -10262.302      125.91197      30245.398      451.1799       14733.185      1.4619375      0.79956242   
     12000  -10138.158     -10262.732      124.57363      32566.08       446.38421      14714.608      1.4637832      0.80056111   
     12100  -10134.345     -10260.501      126.15603      32034.022      452.05443      14683.497      1.4668847      0.80056111   
     12200  -10135.472     -10263.168      127.69562      32420.701      457.57124      14661.409      1.4690946      0.80056111   
     12300  -10133.128     -10260.223      127.09466      31436.794      455.41783      14649.551      1.4702838      0.80056111   
     12400  -10131.134     -10259.226      128.09247      29424.92       458.99329      14650.529      1.4701855      0.80056111   
     12500  -10130.549     -10256.298      125.74888      32453.694      450.59549      14659.715      1.4692644      0.80056111   
     12600  -10133.268     -10259.328      126.06031      30214.172      451.71146      14677.737      1.4674603      0.80056111   
     12700  -10129.976     -10259.273      129.29648      30310.926      463.30758      14701.332      1.4651051      0.80056111   
     12800  -10130.584     -10260.469      129.88506      31589.838      465.41664      14729.836      1.4622699      0.80056111   
     12900  -10131.911     -10259.43       127.51882     -1074.0528      456.93771      14756.718      1.4596062      0.80056111   
     13000  -10132.054     -10260.075      128.02186      28394.63       458.74027      14758.967      1.4593837      0.8256643    
     13100  -10133.257     -10260.345      127.08739      32711.169      455.39176      14754.147      1.4598605      0.8256643    
     13200  -10131.372     -10258.947      127.57478      34603.34       457.13824      14745.194      1.4607469      0.8256643    
     13300  -10132.7       -10260.505      127.80446      6345.0078      457.96123      14730.874      1.4621669      0.8256643    
     13400  -10132.377     -10260.219      127.84139      30025.568      458.09359      14699.973      1.4652405      0.8256643    
     13500  -10132.675     -10260.93       128.25508      29487.971      459.57594      14675.14       1.46772        0.8256643    
     13600  -10130.192     -10260.569      130.37743      30445.58       467.18097      14657.446      1.4694918      0.8256643    
     13700  -10130.514     -10259.59       129.07585      29856.833      462.51701      14646.951      1.4705447      0.8256643    
     13800  -10129.496     -10259.136      129.64089      31161.745      464.54173      14645.038      1.4707368      0.8256643    
     13900  -10128.471     -10260.199      131.72861      32544.049      472.02262      14648.737      1.4703654      0.8256643    
     14000  -10130.014     -10263.221      133.20746      31079.59       477.32179      14661.139      1.4691216      0.7810841    
     14100  -10131.275     -10262.418      131.14298      31131.093      469.92415      14679.767      1.4672573      0.7810841    
     14200  -10129.134     -10258.235      129.10072     -2400.5425      462.60615      14701.521      1.4650863      0.7810841    
     14300  -10129.542     -10256.232      126.68943      31002.827      453.96575      14705.511      1.4646887      0.7810841    
     14400  -10131.345     -10259.037      127.69251      36245.276      457.56009      14712.652      1.4639778      0.7810841    
     14500  -10130.459     -10258.954      128.49454      33909.899      460.43401      14721.214      1.4631263      0.7810841    
     14600  -10130.952     -10259.785      128.83309      29540.589      461.64714      14729.146      1.4623385      0.7810841    
     14700  -10132.356     -10263.392      131.03609      31409.627      469.54112      14729.429      1.4623103      0.7810841    
     14800  -10134.865     -10261.142      126.27791      29140.363      452.49116      14717.698      1.4634759      0.7810841    
     14900  -10131.793     -10260.141      128.348        29821.983      459.9089       14709.435      1.464298       0.7810841    
     15000  -10134.742     -10260.031      125.28928      30652.659      448.9486       14705.383      1.4647015      0.81873903   
     15100  -10134.859     -10261.995      127.136        32852.828      455.56595      14704.968      1.4647428      0.81873903   
     15200  -10136.682     -10262.589      125.90692      22142.804      451.16178      14709.433      1.4642983      0.81873903   
     15300  -10138.035     -10265.682      127.6466       29671.252      457.39558      14711.617      1.4640808      0.81873903   
     15400  -10135.866     -10261.327      125.46041      29149.39       449.56181      14714.86       1.4637581      0.81873903   
     15500  -10136.899     -10263.28       126.38076      30834.116      452.85972      14718.897      1.4633567      0.81873903   
     15600  -10133.639     -10263.44       129.80114      31454.452      465.11593      14724.375      1.4628123      0.81873903   
     15700  -10132.601     -10260.53       127.92818      22706.762      458.40457      14731.908      1.4620643      0.81873903   
     15800  -10131.34      -10260.519      129.17877      31229.474      462.8858       14729.761      1.4622774      0.81873903   
     15900  -10130.081     -10258.213      128.13211      30210.764      459.13532      14730.023      1.4622514      0.81873903   
     16000  -10131.622     -10261.888      130.26545      33350.635      466.77972      14731.195      1.4621351      0.77847531   
     16100  -10130.073     -10262.631      132.55803      30606.353      474.99468      14730.279      1.4622259      0.77847531   
     16200  -10129.92      -10259.497      129.57714      32734.654      464.3133       14710.974      1.4641448      0.77847531   
     16300  -10131.459     -10262.267      130.80852      29234.941      468.72567      14680.216      1.4672125      0.77847531   
     16400  -10133.413     -10260.246      126.83259      32478.928      454.47876      14656.36       1.4696006      0.77847531   
     16500  -10133.738     -10261.296      127.55759      34155.511      457.07663      14638.056      1.4714384      0.77847531   
     16600  -10131.317     -10259.12       127.80324      34547.118      457.95686      14628.704      1.472379       0.77847531   
     16700  -10133.387     -10260.147      126.76032      31928.062      454.21977      14626.799      1.4725707      0.77847531   
     16800  -10135.266     -10260.823      125.55758      30130.918      449.90999      14634.117      1.4718344      0.77847531   
     16900  -10134.503     -10260.723      126.22022      32345.438      452.28443      14647.895      1.47045        0.77847531   
     17000  -10133.499     -10259.682      126.18274      30832.549      452.15014      14662.595      1.4689758      0.79522061   
     17100  -10133.116     -10262.344      129.22785      30079.563      463.06167      14678.426      1.4673915      0.79522061   
     17200  -10132.838     -10264.588      131.75003      29024.023      472.09941      14697.303      1.4655067      0.79522061   
     17300  -10132.006     -10259.566      127.55986      30265.073      457.08475      14716.929      1.4635524      0.79522061   
     17400  -10129.952     -10258.54       128.58833      32417.24       460.77009      14737.282      1.4615312      0.79522061   
     17500  -10126.027     -10257.584      131.55647      31643.83       471.40582      14744.226      1.4608428      0.79522061   
     17600  -10129.191     -10257.993      128.8015       28276.612      461.53394      14743.459      1.4609188      0.79522061   
     17700  -10131.018     -10260.553      129.53491      29211.832      464.16194      14745.518      1.4607149      0.79522061   
     17800  -10129.687     -10258.463      128.77565      31013.148      461.4413       14749.068      1.4603633      0.79522061   
     17900  -10130.046     -10260.696      130.65012      28100.706      468.1581       14754.341      1.4598413      0.79522061   
     18000  -10132.861     -10261.099      128.23741      28775.838      459.51265      14752.62       1.4600116      0.81358801   
     18100  -10132.511     -10260.999      128.48845      27857.561      460.41218      14748.265      1.4604427      0.81358801   
     18200  -10133.788     -10264.261      130.47262      27844.827      467.52204      14741.477      1.4611152      0.81358801   
     18300  -10134.604     -10258.217      123.61304      29994.321      442.94215      14730.784      1.4621758      0.81358801   
     18400  -10133.502     -10261.921      128.41893      31586.98       460.16309      14721.604      1.4630876      0.81358801   
     18500  -10134.484     -10263.752      129.26795      28959.353      463.20536      14712.487      1.4639943      0.81358801   
     18600  -10134.983     -10262.125      127.14216      32854.775      455.58802      14703.257      1.4649133      0.81358801   
     18700  -10137.115     -10262.469      125.35381      29482.358      449.17984      14693.594      1.4658767      0.81358801   
     18800  -10137.276     -10265.283      128.00649      28613.892      458.68519      14684.492      1.4667853      0.81358801   
     18900  -10136.87      -10261.733      124.86327      32245.814      447.42208      14676.589      1.4675751      0.81358801   
     19000  -10138.908     -10265.334      126.42609      29399.913      453.02213      14668.84       1.4683504      0.85824013   
     19100  -10137.324     -10263.781      126.45661      27750.176      453.13152      14656.845      1.469552       0.85824013   
     19200  -10134.75      -10265.994      131.24477      31661.347      470.28888      14640.319      1.4712109      0.85824013   
     19300  -10133.991     -10264.733      130.74182      31719.671      468.48668      14625.886      1.4726627      0.85824013   
     19400  -10133.468     -10263.123      129.65539      33838.937      464.59366      14618.51       1.4734057      0.85824013   
     19500  -10131.602     -10260.41       128.8082       33042.071      461.55796      14615.281      1.4737313      0.85824013   
     19600  -10134.938     -10265.674      130.73553      29228.101      468.46412      14617.469      1.4735107      0.85824013   
     19700  -10138.248     -10265.041      126.79329      28876.219      454.33793      14622.542      1.4729995      0.85824013   
     19800  -10138.327     -10266.603      128.27564      28238.344      459.64963      14628.538      1.4723957      0.85824013   
     19900  -10137.872     -10265.072      127.20048      30961.356      455.79699      14634.039      1.4718422      0.85824013   
     20000  -10134.999     -10265.292      130.29317      30809.895      466.87903      14637.523      1.4714919      0.84817502   
     20100  -10136.272     -10262.476      126.20438      26786.113      452.22769      14640.269      1.4712159      0.84817502   
     20200  -10137.015     -10265.447      128.43164      26750.065      460.20864      14642.641      1.4709776      0.84817502   
     20300  -10137.463     -10264.442      126.97876      29175.053      455.0025       14638.038      1.4714401      0.84817502   
     20400  -10135.153     -10266.033      130.88011      29927.946      468.98222      14627.267      1.4725237      0.84817502   
     20500  -10136.999     -10268.949      131.95027      29258.638      472.81692      14615.641      1.473695       0.84817502   
     20600  -10134.284     -10262.075      127.7913       32715.467      457.91411      14604.696      1.4747993      0.84817502   
     20700  -10132.301     -10261.817      129.51586      32552.284      464.0937       14599.239      1.4753506      0.84817502   
     20800  -10132.969     -10262.364      129.39489      30279.504      463.66022      14600.152      1.4752583      0.84817502   
     20900  -10134.55      -10264.555      130.00508      30488.667      465.84674      14604.575      1.4748116      0.84817502   
     21000  -10136.767     -10264.506      127.73904      30040.748      457.72682      14610.181      1.4742457      0.79361891   
     21100  -10133.934     -10262.355      128.42097      27662.518      460.17038      14615.747      1.4736842      0.79361891   
     21200  -10135.452     -10266.418      130.96614      28890.895      469.29048      14622.228      1.4730311      0.79361891   
     21300  -10136.035     -10261.645      125.6105       30783.942      450.09965      14629.601      1.4722887      0.79361891   
     21400  -10136.211     -10265.202      128.99148      30867.446      462.2147       14636.818      1.4715628      0.79361891   
     21500  -10137.149     -10264.573      127.42383      32925.61       456.59732      14643.26       1.4709154      0.79361891   
     21600  -10138.632     -10268.837      130.20514      31927.904      466.56361      14648.007      1.4704387      0.79361891   
     21700  -10139.929     -10265.819      125.89046      30930.184      451.10283      14649.701      1.4702687      0.79361891   
     21800  -10138.798     -10266.995      128.19707      32023.286      459.36807      14652.952      1.4699424      0.79361891   
     21900  -10138.484     -10266.765      128.28038      29978.875      459.66661      14653.865      1.4698509      0.79361891   
     22000  -10140.354     -10267.992      127.63886      32844.56       457.36784      14651.62       1.4700761      0.82465633   
     22100  -10140.867     -10267.12       126.25271      30079.28       452.40088      14649.88       1.4702507      0.82465633   
     22200  -10139.176     -10265.503      126.32715      32474.989      452.66761      14651.375      1.4701007      0.82465633   
     22300  -10137.849     -10267.533      129.68385      29870.019      464.69567      14659.804      1.4692554      0.82465633   
     22400  -10138.26      -10265.307      127.0465       28431.69       455.24525      14673.425      1.4678915      0.82465633   
     22500  -10139.167     -10268.544      129.37697      28323.224      463.59602      14688.652      1.4663698      0.82465633   
     22600  -10140.038     -10262.394      122.3556       31916.013      438.43637      14704.911      1.4647485      0.82465633   
     22700  -10141.389     -10267.091      125.70284      27383.929      450.43051      14721.315      1.4631164      0.82465633   
     22800  -10140.563     -10268.496      127.93352      27394.82       458.4237       14734.523      1.4618048      0.82465633   
     22900  -10141.082     -10265.64       124.55814      30296.775      446.32872      14732.753      1.4619804      0.82465633   
     23000  -10140.035     -10265.187      125.15193      31999.326      448.45646      14712.472      1.4639957      0.86607942   
     23100  -10138.517     -10265.065      126.54833      31363.299      453.46016      14686.9        1.4665448      0.86607942   
     23200  -10135.345     -10263.964      128.6198       32047.389      460.88284      14659.455      1.4692904      0.86607942   
     23300  -10137.864     -10262.578      124.71344      33353.325      446.88519      14635.58       1.4716873      0.86607942   
     23400  -10137.16      -10265.788      128.62732      31006.764      460.9098       14614.306      1.4738296      0.86607942   
     23500  -10136.096     -10264.202      128.10654      33098.83       459.04368      14595.414      1.4757373      0.86607942   
     23600  -10131.239     -10261.249      130.01013      34037.496      465.86481      14585.944      1.4766954      0.86607942   
     23700  -10132.721     -10263.385      130.66421      31490.893      468.20859      14587.021      1.4765864      0.86607942   
     23800  -10132.613     -10261.528      128.91523      29574.407      461.94148      14598.834      1.4753915      0.86607942   
     23900  -10136.593     -10264.525      127.93196      29734.496      458.41813      14620.089      1.4732466      0.86607942   
     24000  -10135.392     -10264.12       128.72844      31589.371      461.27214      14647.343      1.4705053      0.75363455   
     24100  -10135.697     -10266.05       130.35381      28280.13       467.09633      14676.375      1.4675965      0.75363455   
     24200  -10135.879     -10262.548      126.66877      31868.969      453.89174      14702.803      1.4649585      0.75363455   
     24300  -10136.965     -10263.766      126.80127      14545.995      454.36653      14725.083      1.462742       0.75363455   
     24400  -10133.164     -10263.275      130.11179      29385.019      466.22909      14729.487      1.4623046      0.75363455   
     24500  -10133.522     -10262.758      129.23624      30185.216      463.09174      14725.154      1.4627349      0.75363455   
     24600  -10135.601     -10264.453      128.85235      29385.795      461.71614      14716.349      1.4636101      0.75363455   
     24700  -10134.627     -10263.916      129.28902      27752.057      463.28088      14702.348      1.4650038      0.75363455   
     24800  -10135.148     -10265.95       130.80252      28593.458      468.70418      14683.482      1.4668862      0.75363455   
     24900  -10132.313     -10262.547      130.2338       28444.497      466.66628      14657.96       1.4694402      0.75363455   
     25000  -10134.17      -10263.369      129.19947      30916.8        462.95997      14629.944      1.4722542      0.80252663   
     25100  -10134.172     -10262.387      128.215        31451.681      459.43233      14600.19       1.4752545      0.80252663   
     25200  -10134.155     -10262.2        128.04418      29926.845      458.82024      14568.237      1.4784903      0.80252663   
     25300  -10136.032     -10264.734      128.70198      28372.657      461.17731      14536.153      1.4817535      0.80252663   
     25400  -10134.934     -10261.931      126.99733      34195.172      455.06905      14507.153      1.4847156      0.80252663   
     25500  -10135.773     -10262.168      126.39558      30569.181      452.9128       14494.138      1.4860488      0.80252663   
     25600  -10135.764     -10266.306      130.5413       31335.909      467.76814      14496.354      1.4858216      0.80252663   
     25700  -10134.543     -10262.899      128.356        30280.307      459.93756      14504.296      1.485008       0.80252663   
     25800  -10133.927     -10262.461      128.53412      29420.56       460.57582      14515.353      1.4838768      0.80252663   
     25900  -10133.858     -10260.423      126.56545      28815.903      453.52152      14529.794      1.482402       0.80252663   
     26000  -10136.939     -10262.705      125.766        30717.349      450.65683      14547.456      1.4806023      0.81590652   
     26100  -10137.496     -10267.115      129.61866      32001.423      464.46205      14567.81       1.4785336      0.81590652   
     26200  -10136.077     -10266.215      130.13793      30857.164      466.32277      14591.19       1.4761645      0.81590652   
     26300  -10136.417     -10266.003      129.58653      28202.851      464.34693      14617.95       1.4734621      0.81590652   
     26400  -10137.197     -10265.004      127.80711      32165.025      457.97076      14644.664      1.4707744      0.81590652   
     26500  -10139.502     -10268.778      129.27596      28734.597      463.23406      14669.339      1.4683004      0.81590652   
     26600  -10138.74      -10266.427      127.68625      30150.19       457.53765      14689.381      1.4662971      0.81590652   
     26700  -10139.987     -10269.524      129.53711      27953.555      464.16984      14703.784      1.4648607      0.81590652   
     26800  -10142.607     -10268.838      126.2318       26407.101      452.32592      14707.234      1.4645172      0.81590652   
     26900  -10144.87      -10266.187      121.31709      29309.972      434.71508      14702.304      1.4650082      0.81590652   
     27000  -10144.424     -10269.989      125.56479      29028.371      449.93585      14691.404      1.4660951      0.81086346   
     27100  -10141.759     -10267.576      125.81661      27306.775      450.8382       14671.783      1.4680558      0.81086346   
     27200  -10143.057     -10271.115      128.05811      29351.036      458.87015      14642.912      1.4709503      0.81086346   
     27300  -10139.752     -10267.769      128.01607      32762.976      458.7195       14606.11       1.4746566      0.81086346   
     27400  -10139.772     -10269.702      129.92923      31561.693      465.57494      14568.584      1.4784551      0.81086346   
     27500  -10139.344     -10268.651      129.30699      32734.08       463.34525      14534.607      1.4819111      0.81086346   
     27600  -10136.659     -10262.52       125.86112      45320.502      450.99768      14502.701      1.4851714      0.81086346   
     27700  -10138.045     -10268.435      130.38982      34824.985      467.22535      14487.252      1.4867552      0.81086346   
     27800  -10138.11      -10263.686      125.57598      30559.433      449.97596      14480.913      1.4874059      0.81086346   
     27900  -10135.503     -10261.698      126.19581      34198.162      452.19698      14480.452      1.4874533      0.81086346   
     28000  -10138.122     -10264.107      125.98471      31066.053      451.44053      14494.927      1.4859679      0.77678116   
     28100  -10135.981     -10263.908      127.92662      31474.097      458.39899      14515.745      1.4838368      0.77678116   
     28200  -10136.073     -10265.573      129.5005       29374.073      464.03865      14538.59       1.4815052      0.77678116   
     28300  -10133.9       -10263.98       130.08025      30186.558      466.11609      14561.858      1.4791379      0.77678116   
     28400  -10134.874     -10266.502      131.62736      30643.059      471.65984      14584.377      1.4768541      0.77678116   
     28500  -10135.134     -10263.593      128.45922      33446.26       460.30743      14603.694      1.4749006      0.77678116   
     28600  -10135.177     -10266.724      131.54685      31233.953      471.37133      14619.919      1.4732637      0.77678116   
     28700  -10136.408     -10267.953      131.54418      25410.909      471.36177      14628.947      1.4723545      0.77678116   
     28800  -10139.891     -10267.627      127.73629      28636.768      457.71698      14630.806      1.4721675      0.77678116   
     28900  -10141.32      -10269.235      127.91534      28726.859      458.35856      14626.396      1.4726114      0.77678116   
     29000  -10138.408     -10261.152      122.74394      28706.52       439.8279       14617.219      1.4735359      0.7500262    
     29100  -10139.593     -10268.099      128.50571      33919.866      460.47405      14607.767      1.4744893      0.7500262    
     29200  -10140.321     -10266.283      125.96187      30063.839      451.35869      14597.993      1.4754766      0.7500262    
     29300  -10140.656     -10264.635      123.97873      31997.331      444.25253      14584.499      1.4768417      0.7500262    
     29400  -10139.009     -10266.379      127.36963      29960.737      456.4031       14568.649      1.4784484      0.7500262    
     29500  -10141.857     -10266.82       124.96342      30739.292      447.78096      14552.708      1.4800679      0.7500262    
     29600  -10142.856     -10268.724      125.86802      28202.164      451.02242      14538.436      1.4815209      0.7500262    
     29700  -10139.035     -10267.279      128.24386      28169.608      459.53575      14525.03       1.4828882      0.7500262    
     29800  -10139.879     -10265.252      125.37315      32000.787      449.24914      14516.601      1.4837493      0.7500262    
     29900  -10138.502     -10266.857      128.35528      28383.964      459.93499      14512.05       1.4842146      0.7500262    
     30000  -10142.768     -10267.559      124.79081      27803.139      447.16245      14510.493      1.4843739      0.83062327   
     30100  -10144.394     -10267.592      123.19807      30507.482      441.45518      14508.457      1.4845821      0.83062327   
     30200  -10146.406     -10272.638      126.23184      31969.06       452.32609      14505.383      1.4848967      0.83062327   
     30300  -10145.682     -10270.384      124.70204      28952.877      446.84436      14500.791      1.485367       0.83062327   
     30400  -10143.664     -10271.08       127.41609      28685.798      456.56959      14495.502      1.485909       0.83062327   
     30500  -10140.064     -10267.719      127.65441      30009.163      457.42358      14504.083      1.4850299      0.83062327   
     30600  -10137.482     -10265.401      127.91857      32870.306      458.37014      14526.227      1.4827661      0.83062327   
     30700  -10136.827     -10265.055      128.22789      30446.118      459.47852      14548.912      1.4804541      0.83062327   
     30800  -10135.748     -10265.548      129.80032      25255.661      465.11299      14573.126      1.4779942      0.83062327   
     30900  -10134.916     -10261.548      126.63272      29785.839      453.76257      14594.649      1.4758147      0.83062327   
     31000  -10136.129     -10265.123      128.99369      28146.823      462.2226       14612.408      1.474021       0.80431848   
     31100  -10132.895     -10264.092      131.19736      28338.831      470.11902      14624.578      1.4727944      0.80431848   
     31200  -10132.219     -10264.598      132.37845      27552.84       474.35119      14630.25       1.4722234      0.80431848   
     31300  -10129.816     -10259.555      129.73819      34977.17       464.89038      14631.107      1.4721372      0.80431848   
     31400  -10132.116     -10262.055      129.93867      32633.937      465.60875      14630.322      1.4722162      0.80431848   
     31500  -10136.02      -10264.365      128.34429      31979.406      459.89561      14627.112      1.4725392      0.80431848   
     31600  -10137.157     -10267.607      130.44964      26974.244      467.43972      14621.728      1.4730815      0.80431848   
     31700  -10134.893     -10261.889      126.99623      27941.02       455.06513      14612.636      1.473998       0.80431848   
     31800  -10134.847     -10262.682      127.83446      32657.219      458.06875      14600.51       1.4752222      0.80431848   
     31900  -10132.665     -10264.084      131.41935      32635.422      470.91446      14588.278      1.4764592      0.80431848   
     32000  -10136.113     -10262.163      126.05013      32703.312      451.67497      14578.056      1.4774944      0.86159009   
     32100  -10133.524     -10264.608      131.08406      32621.735      469.71302      14569.297      1.4783827      0.86159009   
     32200  -10132.431     -10261.315      128.88405      34483.385      461.82975      14564.183      1.4789018      0.86159009   
     32300  -10133.241     -10263.918      130.67701      30292.615      468.25445      14563.242      1.4789973      0.86159009   
     32400  -10135.39      -10264.714      129.32399      33333.997      463.40616      14568.416      1.4784721      0.86159009   
     32500  -10136.507     -10263.084      126.57653      33612.87       453.56119      14581.245      1.4771713      0.86159009   
     32600  -10137.272     -10262.226      124.95433      31349.26       447.74837      14597.961      1.4754797      0.86159009   
     32700  -10133.652     -10262.562      128.90915      28418.226      461.91968      14615.36       1.4737233      0.86159009   
     32800  -10137.213     -10263.647      126.43378      33165.866      453.04968      14634.411      1.4718048      0.86159009   
     32900  -10133.731     -10261.656      127.92451      33516.072      458.39144      14654.832      1.4697539      0.86159009   
     33000  -10135.302     -10263.232      127.93021      33270.195      458.41184      14674.52       1.467782       0.82290172   
     33100  -10134.362     -10263.958      129.59571      31560.424      464.37981      14692.907      1.4659452      0.82290172   
     33200  -10137.136     -10264.832      127.69543      28650.673      457.57056      14709.844      1.4642573      0.82290172   
     33300  -10136.834     -10264.872      128.03719      30179.634      458.7952       14726.323      1.4626188      0.82290172   
     33400  -10136.44      -10264.503      128.06265      28498.167      458.88641      14739.685      1.4612928      0.82290172   
     33500  -10135.96      -10261.57       125.61044      28628.843      450.09944      14746.285      1.4606388      0.82290172   
     33600  -10135.674     -10265.559      129.88517      26624.792      465.41706      14751.06       1.4601661      0.82290172   
     33700  -10136.007     -10263.568      127.56118      26857.031      457.0895       14750.468      1.4602246      0.82290172   
     33800  -10134.281     -10263.544      129.26287      32095.515      463.18716      14746.979      1.4605701      0.82290172   
     33900  -10135.767     -10264.193      128.42677      27902.327      460.19115      14740.006      1.4612611      0.82290172   
     34000  -10134.02      -10264.352      130.33181      29765.055      467.0175       14729.245      1.4623286      0.81917883   
     34100  -10132.53      -10263.058      130.52763      30847.909      467.71916      14715.2        1.4637243      0.81917883   
     34200  -10133.86      -10262.564      128.70404      32044.628      461.1847       14698.78       1.4653595      0.81917883   
     34300  -10134.265     -10262.408      128.14257      30880.467      459.1728       14680.014      1.4672326      0.81917883   
     34400  -10136.15      -10266.962      130.81242      29412.782      468.73965      14660.835      1.4691521      0.81917883   
     34500  -10138.236     -10263.986      125.75064      32441.947      450.60181      14640.962      1.4711463      0.81917883   
     34600  -10139.549     -10264.693      125.14396      30622.15       448.42788      14622.634      1.4729902      0.81917883   
     34700  -10142.165     -10271.671      129.50575      30990.235      464.05749      14607.296      1.4745369      0.81917883   
     34800  -10139.425     -10266.747      127.32187      31183.664      456.23198      14593.222      1.4759589      0.81917883   
     34900  -10137.559     -10265.394      127.8349       32367.999      458.07033      14584.253      1.4768667      0.81917883   
     35000  -10135.809     -10268.651      132.84254      28895.444      476.01419      14579.425      1.4773557      0.8516977    
     35100  -10135.43      -10263.494      128.06349      28868.609      458.88944      14579.281      1.4773703      0.8516977    
     35200  -10132.702     -10264.145      131.44314      31982.093      470.99973      14581.521      1.4771433      0.8516977    
     35300  -10139.737     -10265.416      125.67945      29779.755      450.34669      14590.711      1.476213       0.8516977    
     35400  -10139.06      -10266.622      127.5621       31170.507      457.09279      14601.187      1.4751538      0.8516977    
     35500  -10135.038     -10266.518      131.47998      29855.153      471.13172      14612.055      1.4740567      0.8516977    
     35600  -10135.815     -10263.088      127.27297      30583.097      456.05677      14623.159      1.4729373      0.8516977    
     35700  -10131.642     -10263.985      132.34321      31213.542      474.22494      14630.367      1.4722116      0.8516977    
     35800  -10129.848     -10259.451      129.60315      31420.034      464.4065       14633.612      1.4718852      0.8516977    
     35900  -10131.529     -10261.595      130.06651      31099.663      466.06684      14636.864      1.4715582      0.8516977    
     36000  -10136.464     -10268.007      131.54275      27682.338      471.35664      14635.525      1.4716928      0.84153578   
     36100  -10136.682     -10264.316      127.63479      30731.909      457.35327      14626.871      1.4725635      0.84153578   
     36200  -10133.113     -10260.218      127.10515      26631.964      455.45541      14613.387      1.4739223      0.84153578   
     36300  -10131.176     -10263.246      132.06929      33120.645      473.24339      14595.649      1.4757135      0.84153578   
     36400  -10129.995     -10259.686      129.69073      35329.274      464.72031      14576.841      1.4776176      0.84153578   
     36500  -10131.251     -10262.08       130.82836      34428.319      468.79679      14554.716      1.4798638      0.84153578   
     36600  -10128.949     -10260.627      131.67807      34245.757      471.84154      14531.307      1.4822477      0.84153578   
     36700  -10132.214     -10260.749      128.5347       32104.897      460.57793      14516.609      1.4837485      0.84153578   
     36800  -10131.827     -10262.348      130.5211       31409.449      467.69579      14514.41       1.4839732      0.84153578   
     36900  -10132.931     -10261.813      128.88176      32112.205      461.82152      14521.583      1.4832403      0.84153578   
     37000  -10133.374     -10264.922      131.54814      33158.148      471.37595      14536.871      1.4816804      0.8724188    
     37100  -10135.079     -10264.097      129.01763      32904.825      462.30839      14559.657      1.4793615      0.8724188    
     37200  -10134.294     -10266.457      132.1629       32031.679      473.57883      14592.921      1.4759894      0.8724188    
     37300  -10133.127     -10261.747      128.61941      34825.05       460.88144      14631.564      1.4720912      0.8724188    
     37400  -10139.408     -10266.539      127.13115      30046.075      455.54856      14667.941      1.4684403      0.8724188    
     37500  -10140.699     -10268.463      127.76428      28787.088      457.81729      14693.906      1.4658455      0.8724188    
     37600  -10140.042     -10265.379      125.33711      26296.269      449.12         14707.981      1.4644428      0.8724188    
     37700  -10135.28      -10264.77       129.48904      26488.177      463.9976       14712.132      1.4640296      0.8724188    
     37800  -10135.455     -10262.219      126.76433      25298.342      454.23414      14705.401      1.4646997      0.8724188    
     37900  -10134.046     -10262.05       128.00465      28641.005      458.67859      14688.181      1.4664168      0.8724188    
     38000  -10132.08      -10263.989      131.90931      26467.84       472.67015      14661.365      1.469099       0.91504896   
     38100  -10130.605     -10261.139      130.53387      28895.576      467.74155      14628.713      1.4723781      0.91504896   
     38200  -10128.575     -10262.603      134.02795      33662.093      480.26187      14594.164      1.4758637      0.91504896   
     38300  -10126.455     -10257.024      130.56909      34106.532      467.86774      14562.668      1.4790556      0.91504896   
     38400  -10128.073     -10260.171      132.09881      31886.851      473.34917      14537.33       1.4816336      0.91504896   
     38500  -10126.859     -10261.215      134.35535      33324.143      481.43503      14523.061      1.4830893      0.91504896   
     38600  -10130.084     -10264.657      134.57302      33122.983      482.21501      14520.576      1.4833431      0.91504896   
     38700  -10132.375     -10263.126      130.75074      30622.106      468.51865      14527.355      1.4826509      0.91504896   
     38800  -10133.491     -10265.45       131.95941      35588.87       472.84966      14541.633      1.4811952      0.91504896   
     38900  -10134.819     -10265.555      130.73591      35280.299      468.46549      14562.463      1.4790765      0.91504896   
     39000  -10136.025     -10267.248      131.22354      32780.472      470.21282      14586.431      1.4766461      0.84698172   
     39100  -10136.45      -10265.262      128.81279      30537.553      461.5744       14609.176      1.4743471      0.84698172   
     39200  -10137.162     -10266.738      129.57583      27299.724      464.30858      14625.871      1.4726642      0.84698172   
     39300  -10134.817     -10263.672      128.85473      28086.71       461.72467      14635.484      1.4716969      0.84698172   
     39400  -10137.576     -10265.018      127.44121      26685.556      456.6596       14635.391      1.4717062      0.84698172   
     39500  -10135.422     -10263.7        128.27807      26993.747      459.65834      14626.84       1.4725666      0.84698172   
     39600  -10136.87      -10264.879      128.009        30044.009      458.69417      14612.344      1.4740274      0.84698172   
     39700  -10135.249     -10262.135      126.8854       31109.724      454.66799      14594.828      1.4757966      0.84698172   
     39800  -10131.736     -10257.871      126.13537      30583.847      451.9804       14578.782      1.4774209      0.84698172   
     39900  -10130.875     -10263.751      132.87599      31235.616      476.13406      14564.933      1.4788257      0.84698172   
     40000  -10130.866     -10261.63       130.76409      32336.453      468.56648      14553.305      1.4800072      0.84560552   
     40100  -10129.367     -10260.388      131.02057      28479.167      469.48553      14545.364      1.4808153      0.84560552   
     40200  -10135.055     -10263.604      128.54865      30679.964      460.62789      14539.854      1.4813764      0.84560552   
     40300  -10133.717     -10264.851      131.13441      30895.938      469.89346      14538.557      1.4815085      0.84560552   
     40400  -10135.711     -10262.181      126.46972      32374.985      453.17849      14538.853      1.4814784      0.84560552   
     40500  -10135.655     -10264.822      129.16648      30117.14       462.84176      14537.927      1.4815728      0.84560552   
     40600  -10137.53      -10262.657      125.12755      30582.8        448.36908      14535.685      1.4818013      0.84560552   
     40700  -10136.758     -10265.035      128.27701      32483.099      459.65455      14534.095      1.4819634      0.84560552   
     40800  -10136.578     -10266.052      129.47378      29169.593      463.94293      14535.404      1.4818299      0.84560552   
     40900  -10135.574     -10264.515      128.94134      30890.744      462.03501      14537.199      1.481647       0.84560552   
     41000  -10136.11      -10265.742      129.63159      31606.338      464.5084       14543.058      1.4810501      0.84817745   
     41100  -10136.988     -10262.748      125.75993      29592.14       450.63509      14551.063      1.4802352      0.84817745   
     41200  -10139.38      -10264.365      124.98557      31445.464      447.86031      14561.067      1.4792182      0.84817745   
     41300  -10141.173     -10266.632      125.45904      33316.714      449.55692      14575.455      1.4777581      0.84817745   
     41400  -10141.942     -10267.737      125.79404      31042.417      450.75732      14588.942      1.4763919      0.84817745   
     41500  -10140.273     -10266.441      126.16763      31366.906      452.09598      14603.834      1.4748864      0.84817745   
     41600  -10138.145     -10270.295      132.1498       31275.308      473.53189      14619.527      1.4733033      0.84817745   
     41700  -10137.524     -10267.824      130.30057      31085.607      466.90555      14634.324      1.4718135      0.84817745   
     41800  -10137.869     -10264.154      126.28448      31141.463      452.51471      14648.188      1.4704205      0.84817745   
     41900  -10139.25      -10267.386      128.13599      28457.844      459.14921      14659.446      1.4692913      0.84817745   
     42000  -10138.309     -10262.181      123.8719       29101.018      443.86971      14666.004      1.4686343      0.80142179   
     42100  -10142.278     -10265.383      123.10411      30405.256      441.11848      14663.978      1.4688372      0.80142179   
     42200  -10140.828     -10267.158      126.32969      30155.536      452.6767       14649.938      1.4702449      0.80142179   
     42300  -10136.595     -10263.971      127.37668      30394.473      456.42837      14625.494      1.4727021      0.80142179   
     42400  -10137.291     -10263.859      126.56774      31634.77       453.52971      14593.04       1.4759774      0.80142179   
     42500  -10134.708     -10259.65       124.94186      30712.232      447.7037       14558.436      1.4794856      0.80142179   
     42600  -10135.869     -10266.706      130.83675      30647.707      468.82683      14528.178      1.4825669      0.80142179   
     42700  -10132.492     -10263.695      131.20277      32304.581      470.13841      14503.143      1.4851261      0.80142179   
     42800  -10130.676     -10262.556      131.88037      29655.106      472.56645      14487.385      1.4867415      0.80142179   
     42900  -10136.009     -10265.471      129.46169      42605.839      463.89958      14480.708      1.4874271      0.80142179   
     43000  -10133.705     -10263.171      129.46607      32522.154      463.9153       14494.826      1.4859782      0.96046338   
     43100  -10132.53      -10262.244      129.71481      29838.456      464.8066       14516.695      1.4837397      0.96046338   
     43200  -10136.028     -10265.136      129.10729      28549.614      462.62966      14542.342      1.481123       0.96046338   
     43300  -10136.473     -10268.38       131.90752      30516.3        472.66372      14568.532      1.4784604      0.96046338   
     43400  -10135.828     -10264.676      128.84863      30118.025      461.70281      14590.312      1.4762533      0.96046338   
     43500  -10137.583     -10264.214      126.63113      28788.433      453.75687      14605.788      1.4746891      0.96046338   
     43600  -10133.907     -10262.387      128.48029      32638.583      460.38295      14610.672      1.4741961      0.96046338   
     43700  -10131.491     -10262.981      131.4904       29514.875      471.16907      14608.298      1.4744357      0.96046338   
     43800  -10126.443     -10260.883      134.44021      26470.841      481.73909      14599.513      1.475323       0.96046338   
     43900  -10125.828     -10256.131      130.30342      29900.365      466.91577      14586.633      1.4766256      0.96046338   
     44000  -10125.629     -10257.868      132.23911      31543.327      473.85193      14573.402      1.4779662      0.9179142    
     44100  -10129.998     -10260.391      130.39353      31003.092      467.23865      14564.331      1.4788868      0.9179142    
     44200  -10135.07      -10264.772      129.70174      31986.578      464.75978      14559.847      1.4793423      0.9179142    
     44300  -10133.588     -10265.96       132.37221      33588.627      474.32885      14555.083      1.4798264      0.9179142    
     44400  -10132.106     -10264.563      132.45655      33075.278      474.63107      14550.016      1.4803418      0.9179142    
     44500  -10134.165     -10263.839      129.67357      29772.003      464.65883      14544.641      1.4808889      0.9179142    
     44600  -10135.372     -10266.252      130.88014      28433.818      468.98232      14533.713      1.4820023      0.9179142    
     44700  -10136.013     -10261.182      125.16918      29622.552      448.51826      14518.853      1.4835192      0.9179142    
     44800  -10133.941     -10266.858      132.9167       29147.007      476.27993      14504.211      1.4850168      0.9179142    
     44900  -10133.259     -10264.883      131.62363      32022.43       471.64646      14488.493      1.4866278      0.9179142    
     45000  -10132.473     -10265.056      132.58291      28639.516      475.08385      14474.059      1.4881103      0.77438504   
     45100  -10132.853     -10263.534      130.68096      70196.078      468.26859      14468.147      1.4887184      0.77438504   
     45200  -10135.024     -10262.19       127.16658      30757.107      455.67552      14495.182      1.4859418      0.77438504   
     45300  -10137.897     -10266.102      128.20462      28005.384      459.39513      14522.693      1.4831269      0.77438504   
     45400  -10139.397     -10267.716      128.31885      28213.816      459.80446      14544.386      1.4809148      0.77438504   
     45500  -10139.135     -10268.332      129.19713      25708.147      462.95161      14561.245      1.4792002      0.77438504   
     45600  -10142.235     -10268.388      126.15308      28910.329      452.04385      14569.075      1.4784052      0.77438504   
     45700  -10141.839     -10268.999      127.15968      29246.228      455.65082      14566.505      1.478666       0.77438504   
     45800  -10139.694     -10266.663      126.96849      30838.043      454.96572      14555.401      1.4797941      0.77438504   
     45900  -10139.913     -10269.394      129.48135      33576.744      463.97004      14542.04       1.4811537      0.77438504   
     46000  -10137.577     -10270.507      132.93021      60625.653      476.32832      14530.137      1.482367       0.78255354   
     46100  -10140.884     -10269.578      128.6945       31467.402      461.15051      14532.851      1.4820903      0.78255354   
     46200  -10141.921     -10267.165      125.24393      31324.463      448.7861       14532.902      1.4820851      0.78255354   
     46300  -10141.788     -10271.081      129.29299      27900.21       463.29508      14528.447      1.4825395      0.78255354   
     46400  -10145.641     -10270.279      124.63779      31876.338      446.61414      14522.505      1.4831461      0.78255354   
     46500  -10140.607     -10268.419      127.81199      30787.611      457.98824      14515.968      1.483814       0.78255354   
     46600  -10141.569     -10266.522      124.95342      30589.98       447.74512      14501.839      1.4852597      0.78255354   
     46700  -10141.109     -10267.485      126.37569      33768.166      452.84153      14484.882      1.4869984      0.78255354   
     46800  -10141.166     -10266.562      125.39633      62936.887      449.33219      14471.221      1.4884021      0.78255354   
     46900  -10144.039     -10271.367      127.32818      26295.021      456.2546       14489.546      1.4865198      0.78255354   
     47000  -10142.385     -10269.387      127.00215      48093.036      455.08633      14505.751      1.4848591      0.81584994   
     47100  -10146.235     -10273.072      126.83716      26677.843      454.49511      14539.589      1.4814034      0.81584994   
     47200  -10145.481     -10272.442      126.96114      26692.777      454.93938      14568.246      1.4784893      0.81584994   
     47300  -10142.468     -10271.961      129.49353      24343.565      464.01369      14583.997      1.4768925      0.81584994   
     47400  -10138.228     -10268.668      130.43999      24247.703      467.40512      14583.356      1.4769574      0.81584994   
     47500  -10136.387     -10266.118      129.73106      30477.952      464.86482      14571.504      1.4781588      0.81584994   
     47600  -10138.844     -10267.793      128.94869      28044.264      462.06135      14553.962      1.4799405      0.81584994   
     47700  -10138.67      -10265.644      126.97483      29523.547      454.98844      14529.759      1.4824056      0.81584994   
     47800  -10136.518     -10266.047      129.5296       32709.661      464.14292      14517.66       1.4836411      0.81584994   
     47900  -10135.148     -10265.495      130.34755      30027.075      467.0739       14524.967      1.4828947      0.81584994   
     48000  -10135.05      -10264.463      129.4122       30598.298      463.72225      14526.69       1.4827188      0.77608829   
     48100  -10137.254     -10267.437      130.18264      31600.117      466.48296      14522.2        1.4831773      0.77608829   
     48200  -10139.799     -10267.652      127.85336      32438.481      458.13647      14510.094      1.4844147      0.77608829   
     48300  -10141.316     -10270.693      129.37767      73968.288      463.59851      14490.762      1.486395       0.77608829   
     48400  -10142.337     -10270.494      128.15725      30682.557      459.22539      14495.898      1.4858684      0.77608829   
     48500  -10142.369     -10265.502      123.13315      25214.296      441.22255      14495.321      1.4859275      0.77608829   
     48600  -10140.166     -10269.943      129.77693      29527.665      465.02921      14484.421      1.4870458      0.77608829   
     48700  -10143.242     -10270.311      127.06887      85793.336      455.32541      14466.088      1.4889303      0.77608829   
     48800  -10144.593     -10267.589      122.99592      29739.446      440.73082      14475.304      1.4879824      0.77608829   
     48900  -10143.876     -10267.255      123.37919      73212.501      442.10418      14481.337      1.4873624      0.77608829   
     49000  -10143.472     -10269.674      126.20165      25835.857      452.2179       14514.321      1.4839824      0.80023391   
     49100  -10141.579     -10271.007      129.4277       26492.982      463.7778       14536.55       1.4817131      0.80023391   
     49200  -10141.383     -10270.307      128.924        29757.434      461.97288      14544.126      1.4809413      0.80023391   
     49300  -10139.679     -10267.477      127.79808      30135.557      457.93837      14539.869      1.4813748      0.80023391   
     49400  -10143.459     -10274.041      130.58113      30047.447      467.91086      14526.021      1.4827871      0.80023391   
     49500  -10142.675     -10269.654      126.97841      30509.465      455.00125      14527.488      1.4826374      0.80023391   
     49600  -10137.794     -10268.115      130.32167      32703.116      466.98117      14549.14       1.4804309      0.80023391   
     49700  -10136.176     -10263.945      127.76875      29092.903      457.8333       14564.018      1.4789186      0.80023391   
     49800  -10137.976     -10266.138      128.16151      30664.4        459.24065      14575.631      1.4777402      0.80023391   
     49900  -10140.959     -10268.771      127.81235      29885.083      457.98953      14579.083      1.4773903      0.80023391   
     50000  -10139.262     -10267.109      127.84697      32464.285      458.11357      14573.231      1.4779836      0.78455847   
     50100  -10135.619     -10266.857      131.23878      25597.653      470.26745      14557.27       1.4796041      0.78455847   
     50200  -10131.609     -10262.801      131.19161      32094.809      470.0984       14534.766      1.481895       0.78455847   
     50300  -10128.362     -10261.936      133.57416      31684.355      478.63578      14528.843      1.4824991      0.78455847   
     50400  -10132.379     -10264.917      132.53853      31092.97       474.92482      14538.921      1.4814715      0.78455847   
     50500  -10135.525     -10267.473      131.94843      30989.613      472.81033      14543.537      1.4810012      0.78455847   
     50600  -10136.233     -10263.959      127.72523      31500.717      457.67735      14542.183      1.4811391      0.78455847   
     50700  -10134.875     -10264.959      130.08405      29078.351      466.1297       14535.148      1.481856       0.78455847   
     50800  -10140.838     -10268.785      127.9466       31186.566      458.47056      14531.735      1.4822041      0.78455847   
     50900  -10138.926     -10270.063      131.13644      27409.131      469.9007       14541.865      1.4811715      0.78455847   
     51000  -10140.84      -10268.075      127.23472      28879.471      455.9197       14543.623      1.4809925      0.75515841   
     51100  -10139.983     -10268.477      128.4943       30037.149      460.43315      14535.212      1.4818495      0.75515841   
     51200  -10141.682     -10269.861      128.17891      28649.969      459.303        14517.58       1.4836492      0.75515841   
     51300  -10143.954     -10270.883      126.92932      59655.604      454.82534      14493.03       1.4861624      0.75515841   
     51400  -10144.038     -10268.776      124.73724      31460.093      446.9705       14500.793      1.4853668      0.75515841   
     51500  -10143.436     -10272.75       129.3145       25864.634      463.37218      14512.56       1.4841625      0.75515841   
     51600  -10141.588     -10268.121      126.5335       27122.905      453.40703      14514.634      1.4839503      0.75515841   
     51700  -10143.152     -10267.551      124.39923      62511.206      445.7593       14516.088      1.4838017      0.75515841   
     51800  -10140.643     -10269.305      128.66236      29655.863      461.03536      14539.174      1.4814457      0.75515841   
     51900  -10140.675     -10266.555      125.88004      30312.269      451.06548      14554.619      1.4798736      0.75515841   
     52000  -10143.182     -10270.397      127.21524      29594.982      455.84989      14560.618      1.4792639      0.77945178   
     52100  -10144.48      -10270.991      126.51042      30747.547      453.32431      14557.127      1.4796187      0.77945178   
     52200  -10143.108     -10269.926      126.81828      29323.594      454.42746      14542.814      1.4810749      0.77945178   
     52300  -10141.895     -10269.095      127.19968      26653.461      455.79415      14534.864      1.481885       0.77945178   
     52400  -10142.984     -10269.787      126.80261      27540.627      454.37133      14541.916      1.4811663      0.77945178   
     52500  -10141.734     -10271.835      130.10128      25279.187      466.19144      14536.132      1.4817557      0.77945178   
     52600  -10139.514     -10268.33       128.81639      27169.459      461.58731      14523.866      1.4830071      0.77945178   
     52700  -10138.965     -10269.828      130.86325      32409.536      468.92178      14517.555      1.4836518      0.77945178   
     52800  -10141.16      -10269.835      128.67537      50873.472      461.08197      14506.519      1.4847805      0.77945178   
     52900  -10144.467     -10274.096      129.62949      28898.931      464.50086      14511.337      1.4842876      0.77945178   
     53000  -10148.001     -10271.719      123.71811      30488.852      443.31863      14508.547      1.4845729      0.78042927   
     53100  -10145.632     -10272.549      126.91696      45208.081      454.78107      14498.092      1.4856436      0.78042927   
     53200  -10141.35      -10268.16       126.81007      29161.483      454.39805      14499.392      1.4855103      0.78042927   
     53300  -10142.99      -10271.986      128.9956       48694.641      462.22947      14491.361      1.4863336      0.78042927   
     53400  -10141.919     -10268.683      126.76401      75440.836      454.23299      14489.455      1.4865291      0.78042927   
     53500  -10143.589     -10271.186      127.59703      29522.175      457.21796      14515          1.483913       0.78042927   
     53600  -10144.881     -10272.195      127.31446      28677.209      456.20544      14529.425      1.4824397      0.78042927   
     53700  -10140.372     -10271.531      131.15833      32039.14       469.97917      14528.974      1.4824857      0.78042927   
     53800  -10143.81      -10268.972      125.16122      41330.26       448.48975      14516.348      1.4837752      0.78042927   
     53900  -10145.745     -10267.313      121.56802      29552.794      435.61425      14506.545      1.4847779      0.78042927   
     54000  -10141.543     -10268.119      126.57641      66526.706      453.56076      14490.783      1.4863928      0.9608813    
     54100  -10143.04      -10269.534      126.49389      28714.173      453.26508      14495.402      1.4859192      0.9608813    
     54200  -10141.412     -10270.5        129.0881       51288.954      462.5609       14493.916      1.4860716      0.9608813    
     54300  -10142.182     -10269.992      127.80992      31944.597      457.98083      14501.877      1.4852558      0.9608813    
     54400  -10139.539     -10271.317      131.77835      28864.552      472.20086      14505.847      1.4848493      0.9608813    
     54500  -10141.772     -10269.972      128.19976      26983.582      459.37773      14516.929      1.4837158      0.9608813    
     54600  -10139.004     -10268.947      129.94311      28721.047      465.62465      14537.915      1.481574       0.9608813    
     54700  -10138.599     -10268.09       129.49055      29934.297      464.00299      14547.015      1.4806471      0.9608813    
     54800  -10139.086     -10267.39       128.30359      27818.845      459.74979      14543.614      1.4809934      0.9608813    
     54900  -10137.506     -10266.329      128.82283      29032.522      461.61036      14531.859      1.4821914      0.9608813    
     55000  -10137.002     -10267.479      130.47786      28352.099      467.54085      14515.498      1.483862       0.78402572   
[...]
   2187100  -10163.961     -10291.568      127.60647      39669.387      457.25178      14482.294      1.4872641      0.88526364   
   2187200  -10160.534     -10292.782      132.24741      45133.579      473.88164      14471.745      1.4883482      0.88526364   
   2187300  -10163.179     -10290.724      127.54514      45876.301      457.03204      14456.597      1.4899078      0.88526364   
   2187400  -10160.738     -10289.118      128.38004      41425.11       460.02372      14456.121      1.4899568      0.88526364   
   2187500  -10160.655     -10290.307      129.65262      45446.895      464.58376      14474.311      1.4880844      0.88526364   
   2187600  -10157.822     -10287.799      129.97751      50864.692      465.74794      14486.538      1.4868284      0.88526364   
   2187700  -10159.042     -10288.377      129.33515      41309.405      463.44615      14494.146      1.486048       0.88526364   
   2187800  -10158.313     -10287.46       129.14724      44793.092      462.77282      14494.82       1.4859789      0.88526364   
   2187900  -10158.006     -10286.314      128.30809      48816.328      459.76592      14487.48       1.4867318      0.88526364   
   2188000  -10160.472     -10291.231      130.75822      40178.092      468.54546      14480.891      1.4874082      0.78364744   
   2188100  -10157.901     -10286.039      128.13891      42688.447      459.15969      14467.703      1.4887641      0.78364744   
   2188200  -10159.129     -10290.002      130.87285      48905.229      468.9562       14451.989      1.4903828      0.78364744   
   2188300  -10160.835     -10286.6        125.76525      43964.466      450.65414      14454.866      1.4900862      0.78364744   
   2188400  -10156.58      -10287.311      130.73084      46823.121      468.44734      14472.803      1.4882395      0.78364744   
   2188500  -10157.801     -10286.407      128.60568      47997.813      460.83225      14489.64       1.4865101      0.78364744   
   2188600  -10158.768     -10288.267      129.49856      49796.907      464.0317       14503.253      1.4851148      0.78364744   
   2188700  -10157.331     -10285.064      127.73294      40739.285      457.70498      14513.007      1.4841167      0.78364744   
   2188800  -10159.29      -10288.01       128.72015      39421.881      461.24244      14509.715      1.4844535      0.78364744   
   2188900  -10160.421     -10286.653      126.23274      43683.796      452.3293       14497.588      1.4856952      0.78364744   
   2189000  -10162.425     -10290.225      127.80019      45609.42       457.94593      14484.486      1.4870391      0.85780978   
   2189100  -10161.286     -10288.318      127.03219      44652.493      455.19398      14467.968      1.4887368      0.85780978   
   2189200  -10160.29      -10288.181      127.89167      110736.79      458.27375      14448.587      1.4907337      0.85780978   
   2189300  -10156.465     -10282.819      126.35435      43339.515      452.76507      14463.297      1.4892176      0.85780978   
   2189400  -10160.317     -10288.034      127.71711      37234.796      457.64825      14479.043      1.4875981      0.85780978   
   2189500  -10161.232     -10286.864      125.63137      38116.005      450.17441      14482.654      1.4872272      0.85780978   
   2189600  -10161.943     -10289.409      127.4665       41762.367      456.75022      14475.883      1.4879229      0.85780978   
   2189700  -10160.234     -10286.354      126.12056      45752.327      451.92733      14464.642      1.4890791      0.85780978   
   2189800  -10160.625     -10290.04       129.41558      64210.144      463.73437      14450.896      1.4904955      0.85780978   
   2189900  -10161.079     -10287.615      126.53623      43321.858      453.41682      14452.519      1.4903282      0.85780978   
   2190000  -10158.532     -10290.069      131.53628      42117.577      471.33346      14456.47       1.4899209      0.89467712   
   2190100  -10159.89      -10289.938      130.04829      45191.14       466.00154      14457.972      1.4897661      0.89467712   
   2190200  -10159.697     -10289.958      130.26086      45175.971      466.76327      14458.09       1.489754       0.89467712   
   2190300  -10159.301     -10288.219      128.91808      44461.586      461.95167      14456.489      1.4899189      0.89467712   
   2190400  -10162.003     -10287.287      125.28421      48018.679      448.93045      14453.263      1.4902514      0.89467712   
   2190500  -10160.469     -10289.049      128.5791       45253.806      460.73701      14452.18       1.4903631      0.89467712   
   2190600  -10161.518     -10287.674      126.15653      43266.712      452.05623      14455.178      1.4900541      0.89467712   
   2190700  -10162.861     -10290.566      127.70472      45875.572      457.60386      14455.382      1.490033       0.89467712   
   2190800  -10162.955     -10288.685      125.73045      72538.343      450.52947      14451.151      1.4904693      0.89467712   
   2190900  -10160.507     -10287.776      127.26881      46893.904      456.04186      14462.308      1.4893194      0.89467712   
   2191000  -10156.201     -10287.763      131.56178      46292.584      471.42485      14473.458      1.4881721      0.79686932   
   2191100  -10156.979     -10285.87       128.89099      42684.783      461.85462      14480.888      1.4874086      0.79686932   
   2191200  -10158.262     -10287.162      128.90073      48301.448      461.88949      14480.647      1.4874333      0.79686932   
   2191300  -10162.276     -10287.518      125.24162      44981.976      448.77783      14479.357      1.4875658      0.79686932   
   2191400  -10160.565     -10288.949      128.38442      49236.636      460.03943      14475.048      1.4880086      0.79686932   
   2191500  -10163.529     -10290.741      127.21293      44711.159      455.84161      14471.116      1.488413       0.79686932   
   2191600  -10161.874     -10290.593      128.71945      45071.758      461.23992      14463.264      1.489221       0.79686932   
   2191700  -10160.586     -10287.455      126.86907      56439.625      454.60946      14453.724      1.490204       0.79686932   
   2191800  -10160.625     -10288.854      128.22963      49359.318      459.48474      14461.364      1.4894167      0.79686932   
   2191900  -10159.939     -10291.203      131.26432      48139.787      470.35895      14473.794      1.4881375      0.79686932   
   2192000  -10163.102     -10289.841      126.73921      45373.511      454.14415      14483.208      1.4871703      0.75868341   
   2192100  -10165.671     -10292.485      126.81422      42697.612      454.41292      14490.431      1.4864289      0.75868341   
   2192200  -10164.936     -10290.004      125.0674       40206.275      448.15354      14493.829      1.4860805      0.75868341   
   2192300  -10163.996     -10289.128      125.13273      50004.764      448.38763      14488.466      1.4866305      0.75868341   
   2192400  -10163.216     -10288.344      125.12752      42598.404      448.36897      14482.224      1.4872714      0.75868341   
   2192500  -10162.765     -10289.647      126.88189      43273.426      454.65539      14470.424      1.4884841      0.75868341   
   2192600  -10166.792     -10291.928      125.13636      42035.836      448.40067      14454.123      1.4901628      0.75868341   
   2192700  -10165.875     -10292.701      126.82602      45179.923      454.45519      14459.973      1.4895599      0.75868341   
   2192800  -10165.919     -10293.191      127.27219      49812.842      456.05395      14485.133      1.4869726      0.75868341   
   2192900  -10163.99      -10291.616      127.62591      52937.194      457.32145      14503.891      1.4850495      0.75868341   
   2193000  -10162.967     -10289.888      126.92061      34781.483      454.79416      14516.946      1.483714       0.76834208   
   2193100  -10164.76      -10291.264      126.50364      34089.09       453.30001      14511.899      1.4842301      0.76834208   
   2193200  -10158.811     -10290.192      131.38162      42777.2        470.77926      14496.535      1.4858031      0.76834208   
   2193300  -10158.703     -10284.274      125.57138      39901.904      449.95947      14479.568      1.4875441      0.76834208   
   2193400  -10161.027     -10289.626      128.59912      47971.504      460.80873      14460.513      1.4895043      0.76834208   
   2193500  -10162.195     -10292.206      130.01106      83204.767      465.86813      14444.583      1.491147       0.76834208   
   2193600  -10162.01      -10287.959      125.94853      48263.725      451.31091      14470.557      1.4884704      0.76834208   
   2193700  -10160.284     -10288.862      128.57741      49306.396      460.73096      14491.355      1.4863342      0.76834208   
   2193800  -10158.288     -10287.392      129.10424      51105.317      462.61876      14505.97       1.4848367      0.76834208   
   2193900  -10155.292     -10286.284      130.9919       38055.903      469.3828       14511.655      1.484255       0.76834208   
   2194000  -10153.878     -10283.249      129.37026      46250.896      463.57198      14507.153      1.4847156      0.77634383   
   2194100  -10154.201     -10282.572      128.37048      44278.506      459.98945      14504.192      1.4850187      0.77634383   
   2194200  -10159.072     -10285.71       126.63788      43418.122      453.78105      14496.895      1.4857662      0.77634383   
   2194300  -10161.365     -10288.025      126.66029      39899.532      453.86135      14485.581      1.4869266      0.77634383   
   2194400  -10163.976     -10289.767      125.79027      45075.156      450.74381      14472.219      1.4882995      0.77634383   
   2194500  -10159.656     -10288.888      129.23152      45103.937      463.07481      14456.635      1.4899039      0.77634383   
   2194600  -10157.672     -10288.574      130.90196      45255.522      469.0605       14452.891      1.4902898      0.77634383   
   2194700  -10160.617     -10290.28       129.66268      44561.08       464.61981      14467.306      1.488805       0.77634383   
   2194800  -10158.092     -10284.761      126.66829      46480.772      453.89         14477.099      1.4877978      0.77634383   
   2194900  -10162.034     -10287.268      125.23423      49378.261      448.75136      14485.011      1.4869852      0.77634383   
   2195000  -10164.144     -10288.637      124.4927       46088.007      446.09421      14491.321      1.4863377      0.78492479   
   2195100  -10165.474     -10289.484      124.01009      46768.401      444.36491      14491.178      1.4863524      0.78492479   
   2195200  -10168.013     -10292.991      124.97828      48300.005      447.83421      14485.714      1.486913       0.78492479   
   2195300  -10168.299     -10291.211      122.91144      44370.584      440.42811      14476.123      1.4878982      0.78492479   
   2195400  -10164.632     -10290.892      126.25988      48312.364      452.42655      14458.923      1.4896681      0.78492479   
   2195500  -10162.696     -10290.392      127.69627      48703.427      457.57357      14448.749      1.4907171      0.78492479   
   2195600  -10160.78      -10289.1        128.32001      46198.252      459.80861      14460.713      1.4894837      0.78492479   
   2195700  -10162.107     -10287.443      125.33602      44301.847      449.11611      14468.081      1.4887252      0.78492479   
   2195800  -10160.261     -10288.495      128.23318      43072.053      459.49746      14469.828      1.4885454      0.78492479   
   2195900  -10158.535     -10290.542      132.00686      42379.751      473.01967      14467.091      1.4888271      0.78492479   
   2196000  -10162.424     -10287.132      124.70824      45071.681      446.86657      14459.406      1.4896184      0.90482464   
   2196100  -10162.274     -10292.206      129.93257      49292.316      465.5869       14451.464      1.490437       0.90482464   
   2196200  -10165.118     -10288.177      123.05932      45635.686      440.95799      14453.936      1.490182       0.90482464   
   2196300  -10161.92      -10290.61       128.68938      41751.056      461.13217      14454.717      1.4901015      0.90482464   
   2196400  -10162.17      -10287.019      124.84826      45842.836      447.36831      14450.546      1.4905317      0.90482464   
   2196500  -10161.249     -10287.586      126.33651      43354.071      452.70114      14453.695      1.4902069      0.90482464   
   2196600  -10163.379     -10291.115      127.73589      40591.967      457.71552      14459.05       1.489655       0.90482464   
   2196700  -10165.108     -10289.283      124.17544      47769.103      444.9574       14457.583      1.4898062      0.90482464   
   2196800  -10163.625     -10289.302      125.67727      48682.163      450.33888      14449.849      1.4906035      0.90482464   
   2196900  -10165.506     -10292.612      127.10529      42170.014      455.45591      14451.783      1.490404       0.90482464   
   2197000  -10167.16      -10292.206      125.04575      46902.618      448.07598      14467.908      1.488743       0.79146541   
   2197100  -10167.105     -10292.93       125.82499      42783.266      450.86823      14478.432      1.4876609      0.79146541   
   2197200  -10167.972     -10293.56       125.58819      44642.384      450.01968      14479.615      1.4875393      0.79146541   
   2197300  -10164.239     -10291.594      127.35497      47773.766      456.35058      14472.324      1.4882887      0.79146541   
   2197400  -10158.36      -10287.606      129.24682      42092.662      463.12965      14460.531      1.4895025      0.79146541   
   2197500  -10159.624     -10288.054      128.4301       58143.882      460.20311      14446.855      1.4909125      0.79146541   
   2197600  -10161.369     -10289.641      128.27259      50619.23       459.6387       14454.992      1.4900733      0.79146541   
   2197700  -10165.454     -10291.905      126.45116      45825.927      453.11197      14464.858      1.4890569      0.79146541   
   2197800  -10163.729     -10290.356      126.62732      46197.581      453.74322      14469.642      1.4885646      0.79146541   
   2197900  -10160.186     -10289.03       128.84358      45521.932      461.68471      14467.443      1.4887908      0.79146541   
   2198000  -10162.119     -10288.448      126.3291       46486.9        452.67459      14457.338      1.4898315      0.85563925   
   2198100  -10162.574     -10287.833      125.25986      77252.302      448.8432       14447.972      1.4907972      0.85563925   
   2198200  -10162.299     -10290.959      128.66065      47521.638      461.02925      14462.42       1.4893079      0.85563925   
   2198300  -10155.788     -10284.432      128.64455      47860.273      460.97154      14474.468      1.4880682      0.85563925   
   2198400  -10155.985     -10286.63       130.6443       37758.002      468.13722      14484.42       1.4870459      0.85563925   
   2198500  -10160.823     -10288.946      128.12252      50406.03       459.10095      14488.373      1.4866401      0.85563925   
   2198600  -10155.684     -10284.923      129.23889      43430.621      463.10122      14491.95       1.4862732      0.85563925   
   2198700  -10158.627     -10286.688      128.06107      48248.443      458.88075      14490.889      1.486382       0.85563925   
   2198800  -10162.797     -10291.253      128.45631      43498.114      460.297        14494.111      1.4860516      0.85563925   
   2198900  -10162.238     -10292.213      129.97518      40459.964      465.73959      14493.198      1.4861452      0.85563925   
   2199000  -10159.717     -10285.109      125.39204      52089.316      449.31681      14483.682      1.4871216      0.78801175   
   2199100  -10159.979     -10288.108      128.1295       44678.132      459.12595      14469.016      1.4886289      0.78801175   
   2199200  -10158.368     -10285.006      126.63784      50886.746      453.78089      14448.478      1.490745       0.78801175   
   2199300  -10162.338     -10288.917      126.57875      48221.569      453.56915      14459.476      1.4896111      0.78801175   
   2199400  -10160.41      -10286.97       126.55968      46565.213      453.50084      14487.257      1.4867547      0.78801175   
   2199500  -10160.33      -10288.463      128.13375      46107.258      459.14119      14511.77       1.4842433      0.78801175   
   2199600  -10161.066     -10288.587      127.52041      39163.519      456.94341      14527.519      1.4826342      0.78801175   
   2199700  -10159.011     -10287.705      128.69356      35243.878      461.14717      14526.608      1.4827272      0.78801175   
   2199800  -10158.475     -10285.107      126.63198      44298.804      453.75992      14507.885      1.4846407      0.78801175   
   2199900  -10158.3       -10288.168      129.86757      37914.155      465.35398      14478.713      1.4876319      0.78801175   
   2200000  -10158.375     -10285.788      127.4131       166266.11      456.5589       14445.93       1.491008       0.88668664   
   2200100  -10158.512     -10285.095      126.58291      47912.622      453.58407      14472.518      1.4882688      0.88668664   
   2200200  -10156.409     -10288.966      132.55772      49107.584      474.99358      14500.564      1.4853903      0.88668664   
   2200300  -10157.966     -10286.798      128.83196      35647.584      461.64307      14523.053      1.4830901      0.88668664   
   2200400  -10158.748     -10286.996      128.24794      31333.814      459.55035      14531.238      1.4822548      0.88668664   
   2200500  -10157.879     -10288.984      131.10478      53619.332      469.78729      14519.879      1.4834144      0.88668664   
   2200600  -10156.64      -10283.452      126.81216      47947.561      454.40553      14497.093      1.4857459      0.88668664   
   2200700  -10156.607     -10284.845      128.23723      47939.502      459.51197      14470.03       1.4885246      0.88668664   
   2200800  -10158.061     -10285.486      127.425        124839.64      456.60152      14444.774      1.4911273      0.88668664   
   2200900  -10157.888     -10290.859      132.97107      47338.7        476.47474      14476.297      1.4878803      0.88668664   
   2201000  -10163.588     -10290.817      127.22913      42325.982      455.89967      14508.177      1.4846108      0.73594532   
   2201075  -10162.948     -10292.849      129.90042      19949.827      465.47171      14521.75       1.4832232      0.73594532   
Loop time of 15992.1 on 1 procs for 2000000 steps with 2160 atoms

Performance: 5.403 ns/day, 4.442 hours/ns, 125.062 timesteps/s, 270.134 katom-step/s
7922.8% CPU use with 1 MPI tasks x 1 OpenMP threads

MPI task timing breakdown:
Section |  min time  |  avg time  |  max time  |%varavg| %total
---------------------------------------------------------------
Pair    | 9360.3     | 9360.3     | 9360.3     |   0.0 | 58.53
Neigh   | 91.216     | 91.216     | 91.216     |   0.0 |  0.57
Comm    | 103.79     | 103.79     | 103.79     |   0.0 |  0.65
Output  | 8.5303     | 8.5303     | 8.5303     |   0.0 |  0.05
Modify  | 6363.7     | 6363.7     | 6363.7     |   0.0 | 39.79
Other   |            | 64.51      |            |       |  0.40

Nlocal:           2160 ave        2160 max        2160 min
Histogram: 1 0 0 0 0 0 0 0 0 0
Nghost:           5775 ave        5775 max        5775 min
Histogram: 1 0 0 0 0 0 0 0 0 0
Neighs:              0 ave           0 max           0 min
Histogram: 1 0 0 0 0 0 0 0 0 0
FullNghs:       372186 ave      372186 max      372186 min
Histogram: 1 0 0 0 0 0 0 0 0 0

Total # of neighbors = 372186
Ave neighs/atom = 172.30833
Neighbor list builds = 200000
Dangerous builds = 200000

unfix		1
unfix		3
unfix		4
Total wall time: 4:52:19
