LAMMPS (7 Feb 2024 - Update 1)
KOKKOS mode with Kokkos version 4.2.0 is enabled (src/KOKKOS/kokkos.cpp:72)
  will use up to 2 GPU(s) per node
  using 1 OpenMP thread(s) per MPI task
package kokkos
package kokkos newton on neigh half

units		metal						## E in [eV], t in [ps], P in [10000 Pa], l in [A]
atom_style	atomic						## mass x y z vx vy vz

neighbor	0.5 bin						## neighbor list, skin = 0.5 Angstrom
neigh_modify	every 2 delay 10 check yes			## update of neighbor list

############################## main variables
variable        seed equal 19408

variable	temperature equal 300
variable	tempDamp equal 0.1

variable        pressure equal 0
variable        pressureDamp equal 1.0 				# This is 1 ps

##############################

read_data water.dat
Reading data file ...
  orthogonal box = (0 0 0) to (18.207572 23.629178 22.213196)
  1 by 2 by 1 MPI processor grid
  reading atoms ...
  864 atoms
  read_data CPU = 0.011 seconds

mass		1 1.008    # H
mass		2 15.9994  # O


pair_style	pace/extrapolation
ACE/AL version: 2023.11.25
pair_coeff	* * /home/cicn/cicn607503/pd/pot_dir/interim_potential_ladder_step_5.yaml /home/cicn/cicn607503/pd/pot_dir/interim_potential_ladder_step_5.asi H O
Loading /home/cicn/cicn607503/pd/pot_dir/interim_potential_ladder_step_5.yaml
Total number of basis functions
	H: 24 (r=1) 863 (r>1)
	O: 24 (r=1) 863 (r>1)
Mapping LAMMPS atom type #1(H) -> ACE species type #0
Mapping LAMMPS atom type #2(O) -> ACE species type #1
Loading ASI /home/cicn/cicn607503/pd/pot_dir/interim_potential_ladder_step_5.asi
LINEAR ASI is loaded

fix pace_gamma all pair 1000 pace/extrapolation gamma 1
compute max_pace_gamma all reduce max f_pace_gamma
variable dump_skip equal "c_max_pace_gamma < 10"

dump pace_dump all custom 1000 extrapolative_structures.dump id type x y z f_pace_gamma
dump_modify pace_dump skip v_dump_skip
dump_modify pace_dump element H O

variable max_pace_gamma equal c_max_pace_gamma

timestep	0.0005						## timestep = 0.0005*ps = 0.5 fs

thermo		100
thermo_style custom step etotal pe ke press temp vol density c_max_pace_gamma


min_style cg/kk
minimize 0.0 5.0e-4 10000 100000
Switching to 'neigh_modify every 1 delay 0 check yes' setting during minimization
Neighbor list info ...
  update: every = 1 steps, delay = 0 steps, check = yes
  max neighbors/atom: 2000, page size: 100000
  master list distance cutoff = 6.5
  ghost atom cutoff = 6.5
  binsize = 6.5, bins = 3 4 4
  1 neighbor lists, perpetual/occasional/extra = 1 0 0
  (1) pair pace/extrapolation/kk, perpetual
      attributes: full, newton on, kokkos_device
      pair build: full/bin/kk/device
      stencil: full/bin/3d
      bin: kk/device
WARNING: Fix with atom-based arrays not compatible with sending data in Kokkos communication, switching to classic exchange/border communication (src/KOKKOS/comm_kokkos.cpp:666)
WARNING: Fix with atom-based arrays not compatible with Kokkos sorting on device, switching to classic host sorting (src/KOKKOS/atom_kokkos.cpp:218)
Per MPI rank memory allocation (min/avg/max) = 449.3 | 453 | 456.7 Mbytes
   Step         TotEng         PotEng         KinEng         Press           Temp          Volume        Density     c_max_pace_gamma
         0  -4180.7249     -4180.7249      0              931.57303      0              9556.7825      0.90151666     0.51848273   
       100  -4182.8568     -4182.8568      0             -5818.1351      0              9556.7825      0.90151666     0.51848273   
       191  -4182.8571     -4182.8571      0             -5809.5218      0              9556.7825      0.90151666     0.51848273   
Loop time of 0.669707 on 2 procs for 191 steps with 864 atoms

99.6% CPU use with 2 MPI tasks x 1 OpenMP threads

Minimization stats:
  Stopping criterion = force tolerance
  Energy initial, next-to-last, final = 
      -4180.7249004513  -4182.85708343912  -4182.85708344366
  Force two-norm initial, final = 6.5563152 0.00040677855
  Force max component initial, final = 0.28078875 3.622429e-05
  Final line search alpha, max atom move = 1 3.622429e-05
  Iterations, force evaluations = 191 382

MPI task timing breakdown:
Section |  min time  |  avg time  |  max time  |%varavg| %total
---------------------------------------------------------------
Pair    | 0.45968    | 0.46155    | 0.46341    |   0.3 | 68.92
Neigh   | 0          | 0          | 0          |   0.0 |  0.00
Comm    | 0.067662   | 0.069913   | 0.072164   |   0.9 | 10.44
Output  | 0.00016125 | 0.00016181 | 0.00016237 |   0.0 |  0.02
Modify  | 0.088613   | 0.089654   | 0.090695   |   0.3 | 13.39
Other   |            | 0.04843    |            |       |  7.23

Nlocal:            432 ave         436 max         428 min
Histogram: 1 0 0 0 0 0 0 0 0 1
Nghost:           2169 ave        2174 max        2164 min
Histogram: 1 0 0 0 0 0 0 0 0 1
Neighs:              0 ave           0 max           0 min
Histogram: 2 0 0 0 0 0 0 0 0 0
FullNghs:        45636 ave       46083 max       45189 min
Histogram: 1 0 0 0 0 0 0 0 0 1

Total # of neighbors = 91272
Ave neighs/atom = 105.63889
Neighbor list builds = 0
Dangerous builds = 0

################## equilibration of main calculation
# Equilibrate to specified number of ice

fix             3 all nph aniso ${pressure} ${pressure} ${pressureDamp}
fix             3 all nph aniso 0 ${pressure} ${pressureDamp}
fix             3 all nph aniso 0 0 ${pressureDamp}
fix             3 all nph aniso 0 0 1
fix             4 all temp/csvr ${temperature} ${temperature} ${tempDamp} ${seed}
fix             4 all temp/csvr 300 ${temperature} ${tempDamp} ${seed}
fix             4 all temp/csvr 300 300 ${tempDamp} ${seed}
fix             4 all temp/csvr 300 300 0.1 ${seed}
fix             4 all temp/csvr 300 300 0.1 19408
velocity 	all create ${temperature} ${seed} dist gaussian
velocity 	all create 300 ${seed} dist gaussian
velocity 	all create 300 19408 dist gaussian

run 200000
WARNING: Fix with atom-based arrays not compatible with sending data in Kokkos communication, switching to classic exchange/border communication (src/KOKKOS/comm_kokkos.cpp:666)
WARNING: Fix with atom-based arrays not compatible with Kokkos sorting on device, switching to classic host sorting (src/KOKKOS/atom_kokkos.cpp:218)
Per MPI rank memory allocation (min/avg/max) = 453.3 | 454.9 | 456.4 Mbytes
   Step         TotEng         PotEng         KinEng         Press           Temp          Volume        Density     c_max_pace_gamma
       191  -4149.3916     -4182.8571      33.465452     -2069.2421      300            9556.7825      0.90151666     0.51848273   
       200  -4149.0932     -4172.9958      23.902539     -9603.519       214.27357      9556.5668      0.901537       0.51848273   
       300  -4141.8454     -4163.1583      21.312939     -4548.8093      191.05918      9532.1372      0.90384752     0.51848273   
       400  -4135.4175     -4156.493       21.075441     -3806.0834      188.93013      9479.2058      0.90889456     0.51848273   
       500  -4130.0855     -4154.9553      24.869815      1546.7955      222.94469      9402.1548      0.91634298     0.51848273   
       600  -4125.8948     -4153.4809      27.586081     -1027.2188      247.29456      9322.5208      0.92417048     0.51848273   
       700  -4123.1409     -4150.7261      27.585151      3208.8893      247.28623      9268.2634      0.92958068     0.51848273   
       800  -4121.1011     -4150.9335      29.832421      2581.1191      267.43181      9259.5436      0.93045607     0.51848273   
       900  -4119.4724     -4151.2731      31.800685      1387.401       285.07625      9304.2892      0.92598138     0.51848273   
      1000  -4118.442      -4150.5484      32.106321      2520.014       287.81611      9395.2448      0.91701693     0.82256072   
      1100  -4117.3977     -4147.8997      30.501976     -749.75247      273.43401      9509.5068      0.90599847     0.82256072   
      1200  -4117.3185     -4147.6026      30.284093     -3778.5466      271.48081      9619.8215      0.89560899     0.82256072   
      1300  -4116.1067     -4146.4921      30.385334     -2789.9795      272.38839      9700.9622      0.88811794     0.82256072   
      1400  -4116.0323     -4148.0911      32.058879     -2513.7397      287.39083      9744.7454      0.88412763     0.82256072   
      1500  -4116.0854     -4147.6495      31.564143     -2069.838       282.95578      9749.8503      0.8836647      0.82256072   
      1600  -4114.458      -4147.3443      32.8863       -3497.7224      294.80822      9721.7279      0.88622091     0.82256072   
      1700  -4114.3949     -4147.3489      32.954023      375.05457      295.41531      9673.3894      0.89064941     0.82256072   
      1800  -4115.3078     -4148.4772      33.169458      635.71909      297.34658      9618.2424      0.89575603     0.82256072   
      1900  -4112.4245     -4144.7428      32.318274     -102.98965      289.71616      9562.8605      0.90094367     0.82256072   
      2000  -4112.4363     -4144.4589      32.022577     -1354.9486      287.06539      9515.3711      0.90544011     0.69618452   
      2100  -4111.9807     -4145.1321      33.151393     -390.56819      297.18463      9476.9835      0.9091077      0.69618452   
      2200  -4111.4714     -4144.7745      33.303097      2010.8155      298.54458      9456.2535      0.91110064     0.69618452   
      2300  -4110.5033     -4143.4213      32.917955      2273.2329      295.09198      9458.3587      0.91089784     0.69618452   
      2400  -4111.7998     -4146.4021      34.602334      1488.9176      310.19155      9489.0744      0.90794931     0.69618452   
      2500  -4112.7584     -4145.2582      32.499799     -2692.683       291.34343      9536.0552      0.90347617     0.69618452   
      2600  -4113.7315     -4146.3316      32.600085      526.45045      292.24245      9588.5114      0.89853349     0.69618452   
      2700  -4114.1792     -4147.0465      32.867259      11.702584      294.63752      9640.0286      0.89373164     0.69618452   
      2800  -4114.6632     -4146.7436      32.080429     -2692.1569      287.58401      9681.5989      0.88989419     0.69618452   
      2900  -4114.2563     -4147.0897      32.833356     -786.84698      294.3336       9702.9075      0.88793989     0.69618452   
      3000  -4114.1833     -4146.5557      32.372436     -1232.7161      290.2017       9703.1097      0.88792139     0.69790169   
      3100  -4113.8301     -4146.866       33.035901     -962.2397       296.1493       9682.253       0.88983407     0.69790169   
      3200  -4114.0312     -4146.6358      32.604573     -81.62275       292.28268      9643.3416      0.8934246      0.69790169   
      3300  -4113.0334     -4146.7513      33.717897     -2343.8527      302.26304      9589.1047      0.89847789     0.69790169   
      3400  -4112.6892     -4145.6235      32.934327      427.66175      295.23875      9530.3218      0.90401969     0.69790169   
      3500  -4113.2132     -4146.5037      33.290518      1521.2949      298.43181      9479.3248      0.90888315     0.69790169   
      3600  -4113.796      -4147.4927      33.696663      611.16298      302.07269      9443.4966      0.91233141     0.69790169   
      3700  -4113.2552     -4146.5251      33.269938      3304.2922      298.24733      9428.3695      0.91379518     0.69790169   
      3800  -4112.1366     -4146.1592      34.022567      377.1043       304.99424      9444.0912      0.91227397     0.69790169   
      3900  -4112.3547     -4145.9509      33.596213     -2087.9881      301.17221      9485.6135      0.90828059     0.69790169   
      4000  -4112.3287     -4145.4517      33.122953      74.387461      296.92968      9541.3335      0.90297636     0.83422541   
      4100  -4112.1827     -4145.2142      33.031458      1338.6655      296.10948      9597.5787      0.8976846      0.83422541   
      4200  -4111.253      -4143.8338      32.580829     -1426.2527      292.06983      9644.9464      0.89327595     0.83422541   
      4300  -4111.6419     -4145.3551      33.713252     -2525.9892      302.2214       9677.3864      0.89028155     0.83422541   
      4400  -4110.8197     -4145.3439      34.524163     -104.73107      309.49079      9692.3755      0.88890475     0.83422541   
      4500  -4112.4817     -4145.5005      33.018778     -459.60142      295.99581      9689.0326      0.88921143     0.83422541   
      4600  -4112.6271     -4145.4062      32.779086     -1426.3123      293.8471       9664.5216      0.89146664     0.83422541   
      4700  -4113.3536     -4146.7489      33.395255     -2329.2332      299.37073      9617.706       0.89580599     0.83422541   
      4800  -4112.3901     -4146.3086      33.918546      387.56697      304.06175      9555.6194      0.90162638     0.83422541   
      4900  -4112.4896     -4145.104       32.614384     -399.70469      292.37063      9493.4632      0.90752957     0.83422541   
      5000  -4112.3278     -4146.9344      34.606582      1162.4012      310.22963      9447.9362      0.91190271     0.75216958   
      5100  -4112.6561     -4146.437       33.780887      2226.6549      302.82771      9427.2349      0.91390516     0.75216958   
      5200  -4112.5345     -4146.9424      34.4079       -490.22001      308.44855      9437.2722      0.91293315     0.75216958   
      5300  -4112.704      -4146.3887      33.684747     -224.41932      301.96587      9474.9944      0.90929854     0.75216958   
      5400  -4113.3945     -4145.3077      31.91322       1629.5584      286.08507      9531.9949      0.90386101     0.75216958   
      5500  -4112.9086     -4146.8486      33.939935     -238.39798      304.25349      9595.4796      0.89788098     0.75216958   
      5600  -4111.9335     -4145.4214      33.487869     -2579.8794      300.20096      9651.8314      0.89263874     0.75216958   
      5700  -4112.1048     -4144.9242      32.819451     -2641.8921      294.20895      9694.7602      0.8886861      0.75216958   
      5800  -4111.5279     -4144.3873      32.859382     -1158.4461      294.56691      9716.5065      0.88669715     0.75216958   
      5900  -4112.9004     -4146.349       33.448607     -1173.2639      299.849        9719.4163      0.88643168     0.75216958   
      6000  -4113.2473     -4145.7889      32.541601      437.65314      291.71817      9696.6299      0.88851474     0.74369024   
      6100  -4112.5855     -4144.9304      32.344885     -913.14242      289.95472      9651.2085      0.89269635     0.74369024   
      6200  -4111.729      -4146.9717      35.24266       432.16827      315.93173      9587.8419      0.89859623     0.74369024   
      6300  -4111.0489     -4145.0324      33.9835        63.909289      304.64403      9518.5412      0.90513855     0.74369024   
      6400  -4110.3567     -4145.106       34.749358      869.5677       311.50954      9459.6203      0.91077637     0.74369024   
      6500  -4111.2252     -4146.3246      35.099387      3544.6187      314.64736      9425.0965      0.9141125      0.74369024   
      6600  -4111.8012     -4146.2454      34.444272      2220.6322      308.77461      9418.682       0.91473505     0.74369024   
      6700  -4111.6143     -4145.4423      33.828037      1597.8364      303.25039      9444.3112      0.91225272     0.74369024   
      6800  -4110.9913     -4143.6321      32.64073       1196.9061      292.60681      9491.1525      0.90775052     0.74369024   
      6900  -4110.898      -4145.8806      34.982567      1563.2176      313.60013      9554.0242      0.90177692     0.74369024   
      7000  -4113.16       -4146.7659      33.605929      1264.5125      301.2593       9623.4419      0.89527205     0.70801729   
      7100  -4113.0572     -4145.7577      32.700498     -3318.5859      293.1426       9686.5996      0.88943478     0.70801729   
      7200  -4112.8145     -4146.4811      33.666655     -1227.1533      301.80368      9733.7295      0.88512822     0.70801729   
      7300  -4112.6619     -4144.5423      31.880319      449.04316      285.79013      9756.6973      0.88304457     0.70801729   
      7400  -4112.1981     -4145.1649      32.966769     -3114.432       295.52958      9752.0017      0.88346976     0.70801729   
      7500  -4111.4729     -4144.9107      33.437783     -2285.6324      299.75197      9715.0661      0.88682861     0.70801729   
      7600  -4111.6695     -4145.0073      33.337833     -964.43362      298.85596      9655.3799      0.89231068     0.70801729   
      7700  -4113.4886     -4146.8552      33.366598     -619.516        299.11383      9587.5796      0.89862082     0.70801729   
      7800  -4113.7804     -4146.8029      33.022502     -265.7491       296.02919      9524.1357      0.90460687     0.70801729   
      7900  -4113.3055     -4146.7847      33.479235     -239.26128      300.12356      9475.7166      0.90922924     0.70801729   
      8000  -4112.7447     -4145.9859      33.241213      3708.9247      297.98982      9448.0241      0.91189422     0.70865252   
      8100  -4112.5831     -4146.0638      33.480673      1648.553       300.13646      9446.2825      0.91206234     0.70865252   
      8200  -4114.2706     -4146.7563      32.485687      1070.632       291.21693      9472.5753      0.90953076     0.70865252   
      8300  -4113.1634     -4145.2516      32.088236      1509.2673      287.654        9525.3278      0.90449365     0.70865252   
      8400  -4112.2201     -4145.3703      33.150155     -1966.918       297.17353      9598.1024      0.89763562     0.70865252   
      8500  -4113.4938     -4145.2405      31.746635     -1650.5158      284.59172      9677.8253      0.89024118     0.70865252   
      8600  -4112.8712     -4145.6208      32.749675     -2418.7442      293.58345      9747.8754      0.88384374     0.70865252   
      8700  -4112.2434     -4146.2516      34.008157     -1287.2771      304.86507      9796.9725      0.87941439     0.70865252   
      8800  -4113.0727     -4146.2683      33.195617     -2262.6381      297.58108      9817.7958      0.87754917     0.70865252   
      8900  -4111.8829     -4145.8544      33.971502     -3627.5564      304.53648      9807.1116      0.87850521     0.70865252   
      9000  -4111.9288     -4144.9487      33.019904     -1001.4764      296.00591      9762.9308      0.88248076     0.67834455   
      9100  -4110.4542     -4144.5615      34.10734       403.55796      305.75419      9692.2481      0.88891643     0.67834455   
      9200  -4110.9596     -4144.9098      33.950243     -1890.8799      304.3459       9612.6948      0.89627298     0.67834455   
      9300  -4111.7967     -4145.9848      34.188106     -488.77258      306.47822      9536.7363      0.90341164     0.67834455   
      9400  -4111.83       -4145.338       33.507967     -169.28525      300.38113      9470.7757      0.90970358     0.67834455   
      9500  -4111.61       -4144.5005      32.890418      803.84777      294.84513      9426.8957      0.91393804     0.67834455   
      9600  -4113.1031     -4146.2129      33.109852      672.27115      296.81224      9419.0925      0.91469518     0.67834455   
      9700  -4113.8938     -4148.7284      34.834547      2800.6667      312.27321      9446.3057      0.91206011     0.67834455   
      9800  -4114.3288     -4147.3602      33.031472     -19.71553       296.10961      9502.98        0.90662072     0.67834455   
      9900  -4113.98       -4147.4851      33.505105      242.58878      300.35547      9576.9533      0.8996179      0.67834455   
     10000  -4115.2146     -4147.3045      32.089922     -1977.4622      287.66911      9654.8464      0.89235999     0.71819481   
     10100  -4114.2695     -4146.0449      31.77535      -2679.2117      284.84914      9717.0266      0.88664969     0.71819481   
     10200  -4112.3093     -4145.2165      32.907217     -933.72997      294.99572      9754.496       0.88324385     0.71819481   
     10300  -4111.4817     -4144.9164      33.434736     -1043.6807      299.72465      9767.3468      0.88208178     0.71819481   
     10400  -4111.7911     -4145.0446      33.2535       -1148.0088      298.09997      9755.4079      0.88316128     0.71819481   
     10500  -4111.7443     -4145.6003      33.855988      1270.3069      303.50095      9719.5942      0.88641546     0.71819481   
     10600  -4111.9708     -4145.9922      34.021394      225.17636      304.98373      9669.8346      0.89097683     0.71819481   
     10700  -4112.4473     -4145.6963      33.249056      820.9235       298.06013      9615.6839      0.89599437     0.71819481   
     10800  -4112.2897     -4145.1489      32.859128      3260.3618      294.56463      9567.7474      0.90048349     0.71819481   
     10900  -4112.0013     -4146.2879      34.286584      1549.9339      307.36101      9529.7536      0.90407359     0.71819481   
     11000  -4111.8069     -4145.2005      33.393599      1462.287       299.35588      9507.0423      0.90623332     0.7575191    
     11100  -4111.291      -4144.7401      33.449094      1423.486       299.85336      9504.2389      0.90650063     0.7575191    
     11200  -4111.4835     -4145.7662      34.282691      4506.8877      307.32612      9526.8363      0.90435044     0.7575191    
     11300  -4112.319      -4146.2277      33.90866      -2829.1418      303.97313      9574.1351      0.89988271     0.7575191    
     11400  -4112.3668     -4145.9682      33.601339     -3569.3774      301.21816      9634.4162      0.89425227     0.7575191    
     11500  -4112.2422     -4145.9406      33.698373     -1774.9952      302.08801      9691.8565      0.88895235     0.7575191    
     11600  -4112.5301     -4145.6447      33.11455      -2543.011       296.85435      9736.0828      0.88491427     0.7575191    
     11700  -4113.1049     -4145.7527      32.647814     -4315.544       292.67031      9758.4448      0.88288644     0.7575191    
     11800  -4111.9945     -4144.8857      32.891216      2719.1976      294.85228      9756.8728      0.88302869     0.7575191    
     11900  -4112.1361     -4146.0628      33.926719     -204.29262      304.13502      9735.5014      0.88496711     0.7575191    
     12000  -4112.783      -4145.5016      32.718636     -2044.7357      293.30519      9698.9028      0.88830652     0.71873073   
     12100  -4112.1692     -4146.1716      34.002348      2053.4415      304.81299      9654.2199      0.89241789     0.71873073   
     12200  -4111.814      -4146.2485      34.434558     -64.882114      308.68752      9611.1954      0.8964128      0.71873073   
     12300  -4112.043      -4146.4158      34.372778     -1435.1155      308.1337       9578.8087      0.89944364     0.71873073   
     12400  -4112.57       -4145.7303      33.160345      1464.1928      297.26488      9558.9858      0.90130886     0.71873073   
     12500  -4112.4642     -4145.4739      33.009726      3429.943       295.91466      9547.3393      0.90240834     0.71873073   
     12600  -4113.118      -4145.9019      32.783935     -165.03737      293.89057      9545.1365      0.90261659     0.71873073   
     12700  -4112.6302     -4145.7368      33.106615     -811.37131      296.78322      9552.8512      0.90188766     0.71873073   
     12800  -4112.6072     -4145.3851      32.777833      354.0169       293.83586      9570.0089      0.9002707      0.71873073   
     12900  -4113.0014     -4147.8407      34.839383      1077.1171      312.31656      9599.6398      0.89749186     0.71873073   
     13000  -4112.404      -4145.3307      32.926647      544.67179      295.1699       9635.2314      0.89417661     0.68617059   
     13100  -4111.9647     -4143.7202      31.755514     -1632.7459      284.67131      9669.5532      0.89100276     0.68617059   
     13200  -4112.4513     -4145.4839      33.032588     -1075.16        296.11961      9692.0457      0.888935       0.68617059   
     13300  -4112.3364     -4145.9188      33.582366     -1359.8378      301.04807      9696.3559      0.88853985     0.68617059   
     13400  -4111.4945     -4145.5915      34.096983     -1298.5271      305.66135      9685.3396      0.88955049     0.68617059   
     13500  -4110.2356     -4144.176       33.940441      215.39888      304.25803      9663.5169      0.89155933     0.68617059   
     13600  -4110.4091     -4144.2905      33.881411      2084.1299      303.72886      9636.536       0.89405556     0.68617059   
     13700  -4113.5891     -4147.2817      33.692544      211.91492      302.03576      9610.1616      0.89650923     0.68617059   
     13800  -4114.2778     -4146.0289      31.751105      1964.5322      284.63179      9579.8943      0.89934172     0.68617059   
     13900  -4112.6915     -4145.0117      32.320193      1747.4417      289.73337      9554.5585      0.9017265      0.68617059   
     14000  -4111.8058     -4146.0705      34.26466      -718.81169      307.16448      9541.2074      0.90298829     0.80069018   
     14100  -4110.949      -4145.8508      34.901822     -394.55171      312.8763       9545.2649      0.90260445     0.80069018   
     14200  -4111.0735     -4145.3663      34.292821     -616.7232       307.41693      9561.1101      0.9011086      0.80069018   
     14300  -4112.7872     -4145.8268      33.039523     -1467.9685      296.18178      9580.3493      0.899299       0.80069018   
     14400  -4112.0191     -4146.2006      34.181485     -719.09317      306.41886      9603.1217      0.89716645     0.80069018   
     14500  -4113.9012     -4146.8681      32.966939      3467.9341      295.5311       9626.5681      0.89498132     0.80069018   
     14600  -4113.8613     -4146.4891      32.627766      678.07182      292.4906       9645.3463      0.89323891     0.80069018   
     14700  -4112.5561     -4145.7047      33.14853      -91.357643      297.15897      9652.484       0.89257839     0.80069018   
     14800  -4112.2401     -4146.5938      34.353709     -442.94766      307.96276      9650.1806      0.89279143     0.80069018   
     14900  -4112.3256     -4146.3315      34.005931      315.73111      304.84511      9641.2874      0.89361495     0.80069018   
     15000  -4112.2579     -4146.1549      33.897058      1671.9544      303.86912      9628.4443      0.89480692     0.68482599   
     15100  -4111.5324     -4145.7353      34.202845      89.252027      306.61034      9602.4478      0.89722941     0.68482599   
     15200  -4110.9901     -4145.3372      34.34706       736.60562      307.90315      9568.8408      0.9003806      0.68482599   
     15300  -4111.2656     -4145.1602      33.894635      1089.9454      303.8474       9541.4801      0.90296248     0.68482599   
     15400  -4111.2727     -4146.1921      34.919447     -810.92697      313.0343       9527.8529      0.90425395     0.68482599   
     15500  -4112.457      -4146.1179      33.660889      261.10305      301.752        9532.8582      0.90377916     0.68482599   
     15600  -4112.3098     -4146.7915      34.481733      449.73391      309.11042      9555.8028      0.90160908     0.68482599   
     15700  -4112.7114     -4146.8247      34.113308     -961.27423      305.80769      9586.5629      0.89871612     0.68482599   
     15800  -4112.6949     -4145.6932      32.998356      789.37826      295.81273      9618.9824      0.89568711     0.68482599   
     15900  -4113.8849     -4146.2714      32.386508      55.321499      290.32785      9652.7484      0.89255394     0.68482599   
     16000  -4113.3335     -4147.1624      33.828906     -2948.0342      303.25818      9679.3235      0.89010338     0.70741572   
     16100  -4113.7222     -4145.9558      32.233636      1268.6047      288.95743      9694.7936      0.88868304     0.70741572   
     16200  -4114.4647     -4147.6282      33.163481      127.38979      297.29299      9701.5231      0.8880666      0.70741572   
     16300  -4113.5699     -4146.1611      32.591123      320.69638      292.16211      9688.1034      0.88929672     0.70741572   
     16400  -4112.7368     -4145.5316      32.794865     -3021.3017      293.98854      9659.8075      0.89190168     0.70741572   
     16500  -4112.3744     -4145.013       32.638563     -2224.3664      292.58739      9625.2112      0.89510749     0.70741572   
     16600  -4111.7679     -4145.9925      34.224609     -333.71168      306.80545      9591.7444      0.89823063     0.70741572   
     16700  -4111.1361     -4145.2436      34.107531      2047.2752      305.7559       9564.9978      0.90074235     0.70741572   
     16800  -4109.8873     -4145.4568      35.569478      2639.2396      318.86148      9550.9943      0.902063       0.70741572   
     16900  -4109.9116     -4144.2538      34.342222      869.43471      307.85978      9553.1263      0.90186169     0.70741572   
     17000  -4110.1874     -4145.0562      34.868733     -726.08765      312.57968      9568.3465      0.90042711     0.70723944   
     17100  -4111.6252     -4146.1109      34.485703     -631.65668      309.14601      9596.9846      0.89774017     0.70723944   
     17200  -4111.9431     -4144.3334      32.390331      2183.2824      290.36211      9631.508       0.89452229     0.70723944   
     17300  -4111.8313     -4144.6659      32.834621     -665.33739      294.34494      9669.2534      0.89103039     0.70723944   
     17400  -4111.4921     -4145.0975      33.605338      855.04107      301.25401      9702.5191      0.88797543     0.70723944   
     17500  -4111.7011     -4144.522       32.820919     -831.85286      294.22211      9722.5356      0.88614729     0.70723944   
     17600  -4111.9886     -4145.8005      33.811863      274.05636      303.1054       9728.8709      0.88557024     0.70723944   
     17700  -4112.6754     -4146.7931      34.117645     -597.79444      305.84657      9723.061       0.88609941     0.70723944   
     17800  -4113.1921     -4145.2413      32.049255      1071.2871      287.30455      9701.5306      0.88806591     0.70723944   
     17900  -4112.5214     -4145.5446      33.023176      422.85982      296.03524      9666.6561      0.8912698      0.70723944   
     18000  -4113.4047     -4145.4592      32.054479     -5.5735229      287.35138      9625.2467      0.89510418     0.76856404   
     18100  -4113.8232     -4146.0931      32.269943     -564.07351      289.2829       9582.3869      0.89910778     0.76856404   
     18200  -4113.3955     -4146.0654      32.669924      1112.5414      292.86852      9540.5926      0.90304649     0.76856404   
     18300  -4113.8883     -4148.5672      34.678929     -411.70724      310.87818      9513.9121      0.90557896     0.76856404   
     18400  -4114.2649     -4147.409       33.144058     -395.818        297.11888      9504.3846      0.90648674     0.76856404   
     18500  -4113.2862     -4147.1557      33.869526     -857.34333      303.62232      9513.1343      0.905653       0.76856404   
     18600  -4113.0393     -4146.7535      33.71412       3553.506       302.22918      9538.6433      0.90323103     0.76856404   
     18700  -4113.2702     -4146.9786      33.708372      290.9747       302.17765      9578.0406      0.89951578     0.76856404   
     18800  -4113.2058     -4146.143       32.937157      1338.465       295.26412      9619.6576      0.89562424     0.76856404   
     18900  -4113.5111     -4143.8476      30.336561     -1944.8167      271.95116      9656.8749      0.89217253     0.76856404   
     19000  -4112.4134     -4145.9776      33.564238     -831.99664      300.88557      9686.1915      0.88947225     0.69700977   
     19100  -4112.9433     -4145.6694      32.726116     -1243.9916      293.37225      9706.4523      0.88761561     0.69700977   
     19200  -4114.2179     -4146.2921      32.074177     -235.15969      287.52796      9715.213       0.8868152      0.69700977   
     19300  -4115.1554     -4146.8037      31.648257     -3156.6196      283.70981      9708.8901      0.88739274     0.69700977   
     19400  -4113.6134     -4145.9667      32.353312      1193.3764      290.03026      9685.3934      0.88954555     0.69700977   
     19500  -4113.6762     -4145.2035      31.527333      526.41527      282.62579      9655.5066      0.89229897     0.69700977   
     19600  -4111.5835     -4144.2941      32.710589     -896.60461      293.23306      9623.4989      0.89526675     0.69700977   
     19700  -4111.9797     -4145.4169      33.437243     -943.0717       299.74712      9593.0567      0.89810776     0.69700977   
     19800  -4112.2854     -4146.1209      33.835464      1500.9422      303.31697      9565.4048      0.90070402     0.69700977   
     19900  -4112.1127     -4146.8769      34.764205     -1209.3583      311.64263      9549.5588      0.9021986      0.69700977   
     20000  -4112.6875     -4146.106       33.418509      410.29527      299.57919      9545.4626      0.90258575     0.83764052   
     20100  -4112.8814     -4146.0487      33.167354     -1991.0447      297.32771      9555.8798      0.90160181     0.83764052   
     20200  -4113.9175     -4145.9872      32.069735      2488.8487      287.48815      9578.5925      0.89946394     0.83764052   
     20300  -4112.7424     -4145.3483      32.605916     -2937.7625      292.29472      9607.3869      0.89676815     0.83764052   
     20400  -4114.0051     -4147.2862      33.281159     -2841.1845      298.34792      9641.6666      0.8935798      0.83764052   
     20500  -4113.6042     -4147.1351      33.530914     -1315.3358      300.58683      9669.8595      0.89097454     0.83764052   
     20600  -4112.1513     -4145.0606      32.909306     -1011.5148      295.01445      9685.6414      0.88952277     0.83764052   
     20700  -4113.1749     -4146.6222      33.44725       24.563066      299.83683      9692.4143      0.88890119     0.83764052   
     20800  -4111.1163     -4145.2169      34.100584      2142.4216      305.69363      9686.7023      0.88942535     0.83764052   
     20900  -4110.9079     -4144.8067      33.898782     -52.466877      303.88458      9674.0503      0.89058857     0.83764052   
     21000  -4110.1639     -4144.0949      33.930956     -1217.1246      304.173        9657.4929      0.89211545     0.74973623   
     21100  -4110.3434     -4143.5063      33.162909     -371.96824      297.28786      9636.3384      0.8940739      0.74973623   
     21200  -4112.5856     -4145.8059      33.220251      3034.143       297.8019       9612.2718      0.89631242     0.74973623   
     21300  -4112.0871     -4145.9945      33.907412      133.31618      303.96194      9586.6051      0.89871216     0.74973623   
     21400  -4112.7819     -4147.7406      34.958674     -1642.8843      313.38595      9564.6554      0.90077459     0.74973623   
     21500  -4112.1165     -4145.2599      33.143332     -217.61389      297.11237      9554.2976      0.90175113     0.74973623   
     21600  -4111.8049     -4145.0783      33.273388     -1476.9312      298.27825      9560.7029      0.90114698     0.74973623   
     21700  -4111.7267     -4145.5451      33.818368     -529.06913      303.16371      9578.3928      0.8994827      0.74973623   
     21800  -4113.3681     -4147.6024      34.234376      2608.1587      306.893        9602.596       0.89721556     0.74973623   
     21900  -4113.4355     -4148.2354      34.799884      211.56241      311.96248      9632.652       0.89441606     0.74973623   
     22000  -4113.2038     -4147.5159      34.312085      1317.4328      307.58962      9664.8212      0.891439       0.7253749    
     22100  -4112.8965     -4145.1616      32.265173     -1019.785       289.24014      9688.8478      0.8892284      0.7253749    
     22200  -4112.5664     -4145.2694      32.70301      -162.73655      293.16511      9696.4195      0.88853402     0.7253749    
     22300  -4111.6845     -4145.6564      33.971863      2812.8251      304.53971      9687.4502      0.88935668     0.7253749    
     22400  -4111.885      -4147           35.114982      731.75132      314.78716      9669.3505      0.89102143     0.7253749    
     22500  -4112.9353     -4145.8229      32.887616     -1684.7039      294.82002      9644.1004      0.8933543      0.7253749    
     22600  -4112.3392     -4145.1057      32.766485     -242.13517      293.73414      9618.0534      0.89577363     0.7253749    
     22700  -4111.9386     -4146.4131      34.474485     -559.49003      309.04545      9591.0421      0.8982964      0.7253749    
     22800  -4112.6729     -4146.0387      33.365876      1076.9616      299.10736      9568.8497      0.90037976     0.7253749    
     22900  -4113.2481     -4146.2998      33.051647      873.80981      296.29047      9556.0374      0.90158695     0.7253749    
     23000  -4113.4629     -4145.2556      31.79268       2040.943       285.00449      9550.6929      0.90209147     0.70384678   
     23100  -4112.397      -4144.9345      32.537515      442.01544      291.68154      9553.132       0.90186115     0.70384678   
     23200  -4111.8755     -4145.5862      33.710621      1127.8855      302.19781      9567.7297      0.90048516     0.70384678   
     23300  -4112.0889     -4145.8569      33.767927      1846.6124      302.71153      9596.5937      0.89777674     0.70384678   
     23400  -4111.7397     -4144.9613      33.221586     -1720.5872      297.81388      9634.8832      0.89420893     0.70384678   
     23500  -4112.4284     -4146.3633      33.934928      272.85641      304.20861      9672.2471      0.8907546      0.70384678   
     23600  -4111.5963     -4146.3939      34.79756       700.64798      311.94165      9708.4759      0.8874306      0.70384678   
     23700  -4112.0314     -4146.3855      34.354081     -2183.6331      307.96609      9736.7877      0.88485021     0.70384678   
     23800  -4111.0052     -4145.1242      34.118945     -1609.9126      305.85822      9745.6564      0.88404498     0.70384678   
     23900  -4111.7906     -4143.7044      31.913784      686.82435      286.09013      9735.9337      0.88492782     0.70384678   
     24000  -4110.5268     -4145.069       34.542142     -2616.2799      309.65195      9714.5056      0.88687978     0.68359743   
     24100  -4110.4152     -4144.4757      34.060516      1368.3933      305.33444      9685.8181      0.88950654     0.68359743   
     24200  -4110.3124     -4144.5464      34.234035     -734.75825      306.88994      9651.4355      0.89267535     0.68359743   
     24300  -4110.8985     -4144.6938      33.795252     -999.57835      302.95649      9619.2424      0.8956629      0.68359743   
     24400  -4111.0759     -4145.7605      34.684619     -248.3489       310.92918      9597.3586      0.89770518     0.68359743   
     24500  -4111.9859     -4145.2085      33.222537      2348.3194      297.8224       9585.9525      0.89877334     0.68359743   
     24600  -4111.3266     -4145.5041      34.177494      2882.5315      306.38308      9585.4722      0.89881838     0.68359743   
     24700  -4111.5278     -4145.0412      33.513418     -240.41532      300.42999      9593.5993      0.89805695     0.68359743   
     24800  -4113.6428     -4147.1317      33.488927     -988.61975      300.21044      9608.1243      0.89669933     0.68359743   
     24900  -4114.1484     -4146.7756      32.627176      405.39044      292.4853       9625.7774      0.89505483     0.68359743   
     25000  -4112.6297     -4146.5245      33.894774     -624.2351       303.84865      9644.2993      0.89333588     0.64504821   
     25100  -4112.596      -4145.5753      32.979335     -1695.5253      295.64223      9659.035       0.89197302     0.64504821   
     25200  -4112.2        -4145.7255      33.525497     -2446.9984      300.53827      9668.0555      0.89114079     0.64504821   
     25300  -4113.3476     -4147.5686      34.220942      3754.1275      306.77257      9669.6753      0.89099151     0.64504821   
     25400  -4112.4864     -4146.1607      33.674311      1570.2209      301.87232      9664.4192      0.89147609     0.64504821   
     25500  -4112.5262     -4146.0182      33.491947     -2784.1179      300.23752      9652.5026      0.89257667     0.64504821   
     25600  -4113.1685     -4145.6032      32.434697     -613.33052      290.75984      9638.0326      0.89391673     0.64504821   
     25700  -4113.9345     -4146.9311      32.996597     -1174.1215      295.79697      9624.5579      0.89516824     0.64504821   
     25800  -4114.0239     -4145.314       31.290062     -63.7101        280.49879      9610.5754      0.89647063     0.64504821   
     25900  -4116.4324     -4147.4441      31.011711     -1072.3682      278.00352      9599.7935      0.89747749     0.64504821   
     26000  -4115.8488     -4148.0175      32.168679      847.82067      288.37512      9587.198       0.89865658     0.66158003   
     26100  -4115.3067     -4148.7157      33.409028      1815.2967      299.49419      9576.538       0.89965691     0.66158003   
     26200  -4116.1121     -4148.5948      32.482736     -714.49104      291.19048      9573.6833      0.89992518     0.66158003   
     26300  -4115.898      -4147.6926      31.794603     -1200.8396      285.02173      9576.7602      0.89963604     0.66158003   
     26400  -4114.7567     -4147.4457      32.689062     -768.24029      293.04008      9583.793       0.89897586     0.66158003   
     26500  -4115.9586     -4148.5536      32.594992      559.82823      292.19679      9591.2418      0.89827769     0.66158003   
     26600  -4114.5146     -4147.7228      33.208181      572.73418      297.69371      9600.1822      0.89744115     0.66158003   
     26700  -4113.2211     -4146.3798      33.158644     -229.47204      297.24963      9608.8497      0.89663163     0.66158003   
     26800  -4112.2383     -4146.8223      34.583983      761.76034      310.02704      9613.9775      0.8961534      0.66158003   
     26900  -4113.1329     -4145.7891      32.656222     -456.47038      292.74568      9617.4096      0.89583359     0.66158003   
     27000  -4114.3645     -4147.425       33.060578      491.79531      296.37052      9620.3819      0.89555681     0.70233433   
     27100  -4114.3097     -4146.7357      32.426011      2145.9013      290.68196      9618.5346      0.89572881     0.70233433   
     27200  -4112.5444     -4146.6464      34.101964      296.15544      305.70599      9615.1707      0.89604218     0.70233433   
     27300  -4112.603      -4146.8531      34.250089      1162.9486      307.03386      9615.8789      0.89597619     0.70233433   
     27400  -4112.9115     -4145.5419      32.630396     -1235.1063      292.51417      9618.8797      0.89569667     0.70233433   
     27500  -4113.1661     -4146.191       33.024808      2228.0923      296.04986      9622.0539      0.8954012      0.70233433   
     27600  -4112.5004     -4146.1247      33.624288      799.90527      301.42388      9625.3511      0.89509448     0.70233433   
     27700  -4113.5319     -4146.8157      33.283811     -1377.274       298.37169      9626.8575      0.89495441     0.70233433   
     27800  -4112.5746     -4146.1059      33.531221     -1011.9192      300.58959      9623.9806      0.89522194     0.70233433   
     27900  -4112.292      -4145.2607      32.968622     -346.16423      295.54619      9619.3861      0.89564952     0.70233433   
     28000  -4112.9235     -4146.1934      33.269897     -808.21831      298.24695      9617.5718      0.89581848     0.74451767   
     28100  -4112.8441     -4145.8922      33.048152      2312.0935      296.25913      9615.9725      0.89596747     0.74451767   
     28200  -4113.3067     -4145.6337      32.32697      -1450.7619      289.79412      9619.9613      0.89559597     0.74451767   
     28300  -4112.9535     -4146.5698      33.616298     -503.17553      301.35226      9623.7901      0.89523966     0.74451767   
     28400  -4112.4744     -4146.6179      34.143503      895.34521      306.07837      9623.6303      0.89525452     0.74451767   
     28500  -4113.4789     -4146.347       32.868109     -1009.2112      294.64514      9618.0855      0.89577064     0.74451767   
     28600  -4112.5379     -4146.4383      33.900438      694.61164      303.89943      9612.6999      0.8962725      0.74451767   
     28700  -4112.5689     -4145.2122      32.643285      249.64493      292.62972      9613.7153      0.89617784     0.74451767   
     28800  -4111.6686     -4145.7974      34.128722      1991.2144      305.94587      9618.9107      0.89569379     0.74451767   
     28900  -4111.7313     -4144.9608      33.229498      182.52058      297.8848       9627.57        0.89488818     0.74451767   
     29000  -4111.3261     -4145.629       34.302921      295.69559      307.50747      9635.6615      0.8941367      0.71663192   
     29100  -4111.5919     -4144.5272      32.93527      -366.6631       295.24721      9641.3444      0.89360967     0.71663192   
     29200  -4111.1182     -4145.1788      34.060607      1422.2718      305.33526      9642.8057      0.89347425     0.71663192   
     29300  -4110.9833     -4146.2609      35.277541     -147.03164      316.24442      9640.0472      0.89372991     0.71663192   
     29400  -4112.5635     -4146.7355      34.171922     -291.08868      306.33313      9634.1532      0.89427668     0.71663192   
     29500  -4111.6733     -4145.2625      33.589153     -491.30294      301.10891      9629.3889      0.89471914     0.71663192   
     29600  -4112.268      -4146.2049      33.936854      1964.7485      304.22587      9623.3774      0.89527805     0.71663192   
     29700  -4112.1843     -4145.4955      33.311181      3.5662657      298.61705      9616.6564      0.89590376     0.71663192   
     29800  -4112.7606     -4146.4879      33.727302      1153.4066      302.34735      9608.2666      0.89668605     0.71663192   
     29900  -4112.6576     -4145.7595      33.101901     -946.13142      296.74097      9600.0449      0.89745399     0.71663192   
     30000  -4111.6335     -4146.1192      34.485691      729.14408      309.14591      9596.0844      0.89782438     0.65680358   
     30100  -4112.0628     -4144.425       32.362151      86.488179      290.1095       9597.6347      0.89767936     0.65680358   
     30200  -4112.8308     -4145.7191      32.888299     -1010.0275      294.82613      9606.0476      0.89689318     0.65680358   
     30300  -4112.8748     -4146.8212      33.946352      1745.415       304.31101      9616.681       0.89590146     0.65680358   
     30400  -4112.2908     -4146.0639      33.77314       2224.9363      302.75827      9626.6704      0.89497181     0.65680358   
     30500  -4112.4262     -4146.9495      34.523275     -2014.4225      309.48282      9639.8419      0.89374895     0.65680358   
     30600  -4113.1693     -4146.1288      32.959522     -1146.6439      295.46461      9649.3966      0.89286397     0.65680358   
     30700  -4112.2628     -4146.1624      33.899593     -28.635223      303.89185      9651.4328      0.8926756      0.65680358   
     30800  -4111.5212     -4145.3351      33.813907     -1639.3442      303.12372      9645.2757      0.89324544     0.65680358   
     30900  -4110.6705     -4145.2251      34.55457       2148.7573      309.76337      9634.5472      0.89424011     0.65680358   
     31000  -4110.394      -4145.1499      34.755895     -182.85805      311.56814      9622.6298      0.89534761     0.81804133   
     31100  -4110.7441     -4144.9815      34.23735       875.43419      306.91966      9616.8038      0.89589003     0.81804133   
     31200  -4112.4672     -4146.4759      34.008638     -304.79667      304.86938      9619.6458      0.89562534     0.81804133   
     31300  -4112.4749     -4146.536       34.061129     -1101.3607      305.33994      9628.9398      0.89476087     0.81804133   
     31400  -4111.7086     -4145.6041      33.895486     -288.46826      303.85503      9641.3694      0.89360735     0.81804133   
     31500  -4110.9693     -4144.9299      33.960606      795.26591      304.4388       9651.4301      0.89267585     0.81804133   
     31600  -4111.8985     -4146.0256      34.127095      554.94606      305.93129      9653.9783      0.89244023     0.81804133   
     31700  -4112.5291     -4144.8617      32.332601     -3003.772       289.8446       9642.1326      0.89353662     0.81804133   
     31800  -4112.4579     -4145.942       33.48409       1071.8293      300.16708      9622.0097      0.89540531     0.81804133   
     31900  -4112.9441     -4146.0235      33.079425     -495.14843      296.53947      9602.3124      0.89724206     0.81804133   
     32000  -4111.6324     -4146.4267      34.794302      1320.6154      311.91244      9586.2191      0.89874835     0.78956979   
     32100  -4111.6106     -4146.0736      34.46304       2815.1112      308.94285      9578.9917      0.89942646     0.78956979   
     32200  -4111.8937     -4145.7937      33.899964      1693.8823      303.89518      9584.0528      0.8989515      0.78956979   
     32300  -4111.711      -4145.8561      34.145104      547.82124      306.09273      9594.7405      0.89795014     0.78956979   
     32400  -4113.3345     -4146.5057      33.171198     -1229.0606      297.36217      9607.9101      0.89671932     0.78956979   
     32500  -4111.5959     -4144.6336      33.037684      307.86234      296.16529      9620.6423      0.89553258     0.78956979   
     32600  -4112.2096     -4146.1178      33.908164     -1174.2523      303.96868      9632.1232      0.89446515     0.78956979   
     32700  -4112.969      -4147.1892      34.220249      149.84232      306.76636      9641.3249      0.89361148     0.78956979   
     32800  -4111.8593     -4145.9464      34.087036      203.93371      305.57217      9647.0395      0.89308213     0.78956979   
     32900  -4112.584      -4145.5762      32.992206      71.524242      295.75761      9646.9659      0.89308894     0.78956979   
     33000  -4113.9035     -4145.2828      31.379309     -594.36151      281.29884      9643.8742      0.89337526     0.79725166   
     33100  -4113.6767     -4147.0368      33.360017     -1576.8119      299.05483      9639.1781      0.8938105      0.79725166   
     33200  -4112.6582     -4145.8727      33.214542     -1743.2158      297.75073      9633.7458      0.8943145      0.79725166   
     33300  -4112.0499     -4144.7068      32.656852     -2099.6079      292.75134      9629.6405      0.89469577     0.79725166   
     33400  -4111.5092     -4146.0354      34.526191     -156.0811       309.50897      9624.6909      0.89515588     0.79725166   
     33500  -4110.4791     -4144.9958      34.516682     -534.86054      309.42373      9622.2299      0.89538482     0.79725166   
     33600  -4110.5646     -4145.0061      34.441452      734.67641      308.74933      9623.882       0.89523111     0.79725166   
     33700  -4110.2169     -4145.0144      34.797434     -507.67604      311.94051      9633.7213      0.89431678     0.79725166   
     33800  -4112.4012     -4147.738       35.336744      1217.5292      316.77514      9648.0144      0.89299189     0.79725166   
     33900  -4112.0432     -4144.9123      32.869084      2861.2621      294.65388      9659.5787      0.89192281     0.79725166   
     34000  -4113.6739     -4147.342       33.668067     -625.81493      301.81634      9670.6236      0.89090414     0.7236264    
     34100  -4113.3226     -4146.612       33.289339     -2011.9252      298.42124      9676.8998      0.89032632     0.7236264    
     34200  -4114.2042     -4146.7521      32.547915     -1942.193       291.77477      9674.0524      0.89058837     0.7236264    
     34300  -4113.7891     -4145.8567      32.067601      2902.9056      287.46902      9658.658       0.89200783     0.7236264    
     34400  -4112.0677     -4146.5306      34.462882      747.05049      308.94143      9641.0486      0.89363708     0.7236264    
     34500  -4112.9306     -4146.8685      33.937938      1798.9919      304.23559      9622.5318      0.89535673     0.7236264    
     34600  -4111.4094     -4145.5047      34.095301     -97.360834      305.64627      9606.5465      0.8968466      0.7236264    
     34700  -4111.9052     -4144.6071      32.701884     -1592.92        293.15502      9597.3802      0.89770317     0.7236264    
     34800  -4112.0928     -4145.8171      33.724375      136.178        302.32111      9595.0879      0.89791763     0.7236264    
     34900  -4111.7955     -4146.4869      34.691336      3987.7666      310.9894       9600.6082      0.89740134     0.7236264    
     35000  -4110.7473     -4145.9241      35.176733      1072.3833      315.34073      9617.776       0.89579946     0.70993586   
     35100  -4110.6107     -4145.4663      34.855618      2938.1417      312.46211      9641.4817      0.89359694     0.70993586   
     35200  -4111.9378     -4145.7908      33.853013     -385.35236      303.47429      9661.5237      0.89174325     0.70993586   
     35300  -4111.8788     -4146.3463      34.46744       171.38164      308.9823       9679.9745      0.89004352     0.70993586   
     35400  -4112.6713     -4147.0686      34.397372      485.29199      308.35417      9694.8314      0.88867957     0.70993586   
     35500  -4112.8528     -4145.7273      32.874483      1695.636       294.70228      9700.2555      0.88818265     0.70993586   
     35600  -4111.9365     -4144.0056      32.069094      616.8463       287.48239      9692.8659      0.88885977     0.70993586   
     35700  -4111.4302     -4144.4526      33.02244      -592.3403       296.02864      9669.9014      0.89097068     0.70993586   
     35800  -4111.322      -4145.312       33.990027      2246.5279      304.70254      9640.9241      0.89364862     0.70993586   
     35900  -4111.3922     -4147.3971      36.004869      805.24575      322.76453      9615.5132      0.89601027     0.70993586   
     36000  -4111.1612     -4145.3995      34.238278      2804.7569      306.92798      9596.0727      0.89782548     0.8148555    
     36100  -4112.4175     -4146.1119      33.69441      -956.63613      302.05249      9583.7205      0.89898266     0.8148555    
     36200  -4111.7822     -4146.0049      34.222735     -1240.6871      306.78865      9581.0743      0.89923095     0.8148555    
     36300  -4111.7991     -4146.0638      34.264677     -1843.8878      307.16463      9593.2888      0.89808602     0.8148555    
     36400  -4112.9832     -4146.8511      33.867913     -598.69049      303.60786      9620.221       0.89557179     0.8148555    
     36500  -4112.379      -4144.3617      31.98269      -3244.2669      286.70783      9651.9761      0.89262535     0.8148555    
     36600  -4113.2747     -4144.7033      31.428565      498.06604      281.74039      9683.4158      0.88972722     0.8148555    
     36700  -4113.163      -4145.5529      32.389975     -99.243479      290.35893      9709.3915      0.88734691     0.8148555    
     36800  -4113.4973     -4147.411       33.913642     -2523.129       304.01779      9723.175       0.88608902     0.8148555    
     36900  -4112.4395     -4145.855       33.415486     -2371.3112      299.55208      9723.3596      0.8860722      0.8148555    
     37000  -4112.7955     -4145.9037      33.108175     -1524.0163      296.7972       9712.05        0.88710402     0.74324202   
     37100  -4112.6761     -4145.8526      33.176456      325.97945      297.40931      9690.2614      0.88909868     0.74324202   
     37200  -4112.1091     -4146.5564      34.447267     -167.98777      308.80146      9660.4053      0.89184649     0.74324202   
     37300  -4113.2637     -4146.1059      32.842166      509.29534      294.41257      9622.7392      0.89533743     0.74324202   
     37400  -4114.3514     -4147.3315      32.980126     -3494.0017      295.64931      9586.867       0.89868761     0.74324202   
     37500  -4114.4642     -4147.6475      33.183335      1812.5753      297.47097      9562.9948      0.90093101     0.74324202   
     37600  -4113.9888     -4147.4911      33.502298      2254.2108      300.33031      9557.9458      0.90140693     0.74324202   
     37700  -4113.9167     -4146.946       33.029305     -1097.1218      296.09018      9570.7658      0.9001995      0.74324202   
     37800  -4113.9088     -4146.9213      33.012567      1469.0094      295.94013      9596.1161      0.89782142     0.74324202   
     37900  -4111.8465     -4144.7925      32.946052     -499.17998      295.34386      9628.1081      0.89483817     0.74324202   
     38000  -4112.592      -4144.7248      32.13281      -1253.715       288.05357      9661.0786      0.89178433     0.72598817   
     38100  -4110.6438     -4144.5166      33.872759     -147.74295      303.65129      9693.8122      0.888773       0.72598817   
     38200  -4110.0677     -4144.8665      34.798839      416.7812       311.95311      9722.1689      0.88618071     0.72598817   
     38300  -4111.7419     -4144.4656      32.723731     -1324.5631      293.35087      9742.737       0.88430988     0.72598817   
     38400  -4112.5155     -4146.8993      34.383802     -1310.9264      308.23252      9750.0084      0.88365037     0.72598817   
     38500  -4111.8798     -4145.2079      33.328138     -1486.8699      298.76906      9738.6066      0.88468494     0.72598817   
     38600  -4113.0142     -4145.4419      32.427687      953.97695      290.69699      9718.0704      0.88655446     0.72598817   
     38700  -4112.2963     -4145.7121      33.415833     -4776.9004      299.5552       9689.9319      0.88912891     0.72598817   
     38800  -4112.0391     -4145.4735      33.434369      694.53018      299.72136      9659.864       0.89189647     0.72598817   
     38900  -4112.5454     -4145.2579      32.712444     -2094.4398      293.24969      9633.7555      0.8943136      0.72598817   
     39000  -4111.5054     -4145.2048      33.699458      1045.8046      302.09775      9615.3537      0.89602514     0.72090753   
     39100  -4112.1082     -4147.0742      34.965979     -1476.8628      313.45143      9610.9266      0.89643788     0.72090753   
     39200  -4111.4984     -4146.4243      34.925917      11.17217       313.0923       9613.5911      0.89618941     0.72090753   
     39300  -4112.4744     -4144.6692      32.194808      1441.6963      288.60936      9623.957       0.89522413     0.72090753   
     39400  -4111.9251     -4145.2283      33.303287     -371.28657      298.54628      9642.0975      0.89353987     0.72090753   
     39500  -4110.9054     -4143.8161      32.91067       1474.6222      295.02668      9658.6479      0.89200877     0.72090753   
     39600  -4111.9901     -4144.6096      32.619538     -3829.3754      292.41683      9670.3274      0.89093143     0.72090753   
     39700  -4112.5539     -4146.1757      33.621847     -68.44726       301.402        9678.7788      0.89015348     0.72090753   
     39800  -4112.0916     -4145.7517      33.66012      -485.50384      301.7451       9688.14        0.88929337     0.72090753   
     39900  -4113.3306     -4146.2869      32.956343     -33.546043      295.43611      9697.0955      0.88847208     0.72090753   
     40000  -4113.0849     -4147.1392      34.054275     -1840.0463      305.27849      9701.116       0.88810386     0.80791403   
     40100  -4113.7895     -4145.9792      32.189714      1025.7093      288.56369      9698.4736      0.88834583     0.80791403   
     40200  -4112.8695     -4146.3851      33.515573     -1189.7333      300.44931      9695.6018      0.88860896     0.80791403   
     40300  -4111.1097     -4145.5123      34.402538     -1701.5077      308.40048      9690.6096      0.88906673     0.80791403   
     40400  -4110.2889     -4144.9474      34.65849      -2707.8369      310.69495      9685.4811      0.88953749     0.80791403   
     40500  -4109.3343     -4143.7844      34.450088      905.80632      308.82674      9685.8217      0.88950621     0.80791403   
     40600  -4110.175      -4143.7723      33.597297     -56.064616      301.18193      9689.9309      0.889129       0.80791403   
     40700  -4111.204      -4145.2999      34.095863     -316.97669      305.6513       9692.6005      0.88888411     0.80791403   
     40800  -4111.8679     -4145.0151      33.147201     -266.74669      297.14705      9695.6844      0.88860139     0.80791403   
     40900  -4111.7201     -4146.1083      34.388215     -632.12965      308.27209      9698.7163      0.8883236      0.80791403   
     41000  -4112.2282     -4145.4048      33.176639      1341.3116      297.41095      9704.5162      0.8877927      0.73639048   
     41100  -4111.9489     -4145.1377      33.188753      1280.0542      297.51954      9710.2688      0.88726674     0.73639048   
     41200  -4113.0618     -4144.3349      31.273196     -2622.8746      280.34759      9710.9492      0.88720458     0.73639048   
     41300  -4113.997      -4146.1199      32.12294      -718.0848       287.9651       9705.4444      0.88770778     0.73639048   
     41400  -4112.8449     -4146.1056      33.260769      3334.983       298.16513      9698.0793      0.88838195     0.73639048   
     41500  -4112.8923     -4145.3888      32.496481      1492.2215      291.31369      9689.8801      0.88913366     0.73639048   
     41600  -4112.1144     -4145.4694      33.355082      1008.5805      299.0106       9679.0274      0.89013062     0.73639048   
     41700  -4111.5022     -4145.0167      33.514456      1012.2277      300.4393       9674.0846      0.89058541     0.73639048   
     41800  -4113.1074     -4146.4864      33.379003      2557.1277      299.22504      9674.7594      0.8905233      0.73639048   
     41900  -4112.8575     -4145.4882      32.630772     -1701.3221      292.51754      9674.8366      0.89051618     0.73639048   
     42000  -4113.0005     -4147.2367      34.236126      180.28834      306.90869      9667.7309      0.89117071     0.63316015   
     42100  -4111.8307     -4144.8027      32.97198      -938.39958      295.57629      9654.779       0.89236622     0.63316015   
     42200  -4111.6633     -4146.1565      34.493204     -1535.9604      309.21325      9647.0382      0.89308225     0.63316015   
     42300  -4111.8429     -4145.2935      33.45057       989.50801      299.86659      9647.0222      0.89308373     0.63316015   
     42400  -4113.0623     -4146.0124      32.950124     -1006.7799      295.38036      9656.0629      0.89224757     0.63316015   
     42500  -4113.1675     -4146.1993      33.031784     -929.81809      296.1124       9665.4861      0.89137768     0.63316015   
     42600  -4114.0037     -4146.1301      32.12642       3417.1348      287.99629      9669.8035      0.89097969     0.63316015   
     42700  -4115.1747     -4147.6335      32.458809      193.78178      290.97598      9672.6926      0.89071358     0.63316015   
     42800  -4115.2549     -4148.5716      33.316697     -1600.3324      298.66649      9672.9579      0.89068914     0.63316015   
     42900  -4115.819      -4147.2787      31.459766      600.62405      282.0201       9662.0955      0.89169048     0.63316015   
     43000  -4116.3288     -4147.7568      31.428046     -1703.0131      281.73574      9643.9925      0.89336429     0.69762371   
     43100  -4115.8947     -4147.5588      31.664128      30.119137      283.85209      9618.9684      0.89568841     0.69762371   
     43200  -4114.8409     -4147.0569      32.21599      -501.27613      288.79924      9593.0139      0.89811176     0.69762371   
     43300  -4113.0808     -4146.8587      33.777948      770.16199      302.80137      9577.1627      0.89959822     0.69762371   
     43400  -4112.7172     -4144.9757      32.258502      1.8258154      289.18034      9572.5529      0.90003144     0.69762371   
     43500  -4112.4443     -4145.8404      33.396134      128.53817      299.3786       9582.3652      0.89910981     0.69762371   
     43600  -4111.7233     -4144.7849      33.061628      683.43868      296.37994      9603.5247      0.8971288      0.69762371   
     43700  -4112.6444     -4145.3049      32.660562      897.0777       292.78459      9631.9069      0.89448525     0.69762371   
     43800  -4112.6076     -4147.1514      34.543866     -1934.9012      309.66741      9662.4482      0.89165793     0.69762371   
     43900  -4113.6368     -4145.8937      32.256877      510.50642      289.16577      9689.7822      0.88914265     0.69762371   
     44000  -4114.3853     -4147.2684      32.883135     -1160.4053      294.77984      9705.0017      0.88774829     0.70001809   
     44100  -4113.1768     -4145.6942      32.517475     -20.044449      291.50189      9705.8768      0.88766824     0.70001809   
     44200  -4111.6563     -4145.4677      33.811441     -887.74435      303.10161      9697.8906      0.88839924     0.70001809   
     44300  -4112.4763     -4144.7898      32.313485     -1256.6219      289.67323      9681.6452      0.88988993     0.70001809   
     44400  -4112.3582     -4144.2823      31.924092     -1699.4427      286.18253      9657.5373      0.89211134     0.70001809   
     44500  -4112.1619     -4145.7013      33.539362     -303.03507      300.66257      9627.8831      0.89485907     0.70001809   
     44600  -4112.8973     -4146.1202      33.222969     -3040.8251      297.82627      9600.1659      0.89744268     0.70001809   
     44700  -4113.5924     -4147.8799      34.287414     -423.73545      307.36846      9579.5229      0.89937658     0.70001809   
     44800  -4113.9025     -4145.6841      31.7816        1649.0971      284.90517      9565.3535      0.90070885     0.70001809   
     44900  -4113.2836     -4147.1664      33.882735      580.50231      303.74073      9559.2888      0.90128029     0.70001809   
     45000  -4113.3677     -4147.1476      33.779924      248.18376      302.81908      9561.4169      0.90107969     0.69577309   
     45100  -4112.9132     -4148.2243      35.311034      743.1213       316.54467      9569.0704      0.90035899     0.69577309   
     45200  -4114.4424     -4147.0346      32.592212      1507.3641      292.17187      9581.2218      0.89921711     0.69577309   
     45300  -4112.5602     -4146.1958      33.635586      2645.4276      301.52516      9596.4727      0.89778806     0.69577309   
     45400  -4112.6658     -4145.6631      32.997367      1123.6308      295.80387      9614.3446      0.89611918     0.69577309   
     45500  -4113.9377     -4147.5585      33.620734     -818.50085      301.39202      9631.7968      0.89449547     0.69577309   
     45600  -4112.7386     -4145.7906      33.052063      1305.7683      296.29419      9643.6513      0.89339591     0.69577309   
     45700  -4112.7882     -4146.5307      33.742501     -3288.1244      302.4836       9652.3486      0.89259091     0.69577309   
     45800  -4114.2814     -4147.283       33.001597      1924.54        295.84179      9658.9021      0.89198529     0.69577309   
     45900  -4113.2711     -4146.1221      32.851081      762.86946      294.49249      9658.4667      0.8920255      0.69577309   
     46000  -4113.4514     -4146.2371      32.785766     -2814.7041      293.90698      9651.0294      0.89271292     0.7534296    
     46100  -4114.2089     -4146.1153      31.906357      181.7991       286.02354      9640.1932      0.89371638     0.7534296    
     46200  -4112.9151     -4145.8984      32.983371      2918.0907      295.6784       9629.8963      0.894672       0.7534296    
     46300  -4113.1739     -4145.1117      31.937736      1677.3829      286.30484      9622.2589      0.89538212     0.7534296    
     46400  -4112.4068     -4146.7216      34.314825     -233.36104      307.61418      9622.2804      0.89538013     0.7534296    
     46500  -4112.2955     -4145.4325      33.137053      1487.498       297.05609      9625.0189      0.89512537     0.7534296    
     46600  -4113.4281     -4146.7676      33.339517     -173.6444       298.87106      9633.8806      0.89430199     0.7534296    
     46700  -4113.3942     -4146.5732      33.178999     -514.67478      297.4321       9643.1626      0.89344118     0.7534296    
     46800  -4113.5645     -4146.178       32.613533      200.32626      292.363        9643.2428      0.89343376     0.7534296    
     46900  -4112.7535     -4145.8527      33.099238     -1281.9684      296.71709      9636.1068      0.89409538     0.7534296    
     47000  -4112.5642     -4145.5876      33.023417      783.42717      296.0374       9630.0671      0.89465613     0.7878554    
     47100  -4112.2117     -4145.5732      33.361536     -30.026484      299.06845      9627.2908      0.89491413     0.7878554    
     47200  -4112.6324     -4145.6972      33.064746     -2766.9706      296.40788      9622.1306      0.89539406     0.7878554    
     47300  -4112.7742     -4145.052       32.277872     -1915.8727      289.35398      9618.1507      0.89576457     0.7878554    
     47400  -4113.7473     -4146.592       32.844653      867.73552      294.43487      9614.878       0.89606946     0.7878554    
     47500  -4113.0538     -4146.4843      33.430509      810.73765      299.68676      9613.4296      0.89620447     0.7878554    
     47600  -4113.515      -4148.3587      34.84376      -1413.4769      312.35581      9617.62        0.895814       0.7878554    
     47700  -4114.2632     -4146.9867      32.723458     -663.13097      293.34842      9627.0332      0.89493808     0.7878554    
     47800  -4112.4777     -4144.8024      32.324624      2897.9478      289.77309      9633.0982      0.89437463     0.7878554    
     47900  -4110.4412     -4144.7229      34.28171       2414.3438      307.31733      9636.4804      0.89406072     0.7878554    
     48000  -4110.2935     -4143.6633      33.369782     -898.49647      299.14237      9639.8001      0.89375283     0.69083785   
     48100  -4111.6138     -4144.7605      33.146762     -3720.2517      297.14312      9646.1442      0.89316502     0.69083785   
     48200  -4110.7153     -4144.4323      33.716939      3201.9408      302.25445      9648.4946      0.89294744     0.69083785   
     48300  -4109.6508     -4145.3958      35.744942      376.62246      320.43442      9650.7271      0.89274088     0.69083785   
     48400  -4110.1654     -4145.1138      34.948399     -645.19032      313.29383      9653.2104      0.89251122     0.69083785   
     48500  -4111.9204     -4144.9394      33.018952      1656.8055      295.99736      9656.599       0.89219803     0.69083785   
     48600  -4112.2654     -4146.6036      34.338193      1099.722       307.82367      9657.4268      0.89212156     0.69083785   
     48700  -4109.9856     -4144.8792      34.893668     -1466.026       312.8032       9654.5913      0.89238356     0.69083785   
     48800  -4109.3927     -4144.1479      34.755224     -1234.0636      311.56212      9652.6508      0.89256297     0.69083785   
     48900  -4109.5565     -4144.0269      34.470359      1223.436       309.00846      9654.1999      0.89241974     0.69083785   
     49000  -4109.7643     -4145.4067      35.64239      -1091.138       319.5151       9657.606       0.892105       0.80055707   
     49100  -4111.0549     -4145.1758      34.120837     -2195.7826      305.87518      9660.8729      0.89180333     0.80055707   
     49200  -4110.444      -4144.4558      34.01183       1510.0403      304.89799      9657.9289      0.89207517     0.80055707   
     49300  -4111.2378     -4145.5435      34.305689     -65.362533      307.53228      9654.3701      0.89240401     0.80055707   
     49400  -4111.425      -4145.3189      33.893927     -1099.038       303.84106      9648.3012      0.89296534     0.80055707   
     49500  -4111.7281     -4145.7009      33.972749     -2673.481       304.54765      9641.3996      0.89360456     0.80055707   
     49600  -4111.4328     -4145.2563      33.82347       1578.3708      303.20945      9631.7648      0.89449844     0.80055707   
     49700  -4112.4755     -4146.4378      33.962233      306.01159      304.45339      9626.0704      0.89502759     0.80055707   
     49800  -4112.3193     -4145.5309      33.211537      948.14817      297.72379      9619.1584      0.89567073     0.80055707   
     49900  -4111.9342     -4145.1048      33.170639     -2603.2013      297.35716      9610.216       0.89650415     0.80055707   
     50000  -4110.588      -4146.1704      35.582479      1731.5508      318.97803      9601.8574      0.89728458     0.71681176   
     50100  -4110.5369     -4145.3793      34.842389      126.63676      312.34351      9600.3184      0.89742842     0.71681176   
     50200  -4111.4602     -4145.4348      33.974622      414.76363      304.56444      9611.758       0.89636033     0.71681176   
     50300  -4112.102      -4145.4         33.297993      157.37406      298.49883      9635.9222      0.89411251     0.71681176   
     50400  -4112.8557     -4145.8586      33.002918      89.275382      295.85364      9664.923       0.89142961     0.71681176   
     50500  -4112.1664     -4145.7914      33.625029     -1251.37        301.43053      9688.634       0.88924802     0.71681176   
     50600  -4111.1623     -4145.884       34.721621      163.94235      311.2609       9702.9135      0.88793933     0.71681176   
     50700  -4112.2467     -4145.5959      33.349254     -1155.6485      298.95835      9705.6798      0.88768626     0.71681176   
     50800  -4111.5715     -4144.5848      33.013309     -1524.3436      295.94678      9690.4038      0.88908561     0.71681176   
     50900  -4112.2633     -4144.968       32.704665      541.72986      293.17995      9665.4517      0.89138086     0.71681176   
     51000  -4110.8468     -4144.4308      33.584024     -864.28083      301.06294      9634.2437      0.89426829     0.69899731   
     51100  -4112.9593     -4145.2181      32.258813      231.06804      289.18313      9599.703       0.89748595     0.69899731   
     51200  -4112.7488     -4146.1986      33.449747     -2265.4176      299.85922      9571.263       0.90015274     0.69899731   
     51300  -4112.2121     -4146.7427      34.530596      745.88854      309.54846      9549.4084      0.90221281     0.69899731   
     51400  -4111.6358     -4145.0689      33.433149      2728.8948      299.71042      9538.2386      0.90326935     0.69899731   
     51500  -4111.337      -4145.4612      34.124163      2430.6399      305.90499      9545.5719      0.90257543     0.69899731   
     51600  -4112.3208     -4145.9583      33.637567      1339.7757      301.54293      9569.2064      0.9003462      0.69899731   
     51700  -4112.6332     -4145.4206      32.787317      346.61328      293.92088      9604.3726      0.8970496      0.69899731   
     51800  -4111.9402     -4145.5691      33.628878     -1405.9621      301.46503      9640.8297      0.89365738     0.69899731   
     51900  -4112.4861     -4145.2451      32.759056      1738.7438      293.66754      9675.8653      0.89042151     0.69899731   
     52000  -4110.9296     -4145.6646      34.735012     -2304.8095      311.38094      9704.1022      0.88783057     0.71694413   
     52100  -4109.789      -4145.2477      35.458724     -1310.2364      317.86863      9722.1516      0.88618229     0.71694413   
     52200  -4110.2369     -4143.6719      33.434952     -464.18593      299.72659      9727.979       0.88565144     0.71694413   
     52300  -4110.3382     -4144.959       34.620785      2090.643       310.35695      9723.4797      0.88606125     0.71694413   
     52400  -4110.4268     -4145.7967      35.369875      3458.2152      317.07214      9705.443       0.88770792     0.71694413   
     52500  -4111.0302     -4145.458       34.427804     -886.47388      308.62698      9683.3596      0.88973238     0.71694413   
     52600  -4111.731      -4145.6209      33.889832     -674.63635      303.80434      9657.3897      0.89212498     0.71694413   
     52700  -4111.4531     -4145.3888      33.935671      2418.241       304.21527      9626.8241      0.89495752     0.71694413   
     52800  -4110.8579     -4145.4104      34.552516      872.65303      309.74496      9599.1852      0.89753436     0.71694413   
     52900  -4111.2962     -4146.396       35.099736      3032.9059      314.65049      9582.3285      0.89911326     0.71694413   
     53000  -4111.7319     -4144.7196      32.987699      1056.7302      295.7172       9574.7814      0.89982196     0.73414507   
     53100  -4111.1017     -4144.7373      33.635501      2001.0199      301.5244       9577.5328      0.89956347     0.73414507   
     53200  -4110.986      -4143.933       32.947011      21.07263       295.35246      9589.3157      0.89845812     0.73414507   
     53300  -4111.3739     -4144.2567      32.882779     -1568.111       294.77665      9609.2546      0.89659385     0.73414507   
     53400  -4111.6224     -4145.7001      34.07767      -1176.5615      305.48821      9633.6214      0.89432605     0.73414507   
     53500  -4111.8454     -4146.4467      34.601279      38.532233      310.18209      9656.2139      0.89223361     0.73414507   
     53600  -4111.1739     -4146.4396      35.265614     -2028.6083      316.1375       9676.2425      0.8903868      0.73414507   
     53700  -4112.1896     -4145.4594      33.269877     -357.52184      298.24678      9691.7479      0.88896231     0.73414507   
     53800  -4112.4453     -4146.2443      33.798969     -678.18906      302.9898       9700.5862      0.88815237     0.73414507   
     53900  -4112.0865     -4145.1458      33.059312     -379.01559      296.35917      9697.8776      0.88840043     0.73414507   
     54000  -4112.7081     -4145.6178      32.909631      1039.3889      295.01736      9681.0373      0.88994581     0.64319274   
     54100  -4112.1246     -4145.3739      33.249346     -734.31298      298.06273      9651.689       0.89265191     0.64319274   
     54200  -4110.6183     -4143.1137      32.495398      1274.8495      291.30398      9618.2995      0.89575071     0.64319274   
     54300  -4110.9555     -4145.8353      34.879723     -204.28298      312.67819      9593.582       0.89805858     0.64319274   
     54400  -4111.4817     -4146.1113      34.629603     -699.2555       310.436        9578.7858      0.89944579     0.64319274   
     54500  -4111.1666     -4144.999       33.832358      501.38968      303.28912      9574.9319      0.89980782     0.64319274   
     54600  -4111.8841     -4145.217       33.332886      1523.7998      298.81162      9582.0798      0.8991366      0.64319274   
     54700  -4112.2526     -4146.3024      34.049751     -1732.2689      305.23794      9599.486       0.89750624     0.64319274   
     54800  -4111.8581     -4146.0682      34.210162      1205.0673      306.67593      9621.6309      0.89544056     0.64319274   
     54900  -4112.3788     -4144.2334      31.854611      1368.5292      285.55967      9641.0452      0.8936374      0.64319274   
     55000  -4113.071      -4146.5056      33.43456       725.5947       299.72307      9653.1421      0.89251753     0.66260117   
     55100  -4114.5559     -4147.4818      32.925842      434.30591      295.16269      9660.9448      0.89179669     0.66260117   
     55200  -4112.2549     -4146.1586      33.903738     -685.88657      303.92901      9661.8385      0.8917142      0.66260117   
     55300  -4111.8257     -4145.3531      33.527436     -991.64659      300.55566      9659.0865      0.89196826     0.66260117   
     55400  -4111.8931     -4145.2989      33.405784      1705.3858      299.46511      9646.5686      0.89312572     0.66260117   
     55500  -4112.4501     -4144.767       32.316831     -789.49905      289.70323      9622.6943      0.89534161     0.66260117   
     55600  -4112.6026     -4146.7283      34.125701     -1103.8301      305.91878      9592.7933      0.89813241     0.66260117   
     55700  -4113.509      -4146.1577      32.648685      1352.5787      292.67812      9564.7748      0.90076335     0.66260117   
[...]
    386100  -4112.3346     -4144.7473      32.412735     -773.96324      290.56296      9623.0188      0.89531141     0.71456835   
    386200  -4111.3659     -4144.9233      33.55739      -1235.1158      300.82418      9622.2092      0.89538674     0.71456835   
    386300  -4111.8463     -4145.3822      33.535872     -1435.4937      300.63129      9619.7187      0.89561856     0.71456835   
    386400  -4111.971      -4145.9311      33.960041     -190.07414      304.43373      9622.9743      0.89531556     0.71456835   
    386500  -4112.9432     -4147.2351      34.291878      490.65306      307.40848      9626.9218      0.89494843     0.71456835   
    386600  -4113.2282     -4146.7627      33.534461      1584.6944      300.61863      9626.8722      0.89495305     0.71456835   
    386700  -4113.5001     -4145.9189      32.4188       -903.9127       290.61733      9625.5667      0.89507442     0.71456835   
    386800  -4112.7336     -4146.2056      33.472009     -1230.6974      300.05878      9626.081       0.8950266      0.71456835   
    386900  -4113.413      -4146.4453      33.032317      1146.6244      296.11718      9625.8074      0.89505204     0.71456835   
    387000  -4113.9358     -4146.3125      32.376689     -1672.4285      290.23982      9623.3347      0.89528202     0.66776483   
    387100  -4114.3393     -4146.3855      32.046175      1360.9844      287.27694      9619.7683      0.89561394     0.66776483   
    387200  -4114.1297     -4147.0253      32.89565       94.664947      294.89203      9614.7801      0.89607859     0.66776483   
    387300  -4113.7854     -4147.0935      33.308111      2091.3503      298.58953      9607.9306      0.89671741     0.66776483   
    387400  -4112.8242     -4145.7439      32.919731     -841.30361      295.10791      9603.8679      0.89709674     0.66776483   
    387500  -4112.6809     -4146.136       33.455021      1042.6651      299.9065       9601.0104      0.89736374     0.66776483   
    387600  -4113.7421     -4147.281       33.538884     -1436.8769      300.65828      9600.8137      0.89738212     0.66776483   
    387700  -4113.3031     -4147.6563      34.3532       -428.45373      307.95819      9604.1929      0.89706638     0.66776483   
    387800  -4112.628      -4145.4869      32.858939      1118.0169      294.56293      9612.7513      0.89626771     0.66776483   
    387900  -4111.3417     -4145.5728      34.23104      -1937.5727      306.86309      9624.0026      0.89521989     0.66776483   
    388000  -4110.2024     -4143.6172      33.414817      565.53937      299.54609      9631.7115      0.89450339     0.99975716   
    388100  -4111.1397     -4145.1353      33.995572     -477.66142      304.75225      9639.1414      0.89381391     0.99975716   
    388200  -4111.235      -4144.6056      33.370558      2095.542       299.14933      9645.4146      0.89323258     0.99975716   
    388300  -4112.0557     -4146.0585      34.00271      -218.16293      304.81624      9650.9858      0.89271695     0.99975716   
    388400  -4112.5047     -4146.1002      33.595507     -1543.2027      301.16587      9653.5657      0.89247838     0.99975716   
    388500  -4112.774      -4145.6926      32.918566      128.15362      295.09746      9657.4831      0.89211635     0.99975716   
    388600  -4112.2034     -4146.2001      33.996697     -1698.7289      304.76233      9660.0578      0.89187857     0.99975716   
    388700  -4112.5899     -4146.0391      33.449241     -1359.6361      299.85468      9660.6628      0.89182272     0.99975716   
    388800  -4113.1403     -4144.9709      31.830641     -239.20836      285.34479      9656.732       0.89218574     0.99975716   
    388900  -4112.5923     -4144.8917      32.299428      150.89341      289.54722      9646.5307      0.89312923     0.99975716   
    389000  -4113.4165     -4146.6141      33.197571     -1556.6898      297.59859      9633.3889      0.89434763     0.70326564   
    389100  -4113.717      -4147.1434      33.426361      298.18545      299.64958      9619.3839      0.89564973     0.70326564   
    389200  -4114.2696     -4145.8936      31.623985      3635.2576      283.49223      9604.2377      0.8970622      0.70326564   
    389300  -4114.2134     -4146.8499      32.636562     -552.96355      292.56945      9589.6642      0.89842547     0.70326564   
    389400  -4113.9113     -4145.9224      32.011101      881.67126      286.96252      9579.3556      0.89939229     0.70326564   
    389500  -4112.6884     -4146.0556      33.367206      2828.2999      299.11929      9576.8585      0.8996268      0.70326564   
    389600  -4112.4138     -4146.4296      34.015828     -829.69854      304.93384      9586.5649      0.89871593     0.70326564   
    389700  -4111.1187     -4146.4231      35.304409     -877.69224      316.48528      9606.7678      0.89682594     0.70326564   
    389800  -4110.9723     -4144.8597      33.887438      3482.6922      303.78288      9634.4675      0.89424751     0.70326564   
    389900  -4112.4732     -4145.3863      32.913067      3431.8605      295.04817      9662.1502      0.89168544     0.70326564   
    390000  -4112.0181     -4145.353       33.334937     -2720.9812      298.83         9684.5239      0.88962542     0.65960458   
    390100  -4111.9956     -4145.33        33.334338     -1897.0466      298.82464      9697.3045      0.88845293     0.65960458   
    390200  -4111.5726     -4144.7129      33.140326     -778.79714      297.08542      9701.5703      0.88806227     0.65960458   
    390300  -4111.6346     -4145.1394      33.504827     -568.9724       300.35298      9695.4242      0.88862523     0.65960458   
    390400  -4109.8871     -4145.4799      35.592867     -367.9451       319.07115      9681.9363      0.88986318     0.65960458   
    390500  -4110.0823     -4144.299       34.216779      2573.5515      306.73525      9665.5217      0.8913744      0.65960458   
    390600  -4110.645      -4144.4411      33.796133     -409.88892      302.96438      9650.3782      0.89277315     0.65960458   
    390700  -4110.6418     -4144.209       33.567204     -2915.6797      300.91215      9630.8319      0.89458508     0.65960458   
    390800  -4110.5662     -4144.3107      33.74453      -1142.6683      302.50179      9612.1519      0.89632359     0.65960458   
    390900  -4110.7771     -4145.7041      34.926946      952.83173      313.10152      9598.6333      0.89758597     0.65960458   
    391000  -4111.0405     -4146.6877      35.647196      903.01818      319.55818      9597.4915      0.89769275     0.72913634   
    391100  -4111.4855     -4145.5803      34.0948        324.6105       305.64177      9607.4654      0.89676083     0.72913634   
    391200  -4111.855      -4145.2212      33.366292     -2493.948       299.11109      9625.2096      0.89510764     0.72913634   
    391300  -4112.1052     -4145.747       33.641827     -922.49674      301.58111      9646.8495      0.89309972     0.72913634   
    391400  -4112.6784     -4146.0683      33.389903      495.0242       299.32275      9667.1747      0.89122198     0.72913634   
    391500  -4112.3327     -4145.3984      33.065642     -547.15971      296.41592      9684.2206      0.88965327     0.72913634   
    391600  -4112.1094     -4145.1111      33.001701     -3474.1339      295.84273      9693.9076      0.88876426     0.72913634   
    391700  -4111.7027     -4146.481       34.778302     -229.67056      311.76901      9692.7354      0.88887174     0.72913634   
    391800  -4111.1982     -4146.3859      35.187662     -347.32202      315.4387       9679.9062      0.8900498      0.72913634   
    391900  -4111.9223     -4145.2472      33.324925      664.53801      298.74026      9662.9466      0.89161194     0.72913634   
    392000  -4112.0716     -4144.7064      32.634837     -724.18363      292.55398      9644.3971      0.89332682     0.77063157   
    392100  -4112.0363     -4146.1788      34.142491     -1067.1867      306.0693       9627.6821      0.89487776     0.77063157   
    392200  -4112.3121     -4146.4899      34.177762      1306.3764      306.38549      9613.5892      0.89618959     0.77063157   
    392300  -4113.3147     -4146.3534      33.038733      253.43434      296.17469      9602.5953      0.89721563     0.77063157   
    392400  -4111.5135     -4145.5873      34.073887     -89.125052      305.4543       9594.6716      0.89795659     0.77063157   
    392500  -4112.9111     -4146.5063      33.595103     -589.85997      301.16226      9594.2116      0.89799964     0.77063157   
    392600  -4112.8961     -4146.5148      33.618707      1795.8219      301.37385      9598.7936      0.89757098     0.77063157   
    392700  -4114.029      -4146.8972      32.868235      516.41648      294.64627      9607.6826      0.89674055     0.77063157   
    392800  -4114.1847     -4146.0761      31.891371     -2096.4565      285.8892       9617.6828      0.89580814     0.77063157   
    392900  -4115.2277     -4148.9481      33.720418     -1196.8296      302.28564      9627.0652      0.89493511     0.77063157   
    393000  -4115.4576     -4148.6825      33.224932      837.39488      297.84387      9631.2125      0.89454973     0.70002605   
    393100  -4115.3968     -4146.6879      31.29108       392.27646      280.50791      9630.9752      0.89457178     0.70002605   
    393200  -4113.7698     -4147.1012      33.331323     -1830.8177      298.7976       9622.5989      0.89535048     0.70002605   
    393300  -4114.5882     -4147.4206      32.832386      1329.1582      294.32491      9610.5979      0.89646853     0.70002605   
    393400  -4115.2199     -4147.0149      31.795032     -2298.8732      285.02557      9601.9966      0.89727157     0.70002605   
    393500  -4114.0771     -4147.8432      33.766037     -834.44103      302.69459      9590.8636      0.89831312     0.70002605   
    393600  -4112.4666     -4146.6436      34.177023      3025.9798      306.37886      9577.4333      0.89957281     0.70002605   
    393700  -4112.7597     -4145.9851      33.225351      2008.018       297.84762      9572.126       0.90007159     0.70002605   
    393800  -4114.2096     -4147.0999      32.890292     -1858.7936      294.844        9578.9582      0.89942961     0.70002605   
    393900  -4114.5153     -4147.1801      32.664818     -1935.1403      292.82274      9590.157       0.89837931     0.70002605   
    394000  -4113.6742     -4145.7881      32.113927     -332.18729      287.8843       9601.8289      0.89728724     0.67860239   
    394100  -4113.5484     -4145.7474      32.19894       1381.9436      288.6464       9613.0395      0.89624084     0.67860239   
    394200  -4113.6299     -4146.3979      32.768011      2971.7756      293.74782      9620.2429      0.89556976     0.67860239   
    394300  -4113.1248     -4146.9425      33.817655      711.91186      303.15732      9623.1659      0.89529773     0.67860239   
    394400  -4114.3709     -4146.8906      32.51971      -1730.7874      291.52193      9621.7528      0.89542922     0.67860239   
    394500  -4113.793      -4147.1625      33.369488      604.84701      299.13973      9616.3211      0.89593499     0.67860239   
    394600  -4113.7925     -4146.5074      32.714913      845.71545      293.27182      9610.725       0.89645667     0.67860239   
    394700  -4113.1893     -4146.7889      33.599585     -1863.3134      301.20243      9602.5941      0.89721574     0.67860239   
    394800  -4111.8832     -4145.8151      33.931917     -1524.1646      304.18161      9595.9333      0.89783853     0.67860239   
    394900  -4109.8569     -4144.8268      34.969883      376.10037      313.48643      9597.5446      0.89768779     0.67860239   
    395000  -4110.6065     -4145.9474      35.340842      1681.1455      316.81188      9608.8062      0.89663569     0.69559219   
    395100  -4112.8379     -4146.5527      33.714843      1107.4271      302.23566      9625.8456      0.8950485      0.69559219   
    395200  -4112.2326     -4146.5293      34.296692      179.60871      307.45162      9640.1303      0.89372221     0.69559219   
    395300  -4109.8092     -4145.1825      35.373336     -2061.5082      317.10317      9649.9697      0.89281095     0.69559219   
    395400  -4110.8795     -4145.1154      34.235858     -1107.5668      306.90628      9659.4525      0.89193446     0.69559219   
    395500  -4109.9411     -4143.9576      34.016547     -2123.2824      304.94028      9664.7114      0.89144913     0.69559219   
    395600  -4109.5571     -4144.8374      35.280322     -660.60301      316.26935      9665.6406      0.89136343     0.69559219   
    395700  -4109.7554     -4143.349       33.593665      1127.3647      301.14936      9660.9345      0.89179764     0.69559219   
    395800  -4110.0953     -4144.7342      34.638881     -1304.2314      310.51917      9650.1594      0.89279339     0.69559219   
    395900  -4110.9296     -4144.4731      33.543497      488.83072      300.69964      9636.3928      0.89406885     0.69559219   
    396000  -4110.7288     -4145.092       34.363197      1623.8067      308.04782      9625.4062      0.89508935     0.78310424   
    396100  -4111.4143     -4146.3639      34.949621      502.40551      313.30479      9621.1147      0.8954886      0.78310424   
    396200  -4110.5144     -4145.846       35.331622     -39.194432      316.72923      9618.524       0.8957298      0.78310424   
    396300  -4110.9791     -4145.2288      34.249694      2040.6802      307.03032      9615.735       0.8959896      0.78310424   
    396400  -4112.637      -4146.184       33.547006      956.09372      300.7311       9619.5701      0.8956324      0.78310424   
    396500  -4112.6843     -4146.3479      33.66366       1282.4356      301.77683      9626.3811      0.89499871     0.78310424   
    396600  -4113.0457     -4147.3943      34.348609     -996.34961      307.91704      9635.7715      0.89412649     0.78310424   
    396700  -4113.9573     -4146.8058      32.848518     -1621.5538      294.46952      9641.933       0.89355511     0.78310424   
    396800  -4113.3809     -4147.3709      33.990033      224.29857      304.7026       9644.3856      0.89332789     0.78310424   
    396900  -4112.7079     -4146.3839      33.675988      2864.0265      301.88735      9643.8341      0.89337898     0.78310424   
    397000  -4112.7545     -4146.8699      34.115379     -2095.2948      305.82625      9642.619       0.89349155     0.73407948   
    397100  -4112.5432     -4145.5828      33.039627     -79.668688      296.18271      9638.8127      0.89384439     0.73407948   
    397200  -4113.5281     -4145.9629      32.434726     -135.97869      290.76009      9631.9035      0.89448556     0.73407948   
    397300  -4112.0667     -4146.4146      34.347902     -1140.7232      307.9107       9620.9164      0.89550707     0.73407948   
    397400  -4111.904      -4146.0648      34.160795     -688.26137      306.23339      9609.4377      0.89657676     0.73407948   
    397500  -4111.4953     -4145.2291      33.733846      2425.4451      302.40602      9597.4083      0.89770054     0.73407948   
    397600  -4111.8577     -4145.0043      33.146528      1900.8446      297.14102      9589.6616      0.89842571     0.73407948   
    397700  -4111.7703     -4144.8496      33.079288     -471.75718      296.53825      9586.2081      0.89874938     0.73407948   
    397800  -4111.8074     -4146.4929      34.685483      597.412        310.93693      9590.7419      0.89832452     0.73407948   
    397900  -4111.1559     -4146.0342      34.878316      1285.2023      312.66558      9599.7765      0.89747908     0.73407948   
    398000  -4110.4361     -4143.9857      33.549643      2467.1533      300.75474      9614.1382      0.89613842     0.67296749   
    398100  -4110.2645     -4143.9056      33.641017     -2877.9388      301.57385      9631.4022      0.89453212     0.67296749   
    398200  -4109.2795     -4143.2001      33.92061      -1222.3614      304.08025      9648.8051      0.89291871     0.67296749   
    398300  -4110.6234     -4145.6475      35.024145      765.67829      313.97286      9664.7367      0.89144679     0.67296749   
    398400  -4112.9178     -4145.7562      32.838442      2082.6215      294.37919      9674.7486      0.89052429     0.67296749   
    398500  -4112.7079     -4145.9523      33.244392      1234.4206      298.01832      9674.994       0.8905017      0.67296749   
    398600  -4111.3105     -4145.7612      34.450673      705.48725      308.83199      9662.032       0.89169635     0.67296749   
    398700  -4110.2025     -4146.6558      36.453327      2413.9907      326.78471      9647.3857      0.89305008     0.67296749   
    398800  -4112.5277     -4145.711       33.183302      1887.3246      297.47068      9633.8607      0.89430383     0.67296749   
    398900  -4111.2965     -4144.9471      33.650608      575.92236      301.65983      9618.766       0.89570727     0.67296749   
    399000  -4111.1488     -4145.1957      34.046925      1316.8069      305.2126       9602.4782      0.89722658     0.86487199   
    399100  -4111.2844     -4145.4046      34.120155      2330.9842      305.86907      9589.404       0.89844985     0.86487199   
    399200  -4111.6158     -4145.5812      33.965392      570.26959      304.4817       9583.2251      0.89902913     0.86487199   
    399300  -4111.4245     -4145.3828      33.95832      -116.64931      304.4183       9586.6573      0.89870727     0.86487199   
    399400  -4111.2687     -4145.4495      34.180866      2079.3212      306.41331      9597.4306      0.89769845     0.86487199   
    399500  -4110.6758     -4145.4206      34.744765     -441.46328      311.46836      9615.0602      0.89605248     0.86487199   
    399600  -4110.224      -4144.0679      33.84393       2398.334       303.39286      9642.3288      0.89351844     0.86487199   
    399700  -4111.0468     -4145.0328      33.986038      736.63875      304.66678      9675.357       0.89046828     0.86487199   
    399800  -4112.0729     -4146.8765      34.803678     -614.33658      311.99649      9703.9275      0.88784655     0.86487199   
    399900  -4111.0127     -4145.2304      34.217685     -2798.0342      306.74337      9719.496       0.88642442     0.86487199   
    400000  -4111.4002     -4146.108       34.707753     -2171.1365      311.13657      9722.6548      0.88613642     0.65126617   
    400100  -4111.0528     -4143.7901      32.737349     -5013.106       293.47294      9711.2114      0.88718063     0.65126617   
    400191  -4109.9895     -4144.4212      34.431769      1029.1783      308.66252      9690.876       0.88904229     0.65126617   
Loop time of 499.952 on 2 procs for 200000 steps with 864 atoms

Performance: 17.282 ns/day, 1.389 hours/ns, 400.039 timesteps/s, 345.634 katom-step/s
99.7% CPU use with 2 MPI tasks x 1 OpenMP threads

MPI task timing breakdown:
Section |  min time  |  avg time  |  max time  |%varavg| %total
---------------------------------------------------------------
Pair    | 260.04     | 260.71     | 261.37     |   4.1 | 52.15
Neigh   | 7.4645     | 7.5212     | 7.5779     |   2.1 |  1.50
Comm    | 38.747     | 40.696     | 42.645     |  30.5 |  8.14
Output  | 0.29334    | 0.29678    | 0.30022    |   0.6 |  0.06
Modify  | 187.44     | 188.73     | 190.01     |   9.4 | 37.75
Other   |            | 2.005      |            |       |  0.40

Nlocal:            432 ave         435 max         429 min
Histogram: 1 0 0 0 0 0 0 0 0 1
Nghost:         2169.5 ave        2177 max        2162 min
Histogram: 1 0 0 0 0 0 0 0 0 1
Neighs:              0 ave           0 max           0 min
Histogram: 2 0 0 0 0 0 0 0 0 0
FullNghs:        44134 ave       44547 max       43721 min
Histogram: 1 0 0 0 0 0 0 0 0 1

Total # of neighbors = 88268
Ave neighs/atom = 102.16204
Neighbor list builds = 19944
Dangerous builds = 19666

unfix		3
unfix		4
Total wall time: 0:16:43
