../full/ih/0_bar/1-bulk/300/water.dat (written by ASE) 

864 	 atoms 
2  atom types
0.0              18.2075724  xlo xhi
0.0      23.629177800000001  ylo yhi
0.0      22.213195800000001  zlo zhi


Atoms 

     1   1      2.9698533064734782      1.7812326236130538      3.8427732543854836
     2   2      3.0127380926505465      1.7344073212990101      2.8515686281333892
     3   1      5.2413421486131213      3.9525659566050644      2.2807755962221745
     4   1      2.1856633834442523       2.205575420010919      2.5689683611668346
     5   1      4.4692753609849145      2.6004225359525805      2.2708565860621359
     6   2      5.2978688202433917      3.0266694195596533      1.9259551508702557
     7   2     0.71233504991920571      3.0410806772670433      1.9716510394531495
     8   1     0.67818519770921648      3.9734399784534253      2.3120790516911054
     9   1     0.67100594152454307      5.7016527075027383      3.8823048612737838
    10   1      18.098719398364448      2.6336712840869616       2.353124830206867
    11   2      5.2385741218632536      5.6500885145085533      2.8703196744655934
    12   1      5.2116900639477457      5.6940072662664356      3.8619284974491901
    13   1      0.6339380384611415      3.0314565185023339     0.18037361594971504
    14   2      5.2511734844350046        5.74986589285378      5.6563432059453209
    15   2     0.69137662078496043      5.6717134913975089        2.88953165291991
    16   1      5.2603209300617042      3.0695991952233221     0.14049519630663462
    17   1       2.952230491342966    0.016186148585069449      2.3316108944614347
    18   1      6.7093834368599286      2.1729793986197183      2.6174446970292102
    19   2      7.4678050685801018       1.662980228341719      3.0071497248312773
    20   1      7.4497586528310933      1.7471230942335518      4.7950938594810797
    21   1      8.2616680626985648       2.153984443762345      2.6676030608645962
    22   1      7.4277245195884509    0.011458381722784886      2.3326263343120996
    23   1      12.040492972188183      1.7286442585872521      3.8661935425495964
    24   1      11.253042904840418      2.2003545280853949      2.6156214302451968
    25   1      9.7576895805021291      3.0465952286241613      1.1027793600305327
    26   1      9.7088491601393567      3.9581366399233198      2.3576913896419591
    27   2      9.7347563946209021      3.0010483060313491      2.0950175433857403
    28   2      9.6495268689295006      5.6740785832774767      2.8800966809669384
    29   1       9.693692099065137      5.6755089913409069      3.8726094392138561
    30   1      10.490690683968452      6.1337177543833228      2.6219767983286881
    31   1      15.819571747283867       2.256438966891809      2.6319190398514358
    32   1      13.548441992953713      2.6062385147436236      2.2969202613043813
    33   2      12.091147528793101       1.734741456608095      2.8742446638722372
    34   1      14.304566247141125      3.9622389500815185      2.3423907145464389
    35   2      14.367110970783935       3.050557083397075       1.952161115290814
    36   2      16.633012093054418      1.8321213414544468      3.0127411231279879
    37   1      16.562764294109567      1.8270615439666547      4.8034061244361839
    38   2      14.264718354524506      5.6059529381827282      3.0348598476997228
    39   1      16.571309522018687     0.90122301951397432      2.6716547722315109
    40   1       14.26541248386415      5.7040622862798855       4.810341585644883
    41   1      15.046307877640986       6.113099272199519      2.6889287962692481
    42   1      14.318203205491495      3.0563567912203142     0.15921132082253886
    43   1      18.057426927583432      6.1330309970131207      2.6365097991998581
    44   1      13.486831343537581      6.1126758241505819       2.681419552129793
    45   1      12.016160234146087     0.04556184386769549      2.2750631224391138
    46   1       4.419022715943659      6.1435520206416765      2.6041238304809493
    47   1      2.9553941830174297      8.7614366933123993      2.6074821519521838
    48   2      2.9502314404648011      9.7128945360091734      2.8912128704577298
    49   1      2.9418010410131838       9.642046134057523      3.8818629386629273
    50   1      1.4294280494696665      10.487667024121476      2.3350162088514561
    51   1      5.9651285520782249       10.59630902203061      2.2779963044698617
    52   2      5.1789822842147322      11.098197107172357      1.9353316212808391
    53   1      4.4089691275488283      10.585514117846527      2.2959216922330725
    54   2      2.9691626879193249      7.0519019560245892      2.0620958020454214
    55   2     0.58925451264093975      10.900218774025921      2.0039203853328154
    56   1      2.9071807224877313      7.0203944621312635      1.0713887346531428
    57   1     0.66522294682303862      10.959807684068817     0.21606862245992031
    58   1       2.148709647974409      6.5695746798136314      2.3446073936165854
    59   1      7.4162836806552077      9.7015202247192551      3.8464233937819725
    60   1       7.438128684389568      8.8061170977910148      2.5754123006391634
    61   2      7.4408284377482419      9.7584495113129606      2.8551786681543874
    62   2       7.437785284187691      7.1087191838529504      1.9697070286219895
    63   2       7.369191249282542       9.696750956406234      5.6421019549062779
    64   1      8.2158848105709943      6.5915756900899902      2.3060656769765453
    65   1      8.1889200229632433      10.138743590890829      5.9874341887314602
    66   1      6.6648366913710069       6.582451298178051      2.3028494027500099
    67   2      12.073856206597153      9.6189833388433943      2.8993084809256544
    68   1      12.021413086575276      9.6549778390049035      3.8905345994136655
    69   1      12.023398008053045      7.9044919930098141      2.3670395806464257
    70   1      11.256643503896154      10.110775433131479      2.6222787957283105
    71   2      12.009577790842497      6.9477638730142486      2.1022982404315016
    72   1      9.7825997548982766      10.988846606899919      1.0909531842001001
    73   2      9.8098176187648782      11.021565141993722      2.0832008395312904
    74   1      8.9682572944086552        10.5625625092032      2.3410118313997428
    75   1      16.519912095523157      7.8956149248615572      2.3759247295265795
    76   2      16.481411629959865      9.6086453078680716      2.8866399007864176
    77   1      15.056391947155966      10.523043194067093      2.3049490538785484
    78   2      14.279897277453381      11.040186849119753       1.963773208126002
    79   1      13.504716108834788      10.527110727744057      2.3130097936246949
    80   1       16.52305616610553      9.6454438054192728      3.8783366120319145
    81   1      12.031224040896829      6.9927745140607671      1.1102176387155824
    82   2      16.530789867664623      6.9366182077703824       2.117635799003649
    83   1      16.509838266385021      6.9769932623321473      1.1250244252000039
    84   1      17.315527236818738      10.069781604755855      2.6085549463914988
    85   2      16.505799680097621      9.6550211725065704      5.6729032535541863
    86   1     0.66050675029726702      11.835513383969337      2.3314340728233911
    87   1      4.4648157662489174      14.102987808170798      2.6799564442222676
    88   2      5.2839980757643428       13.65886981994092      3.0250535144100557
    89   1      2.9366667872087082      16.671360289125925      2.6178246200116266
    90   1      2.9876233196402624      14.910575812086281      1.0995450340922588
    91   2      3.0096221034361408        14.9583987492299      2.0914551657263445
    92   1      2.1973351125229827      14.451492749716797       2.355019819125618
    93   2     0.75068281362166922       13.53285630901977       2.882820990006346
    94   1      5.1863429440707538      13.575952690464639      4.8122041407539937
    95   1      5.2261013300920443      12.750271013140322      2.6278332387160326
    96   1     0.68093757212375727      13.537278398657676      3.8735284144149351
    97   2      2.9204931373037302      17.629101480107732       2.880297195265566
    98   1      2.9003299414428119      17.585501999496664       3.872174217981974
    99   1      18.133605885101645      14.006817309866721      2.5971447201826856
   100   1      7.5181432645315844      16.666676350059841      2.6204097969191116
   101   2      7.4883085779139211      14.995366518320267      1.9802804858069252
   102   1      6.7099486016541441      14.508480971841609      2.3597162829530962
   103   1      7.4870416452810007      14.885692048134695     0.19168480173100155
   104   1      8.2607450717510797       14.49691233699019      2.3563958983102471
   105   1      10.508727667699256      14.072049701766497      2.6903647573495415
   106   1      11.983937769923344      14.906529367498848      1.1170958191696994
   107   1      9.7214758806118606      13.649676679817819      4.8177209695322833
   108   2      9.6806138803946364      13.641774903549921      3.0307575382354743
   109   1      9.7481228335041497      12.716032312083865      2.6783963004660993
   110   1      15.830252117772254      14.441842048177358      2.3187769036678647
   111   1      16.627649457284807       15.77172365193352      2.3451599625434003
   112   2      16.670747044401462       14.84905375208816      1.9811222121576553
   113   2      11.962678717479942      14.946707777267227      2.1094947575978114
   114   1       12.80416121882768      14.486642642410256      2.3673030283716674
   115   1      14.311731982374651      13.579462809322303      3.8742544191010793
   116   2       14.31319110998785      13.669772877838767      2.8850629711721392
   117   1      11.988789597909527      16.651886057871231      2.6691495850418119
   118   2      11.959055590012694      17.586090722641075      3.0047356066927855
   119   1      14.298888866785079      12.724945750328992       2.579253717129022
   120   2      14.300944006732021      13.468010380556768       5.660327846149225
   121   2      16.586509654729618      17.437306762010266      3.0106623781420083
   122   1      16.533005990147483       17.48156583827647       4.798795307270411
   123   1      16.622786678376343      14.832271750203525     0.18334181454290566
   124   1      5.9565483172185925      21.878882424249543      2.6271345855777914
   125   1      1.4032383684127656      21.914162838028691      2.6452292825502948
   126   1      4.4021656651727756      21.860507093259081      2.6623185386066059
   127   2       5.193466855878512      21.372272491121159      3.0115491443399471
   128   2      2.9259146953910116      22.687556195506605      2.0711912477364183
   129   1      5.2274302152098739      19.722504144640986      2.3297544406454076
   130   1      5.2135933130610272      21.400010975592824      4.8039019352257428
   131   1      2.9526117752687169      22.729160566915013      1.0791749667211299
   132   1     0.62129598948665454      18.879678304669127      1.0852595756827501
   133   2      5.2708548032128544      18.804172817615836      1.9531315395218856
   134   2     0.57019414509907962      18.889833298322795      2.0768897384669618
   135   1     0.60678147624832146      21.519718036646559       4.788405802072786
   136   1     0.59347243865722044      20.587339396782067      2.6520442327078277
   137   2     0.56115991821099109      21.519760387369622      2.9926382626029726
   138   1      5.2035605530067102      18.859141208865609     0.16214153418801766
   139   1       1.410651290635506      18.433026148622421      2.3440767100454796
   140   2       5.250128179841175      21.389117712174851      5.7964382349935253
   141   1      4.4355146691284117      18.390889161040747        2.29566558910581
   142   2      7.5550120640728631       17.58911570399399      2.9873079198055414
   143   1      7.4603154156854252       17.52040841667834      4.7790825778111232
   144   2      7.3876152656185337       22.72322796522516      1.9530434317164649
   145   1       8.207993514215671      22.301529450770968      2.3213151991500194
   146   1       6.732816027295919      18.004112539581715      2.6153464488052793
   147   1      7.4886542046253126      22.795194336457861     0.16115946195032096
   148   1      12.012024951482411      17.577634345057938      4.7959751772115773
   149   1      10.485339895445357      21.945744406042753      2.6032179297825961
   150   2      11.938177473562272      22.749655013318012      1.9224689370195589
   151   2      9.7601012184559846      18.933374979190617      1.9423105282046504
   152   2      9.6760786137223569      21.512560278064921      2.9816425804330873
   153   1      9.7254959215676493      20.593993852588742      2.6062781359155731
   154   1      9.6983655890904075      21.443857249703125      4.7806232184750517
   155   1      10.536024154350537      18.444777374353098      2.3234313491035237
   156   1      8.9849608240446379      18.438149398818144       2.317638409900955
   157   1      9.7633689156079146      18.832037973097961     0.14853902860769613
   158   1      17.350715026284636      17.968435100111048      2.6648859092903958
   159   1      15.797198529668123      17.929174060857914      2.6620759771258444
   160   1      12.801748929889179      17.976566279469996       2.653611082741854
   161   1      14.233992852357245      21.469301301381684      3.8472002071157552
   162   1      15.029762274652981      21.934696950704183      2.5990388222521323
   163   2      14.211565119001319      21.433024144319603      2.8546425176826071
   164   1      12.757075089782973      22.307631022496253      2.2700451881410864
   165   1      14.293004009649389      19.714226513064936      2.3283667152186029
   166   2      16.486478280918277      22.840682400394499      2.0889803550961279
   167   1      16.528768787281003      22.790515418983652      1.0980742721401198
   168   1      17.308879882898534      22.362267014451479      2.3736515780953304
   169   2      14.317314331339029       18.75475637297188       2.074020543420839
   170   1       14.34331370515596      18.789943395145002      1.0819221398617795
   171   1     0.62971106307490399      3.0664776847752173      7.6017102282756985
   172   1      5.2148226072535184      4.8302283678042714      6.0302893693573223
   173   2     0.52385045832399091      3.0198994919328475      9.3886617995225041
   174   1      4.4120648543803966      2.6709855996299279      6.3036217131353807
   175   2     0.55256462632565151      5.6568652527700776      10.290675856105789
   176   2      2.9806050148067071      1.8210580813082797       5.635862944724316
   177   1      2.1543379843181323      2.2338927721438449      5.9988175954107703
   178   1      2.9460852387138501     0.89412051022792582      5.9905190447080781
   179   2      5.1792191066948625      3.1691368788844541      6.6903679740966009
   180   2     0.71460307872117446      5.7298888030458643      5.6723601513078332
   181   2      5.0804449653451487      3.0956192223740677      9.4701710986504111
   182   1       5.114767121084971      4.7854295244632121      10.068493969632275
   183   2        2.80248773616976      1.7944015452350792      10.415713546573016
   184   1      1.3433659192133058      2.6070976356644127      9.7692228755261823
   185   1       5.966347730280078      2.6661213479302837       6.352518583456102
   186   1      3.6218540243081683      2.2288124735288766      10.060827598348641
   187   1     0.56330848880663709      3.9512304311859134      9.7309404071605545
   188   2      0.6891613427518346      3.0993439515601016      6.6111665101502632
   189   1     0.66566654716437423      4.8038203863505542      6.0272437099438152
   190   1      5.1310251872782651       3.104994947500038      8.4782747533389653
   191   2      5.0938571636511085      5.7132191440655493      10.421811629622511
   192   1      2.8532567825558552     0.87780394085275326      10.036378543968354
   193   1      18.055746645232244      2.6509856929602749      6.3316566633313602
   194   1      4.4358785232686015      6.1708083386972241      6.0370481822491495
   195   1      5.9211628962001974      2.6348151236093647      9.7296597539684555
   196   2      7.4431127524599514      1.8254687916085537      5.7852210022413608
   197   2      7.4277122817771479      1.8267594310787487      10.262135539439337
   198   1       7.399993749154528     0.86874128668219108      10.002861118771065
   199   1      7.4463745294230668     0.87801785090973761      6.0819931576976787
   200   1      8.9479079689591661      2.6187805648482647      6.3511615964328518
   201   1      8.9443173806417917       2.634727078584755      9.7307349645958254
   202   2      9.7845783538598265      3.0953872326234562      9.4709160156629881
   203   2      9.7208966580618767      5.7590324089414944      10.280040975367321
   204   1      9.7440387127357191      3.9515726955630863      6.3198030065602495
   205   2      9.7862117801673705       3.030623712232432      6.6887605210259009
   206   1      9.7411928599781294      4.8056908678437589      10.002329230909515
   207   2      12.051205699917311      1.6857925562304257      10.262686058335369
   208   1      9.7569387477768217      3.0640345716671855      8.4781649328379594
   209   2      9.7239119342965967      5.6236414643614712      5.6618147043863054
   210   1      11.215509140430008      2.1743745378828203        6.02094134450555
   211   1      11.230718917513235      2.1818099496982137      10.003181080018075
   212   1      8.9509275423498238      6.1462718112866366      6.0021314471205036
   213   1      11.990823714445826      23.606451186187833      9.7270767662173601
   214   1      11.972416626857299    0.010801898363283931      6.3114045849698721
   215   2      16.454382661835428      1.7026331753952599        10.3018834508929
   216   2      16.540642127657257      1.8686217349718348      5.7957493229213428
   217   1      14.243314206120086      4.8225873657294818      6.0837563794392846
   218   1      13.476394714853773      2.6043375034729541       9.702649961534652
   219   2      14.184172069409364      3.1138167664026479      6.5977014864867822
   220   1      17.274260804648918      2.1772380394867685      10.002596922998601
   221   1      16.525400590487056     0.91106638083189284      6.0581883005945496
   222   2      14.184364083356243      5.7194946586391691      10.401927086016839
   223   1      14.221876221366411      4.7982292878256363      10.032923357015751
   224   2      11.993390080263612      1.6774927054912263      5.6552326240169046
   225   1      14.229607304597211      3.0995157760685719      7.5902198155738789
   226   2      14.252739217729312      3.1309226301826172       9.375018906534951
   227   1      12.766172216339315       2.193782430262512      6.0056987537368425
   228   1       15.02976132060248      2.6657341052936148        6.33142352328609
   229   1      15.027973830630138      2.6133858813417814      9.7178177865241633
   230   1      15.004433887795722      6.1381832465389259      10.029574496395956
   231   1      16.531693257227783    0.010916907151476363      9.7211641506298498
   232   1      5.9124813405826506      6.1183385084870157      10.032639920805792
   233   1      1.3709720356188477      6.1519911035036978      10.025487543594597
   234   1      5.1242179485464954      11.830297351508763      6.3771001762070965
   235   2      5.0968201503566144      10.898884948249881      6.7209587222774481
   236   2     0.54689531267065139      10.912854966723035      9.3752234911041388
   237   1      3.6466416446905177      6.5692365614607215      9.7980464754996888
   238   1      2.1701881202225515       6.533428843502902      6.3408581129167931
   239   1      2.9060079676737725      7.0106312747304074      8.5060284858294608
   240   1      5.9166967405680273      10.494236571394369      6.3332659114638412
   241   1     0.64444516714817401      11.797414066957083      6.3022034640232087
   242   1      1.3619680797124991      10.488342612843571      9.7526370878489583
   243   2      5.1108982840425927      10.947231987493206      9.5034420695890525
   244   1     0.61560747533309246       10.90805981007815      7.5793610185333087
   245   2     0.64246829351859347      10.846627398935048       6.588553818374737
   246   2      2.9154355100436433      9.5319320348492038      5.6672582152966138
   247   2      2.8334109517242774      7.0523963593261074      9.4957255755180476
   248   1      2.1215877627060977      10.018415483089324      6.0137025860209405
   249   2      2.8077850701258349      9.6775444667580928      10.428464663827928
   250   1       3.638476396016483      10.095631825237183      10.079743139699998
   251   2      2.9845761912505009      6.9607359577050607      6.7156387850658188
   252   1       2.853969183626893      8.7499047888366928      10.076092148946827
   253   1      2.9414937004246742      7.8789996457332787      6.3378891239972388
   254   1      5.1336483000884812      10.916618479734959      8.5107256472341408
   255   1      3.6760269145359494      10.042455016386102      6.0518023978258784
   256   1     0.61201194749754029      11.844060773816715      9.7137985084840324
   257   1      8.2038385805854279      6.5297514950513778      9.6982712096191754
   258   1      7.4506280424155884      8.7709820386779498      5.9914678446703018
   259   1      6.7064807598009581       6.595897488312211      6.2703239308396173
   260   1      5.9368640925699392      10.460018009365623      9.7587528904567105
   261   1      7.4555625772469121      7.0131750661109038      7.5628299158032757
   262   2      7.4137450396335698      9.5674566638586729      10.273258432816988
   263   2       7.365194845753849      6.9329469226516558      9.3522047749887616
   264   2      7.5255209322371126      7.0691562726581347      6.5739253992669955
   265   1      7.4080201575512428      7.8634243785462345      9.6964662760193416
   266   1      8.2278100490996611      10.047580285363587      9.9697288448356947
   267   1       9.737328584616197      11.834251099171262      9.7125686669855824
   268   2      9.6867315456318206      10.906661267551533      9.3626590179828231
   269   1       10.50400062494384      10.486896155857028      9.7390740207979878
   270   2       9.645028598021602      11.011338761450409      6.5746925543172408
   271   1      11.204010010422216      6.5978954500649971      9.7103266505874881
   272   1      11.993145424424812      8.7548923548309396      10.035707116482719
   273   2      11.957813587198922      9.6746596735714174      10.409204516494352
   274   2      11.931933035778407      9.6933468326775287      5.6784618349180604
   275   1      11.957494040381286      8.7602569524171425      6.0182897371671622
   276   1      9.6937592563218047      10.956666279838231      7.5648705415478643
   277   2      11.929112594042682      7.0602824612708144      6.5835360525523292
   278   1      11.973247685925308      7.0543417767172114      7.5756830700231124
   279   1      10.468161238388149      10.538041931491305      6.2838793078391761
   280   2      11.993270682746665      7.0936891078350008      9.3673036508052228
   281   1      10.501806847643545       6.140336506754366      5.9993657565098628
   282   2      14.269491351517342      5.7747979644984326      5.8018325521701097
   283   1      12.768553778373793      6.5970970050249784      6.3235913500431975
   284   1      15.789947851482639      6.5660215428728756      6.3223188202474283
   285   2      16.468814215542587      6.9451344686690843      9.3762148480982148
   286   1      17.291868823995159      6.5058776485095127       9.717143079432141
   287   1      17.338139322339604      10.033746071541964      10.049614253159596
   288   1       16.56487152279481       6.997855408635183      7.5901951453975895
   289   1      17.343143284975739        10.0670969440161       6.012376885882766
   290   1      12.757503680016431      10.092346699767859      6.0590768828582515
   291   2      14.314533546098556      10.848158735664834      9.4999414428615232
   292   1      14.334132266690027      11.805196141800668      9.7639217283203283
   293   2      16.626986513550264      7.0229446440615497      6.5994490133086492
   294   1      15.045890453187168      10.463520259308895      6.3400482404790779
   295   1       15.78609232318373      10.011876516837701      10.083975997459646
   296   2      16.577670052667983      9.5208721138474726      10.429460891504718
   297   1      16.566499388635705      8.7240823101901359      6.0125957882288956
   298   1      12.796492420216275      10.082959733059225       10.06857660929999
   299   2      14.230203258639536      10.888452559376521       6.713962986258049
   300   1      14.294452809615208      10.891709876170442      8.5079731602349895
   301   1       16.53226201638449      7.8598916676820663      9.7579627045441555
   302   1      18.095645065050348      6.1527561210335273      6.0240735623881312
   303   1      12.757884288359307      6.5830460734305403      9.7425949758494639
   304   2      5.1798926046866001       13.62621182188952      10.291371961009064
   305   1      5.1428936558234426      13.583925478051791      11.283025502508121
   306   2      5.1061356918104934      13.530260298926958      5.8010923193718593
   307   2      2.9221857805601212      14.973354464120083      9.3654755412390109
   308   1      2.8523043991957682      16.637924039717245       6.004733365913224
   309   1      2.1564165908818222      14.444532166386626      9.7126280284108848
   310   1      2.8801932930062963      14.936338499928004      7.5765502867677155
   311   1      2.8780645305318107      16.633486108097479      10.043954404018876
   312   2     0.71518383117510986      13.537646459609588      10.283150370540396
   313   1      1.3984682558713164      14.014274525790089      6.0165590579549653
   314   1      5.1631370856151708      12.669050842275924      10.029829328212823
   315   2     0.63594100659793118       13.48183818339599      5.6683296913989043
   316   1      3.7100297213981319      14.473065867683582      9.7045190837908191
   317   1      3.6486734815787147      14.443830818333105      6.3216663233336456
   318   1      5.9251937208982328      14.000658136578346      6.1079084513846711
   319   2      2.8293104407595866      14.939197448267029      6.5845352827390515
   320   1      18.103855802770738      14.012128571423862      9.9811472970118995
   321   2      7.3819659619337159      14.850133217722092      6.7152385781306654
   322   2      7.3640011990436314      17.541513243678459      10.405001341657133
   323   1      7.4624821820375011      14.893654011118434      8.4984129253526657
   324   1       7.408143482189546      15.776364118329209      6.3578053504496657
   325   1      7.4419117117165623      16.611910505836647      10.064472093908464
   326   2      7.5226482208513605      14.915907939347251      9.4897813491510181
   327   1      8.2274678411442395      14.455979177183098      6.3742957845105437
   328   1      6.6938842020856946      14.444619701481209      9.7664671794867797
   329   1       9.748547850573221       13.56943087426775      11.286811303376687
   330   1      11.275738458803739      14.391951776713265      9.7104410962531968
   331   2      11.924217534314904      17.453541535896608      10.291470747773232
   332   2      9.8060271652580528      13.535312064721904      10.296021135135422
   333   2      12.117474676286866      14.939933941195932      6.5820910978672735
   334   1       11.27252076377412       14.48730414487019      6.3226082051140073
   335   2      9.7463872468605732      13.691075956890765       5.810152426542202
   336   1      9.7199003204922434      12.732776323485423      6.0690672989004169
   337   1      8.9887055835930276       14.02539063716115      10.017472371514867
   338   1      14.270588564661015      11.806563207474746      6.3375455567873802
   339   1      18.051997016431873      13.978589500155385      6.0040900828768482
   340   1      12.020101010494475      15.755137373188346      9.7180735597191603
   341   2      16.641521587264545      14.837636599655712      9.3604391244471437
   342   1      13.537023255895116      14.003524074764186      6.0009043229979691
   343   2      16.566789325345859      14.805685571932328      6.5793628710705283
   344   1      16.544032242725329      15.764149168400419      6.3208884002653836
   345   2      16.483011486480706      17.476953473241434      5.7908643246739899
   346   1       12.09195379390118      14.895370740319496      7.5736583208081942
   347   1      13.557320333977477      13.990010924926056      9.9979598039643225
   348   1      15.090455798063143      13.962920743509901      6.0041801368755667
   349   2      12.099366968795515      14.828744847710844      9.3691347350958178
   350   1       16.58568018022709      14.844989911728483      7.5716514010515823
   351   2      14.376668662262313      13.518516251667851      10.302126802621546
   352   1      15.826713489168981      14.393573700094185      9.7144962740514149
   353   2      16.457521972634542      17.459593594362953      10.274778594973807
   354   1      12.061741230873803      16.657149036921474      6.0469728729250187
   355   1      16.555989575825347      15.765902004215491      9.7030657113102485
   356   1      16.527487991200722      17.469142673904411      11.265326612214485
   357   2      2.8233670264750583      17.571246745579241      5.6668027607774656
   358   2      2.8115971728474145      17.549823848718027      10.420696516466062