LAMMPS (27 Jun 2024)
KOKKOS mode with Kokkos version 4.3.1 is enabled (src/KOKKOS/kokkos.cpp:72)
  will use up to 1 GPU(s) per node
WARNING: When using a single thread, the Kokkos Serial backend (i.e. Makefile.kokkos_mpi_only) gives better performance than the OpenMP backend (src/KOKKOS/kokkos.cpp:202)
  using 1 OpenMP thread(s) per MPI task
package kokkos
package kokkos newton on neigh half

units		metal						## E in [eV], t in [ps], P in [10000 Pa], l in [A]
atom_style	atomic						## mass x y z vx vy vz

neighbor	0.5 bin						## neighbor list, skin = 0.5 Angstrom
neigh_modify	every 2 delay 10 check yes			## update of neighbor list

############################## main variables
variable        seed equal 92418

variable	temperature equal 410
variable	tempDamp equal 0.1

variable        pressure equal 28000
variable        pressureDamp equal 1.0 				# This is 1 ps

##############################

read_data water.dat
Reading data file ...
  orthogonal box = (0 0 0) to (19.665067 19.665067 19.640133)
  1 by 1 by 1 MPI processor grid
  reading atoms ...
  1296 atoms
  read_data CPU = 0.189 seconds

mass		1 1.008    # H
mass		2 15.9994  # O


pair_style	pace/extrapolation
ACE/AL version: 2023.11.25
pair_coeff	* * /pc2/users/a/acepdw01/work/phase_diagram/pot_dir/interim_potential_ladder_step_1.yaml /pc2/users/a/acepdw01/work/phase_diagram/pot_dir/interim_potential_ladder_step_1.asi H O
Loading /pc2/users/a/acepdw01/work/phase_diagram/pot_dir/interim_potential_ladder_step_1.yaml
Total number of basis functions
	H: 23 (r=1) 664 (r>1)
	O: 23 (r=1) 664 (r>1)
Mapping LAMMPS atom type #1(H) -> ACE species type #0
Mapping LAMMPS atom type #2(O) -> ACE species type #1
Loading ASI /pc2/users/a/acepdw01/work/phase_diagram/pot_dir/interim_potential_ladder_step_1.asi
LINEAR ASI is loaded

fix pace_gamma all pair 1000 pace/extrapolation gamma 1
compute max_pace_gamma all reduce max f_pace_gamma
variable dump_skip equal "c_max_pace_gamma < 10"

dump pace_dump all custom 1000 extrapolative_structures.dump id type x y z f_pace_gamma
dump_modify pace_dump skip v_dump_skip
dump_modify pace_dump element H O

variable max_pace_gamma equal c_max_pace_gamma

timestep	0.0005						## timestep = 0.0005*ps = 0.5 fs

thermo		100
thermo_style custom step etotal pe ke press temp vol density c_max_pace_gamma


min_style cg
minimize 0.0 5.0e-4 10000 100000

CITE-CITE-CITE-CITE-CITE-CITE-CITE-CITE-CITE-CITE-CITE-CITE-CITE

Your simulation uses code contributions which should be cited:

- Type Label Framework: https://doi.org/10.1021/acs.jpcb.3c08419

@Article{Gissinger24,
 author = {Jacob R. Gissinger, Ilia Nikiforov, Yaser Afshar, Brendon Waters, Moon-ki Choi, Daniel S. Karls, Alexander Stukowski, Wonpil Im, Hendrik Heinz, Axel Kohlmeyer, and Ellad B. Tadmor},
 title = {Type Label Framework for Bonded Force Fields in LAMMPS},
 journal = {J. Phys. Chem. B},
 year =    2024,
 volume =  128,
 number =  13,
 pages =   {3282–-3297}
}

CITE-CITE-CITE-CITE-CITE-CITE-CITE-CITE-CITE-CITE-CITE-CITE-CITE

Switching to 'neigh_modify every 1 delay 0 check yes' setting during minimization
Neighbor list info ...
  update: every = 1 steps, delay = 0 steps, check = yes
  max neighbors/atom: 2000, page size: 100000
  master list distance cutoff = 6.5
  ghost atom cutoff = 6.5
  binsize = 6.5, bins = 4 4 4
  1 neighbor lists, perpetual/occasional/extra = 1 0 0
  (1) pair pace/extrapolation/kk, perpetual
      attributes: full, newton on, kokkos_device
      pair build: full/bin/kk/device
      stencil: full/bin/3d
      bin: kk/device
WARNING: Fix with atom-based arrays not compatible with sending data in Kokkos communication, switching to classic exchange/border communication (src/KOKKOS/comm_kokkos.cpp:754)
WARNING: Fix with atom-based arrays not compatible with Kokkos sorting on device, switching to classic host sorting (src/KOKKOS/atom_kokkos.cpp:216)
Per MPI rank memory allocation (min/avg/max) = 1123 | 1123 | 1123 Mbytes
   Step         TotEng         PotEng         KinEng         Press           Temp          Volume        Density     c_max_pace_gamma
         0  -6250.4972     -6250.4972      0              21939.986      0              7595.1311      1.7015372      0.62320149   
        33  -6250.6452     -6250.6452      0              22350.057      0              7595.1311      1.7015372      0.62320149   
Loop time of 0.256252 on 1 procs for 33 steps with 1296 atoms

99.1% CPU use with 1 MPI tasks x 1 OpenMP threads

Minimization stats:
  Stopping criterion = force tolerance
  Energy initial, next-to-last, final = 
     -6250.49717465847  -6250.64523648355  -6250.64523648875
  Force two-norm initial, final = 0.82052426 0.0003006328
  Force max component initial, final = 0.040662504 1.1270972e-05
  Final line search alpha, max atom move = 1 1.1270972e-05
  Iterations, force evaluations = 33 66

MPI task timing breakdown:
Section |  min time  |  avg time  |  max time  |%varavg| %total
---------------------------------------------------------------
Pair    | 0.23005    | 0.23005    | 0.23005    |   0.0 | 89.77
Neigh   | 0          | 0          | 0          |   0.0 |  0.00
Comm    | 0.0017715  | 0.0017715  | 0.0017715  |   0.0 |  0.69
Output  | 0          | 0          | 0          |   0.0 |  0.00
Modify  | 0.014291   | 0.014291   | 0.014291   |   0.0 |  5.58
Other   |            | 0.01014    |            |       |  3.96

Nlocal:           1296 ave        1296 max        1296 min
Histogram: 1 0 0 0 0 0 0 0 0 0
Nghost:           4514 ave        4514 max        4514 min
Histogram: 1 0 0 0 0 0 0 0 0 0
Neighs:              0 ave           0 max           0 min
Histogram: 1 0 0 0 0 0 0 0 0 0
FullNghs:       251424 ave      251424 max      251424 min
Histogram: 1 0 0 0 0 0 0 0 0 0

Total # of neighbors = 251424
Ave neighs/atom = 194
Neighbor list builds = 0
Dangerous builds = 0

################## equilibration of main calculation

fix             3 all nph aniso ${pressure} ${pressure} ${pressureDamp}
fix             3 all nph aniso 28000 ${pressure} ${pressureDamp}
fix             3 all nph aniso 28000 28000 ${pressureDamp}
fix             3 all nph aniso 28000 28000 1
fix             4 all temp/csvr ${temperature} ${temperature} ${tempDamp} ${seed}
fix             4 all temp/csvr 410 ${temperature} ${tempDamp} ${seed}
fix             4 all temp/csvr 410 410 ${tempDamp} ${seed}
fix             4 all temp/csvr 410 410 0.1 ${seed}
fix             4 all temp/csvr 410 410 0.1 92418
velocity 	all create ${temperature} ${seed} dist gaussian
velocity 	all create 410 ${seed} dist gaussian
velocity 	all create 410 92418 dist gaussian

run 20000
WARNING: Fix with atom-based arrays not compatible with Kokkos sorting on device, switching to classic host sorting (src/KOKKOS/atom_kokkos.cpp:216)
Per MPI rank memory allocation (min/avg/max) = 1123 | 1123 | 1123 Mbytes
   Step         TotEng         PotEng         KinEng         Press           Temp          Volume        Density     c_max_pace_gamma
        33  -6182.0146     -6250.6452      68.630674      32001.718      410            7595.1311      1.7015372      0.62320149   
       100  -6171.5239     -6200.3832      28.8593        36863.745      172.40561      7602.575       1.6998712      0.62320149   
       200  -6160.5347     -6204.1883      43.653587      41650.55       260.78676      7672.5458      1.6843689      0.62320149   
       300  -6151.6532     -6201.41        49.756815      38394.915      297.24747      7799.6311      1.6569243      0.62320149   
       400  -6146.0436     -6197.677       51.633417      30757.656      308.4583       7947.0243      1.6261933      0.62320149   
       500  -6140.1616     -6196.4886      56.327008      23564.571      336.49784      8073.4804      1.600722       0.62320149   
       600  -6136.2621     -6194.4688      58.206627      24104.082      347.72669      8158.6101      1.5840195      0.62320149   
       700  -6131.8016     -6192.1726      60.370972      23627.006      360.6565       8205.431       1.574981       0.62320149   
       800  -6128.843      -6189.0847      60.241722      23287.582      359.88436      8220.5792      1.5720787      0.62320149   
       900  -6127.0479     -6189.4292      62.381322      30058.756      372.66634      8215.0958      1.5731281      0.62320149   
      1000  -6122.7438     -6186.5467      63.802815      34355.925      381.15834      8194.8173      1.5770209      0.90593658   
      1100  -6120.2235     -6184.5773      64.353799      33053.225      384.44993      8168.9751      1.5820097      0.90593658   
      1200  -6119.9227     -6184.7892      64.86649       29074.021      387.51275      8145.1762      1.5866321      0.90593658   
      1300  -6118.8141     -6184.7479      65.933888      28541.96       393.88939      8130.1687      1.5895608      0.90593658   
      1400  -6120.4379     -6188.2423      67.804348      24752.859      405.06352      8123.0191      1.5909599      0.90593658   
      1500  -6120.8033     -6184.2762      63.47283       26914.161      379.18702      8123.6886      1.5908288      0.90593658   
      1600  -6120.3243     -6185.7508      65.426508      26273.07       390.8583       8134.9772      1.5886213      0.90593658   
      1700  -6120.4562     -6184.8824      64.426236      27472.543      384.88267      8151.798       1.5853432      0.90593658   
      1800  -6119.503      -6184.7944      65.291424      28191.532      390.0513       8170.4359      1.5817269      0.90593658   
      1900  -6116.3672     -6183.4956      67.128402      26578.81       401.02542      8189.6164      1.5780224      0.90593658   
      2000  -6116.5682     -6183.9081      67.339837      26563.673      402.28853      8206.5799      1.5747605      0.86742686   
      2100  -6116.0502     -6182.594       66.543813      26617.88       397.53308      8218.2775      1.572519       0.86742686   
      2200  -6114.0751     -6184.0252      69.950015      22260.525      417.88175      8223.8611      1.5714514      0.86742686   
      2300  -6116.364      -6184.9372      68.573212      25674.875      409.65672      8221.9883      1.5718093      0.86742686   
      2400  -6115.0362     -6182.7307      67.694506      29143.943      404.40733      8209.5581      1.5741892      0.86742686   
      2500  -6113.7834     -6181.2629      67.479535      29454.548      403.12309      8190.1007      1.5779291      0.86742686   
      2600  -6113.9068     -6182.2278      68.320971      30128.222      408.14983      8171.2624      1.5815669      0.86742686   
      2700  -6113.1241     -6180.8419      67.717793      29507.336      404.54645      8156.6921      1.584392       0.86742686   
      2800  -6114.3177     -6183.6377      69.320017      30457.607      414.11814      8152.4458      1.5852173      0.86742686   
      2900  -6114.0991     -6182.7697      68.670545      27784.168      410.23819      8157.3359      1.584267       0.86742686   
      3000  -6115.0988     -6183.2127      68.113856      27516.422      406.91253      8172.3961      1.5813475      0.94090073   
      3100  -6114.1587     -6182.7699      68.611221      32177.957      409.88379      8194.6366      1.5770556      0.94090073   
      3200  -6112.448      -6180.8038      68.355814      33302.609      408.35799      8224.314       1.5713648      0.94090073   
      3300  -6112.1095     -6182.4472      70.337664      32419.043      420.19757      8258.5173      1.5648569      0.94090073   
      3400  -6112.701      -6183.7639      71.062948      31388.762      424.53042      8287.2279      1.5594356      0.94090073   
      3500  -6110.765      -6181.5264      70.761391      26405.031      422.72891      8302.5445      1.5565587      0.94090073   
      3600  -6109.9428     -6178.2056      68.262769      28848.032      407.80213      8303.3937      1.5563995      0.94090073   
      3700  -6109.252      -6179.9102      70.65825       27610.736      422.11275      8293.4743      1.558261       0.94090073   
      3800  -6111.8866     -6182.8424      70.955771      24826.509      423.89014      8274.5368      1.5618273      0.94090073   
      3900  -6112.7636     -6179.6897      66.926116      25982.593      399.81696      8247.0551      1.5670318      0.94090073   
      4000  -6111.8672     -6182.596       70.728896      26182.478      422.53479      8217.4341      1.5726804      0.84041174   
      4100  -6110.4798     -6179.5497      69.06988       31499.66       412.62382      8190.9017      1.5777748      0.84041174   
      4200  -6113.2103     -6184.4112      71.200867      27345.866      425.35435      8174.5908      1.5809229      0.84041174   
      4300  -6113.5442     -6180.6933      67.149049      30503.984      401.14877      8166.3905      1.5825104      0.84041174   
      4400  -6110.9265     -6180.3751      69.448565      31365.791      414.88609      8171.4554      1.5815295      0.84041174   
      4500  -6112.4615     -6183.2851      70.823553      31983.983      423.10027      8194.4179      1.5770977      0.84041174   
      4600  -6114.5767     -6181.7852      67.208475      30268.204      401.50378      8228.6273      1.5705412      0.84041174   
      4700  -6114.3239     -6184.8319      70.508038      27773.752      421.21538      8265.7682      1.5634842      0.84041174   
      4800  -6115.4595     -6184.3618      68.902342      27148.52       411.62295      8296.2341      1.5577427      0.84041174   
      4900  -6114.1903     -6181.7689      67.578582      28834.072      403.7148       8311.8145      1.5548227      0.84041174   
      5000  -6114.6697     -6181.111       66.441361      24086.825      396.92103      8312.2489      1.5547414      0.7796657    
      5100  -6112.8111     -6182.2903      69.479226      21576.476      415.06925      8297.2641      1.5575493      0.7796657    
      5200  -6111.8455     -6179.0359      67.190372      26337.558      401.39563      8266.3201      1.5633798      0.7796657    
      5300  -6111.5597     -6180.9251      69.365355      28612.853      414.38899      8227.4785      1.5707605      0.7796657    
      5400  -6113.105      -6181.1627      68.057705      31523.358      406.57708      8187.7961      1.5783732      0.7796657    
      5500  -6113.5335     -6181.9912      68.457772      32636.024      408.96708      8153.6373      1.5849856      0.7796657    
      5600  -6111.4872     -6182.0164      70.529153      28988.861      421.34152      8137.7934      1.5880715      0.7796657    
      5700  -6113.4791     -6182.5987      69.119602      26971.732      412.92086      8144.9108      1.5866838      0.7796657    
      5800  -6115.3656     -6185.0793      69.713623      27636.426      416.46954      8173.4554      1.5811425      0.7796657    
      5900  -6114.39       -6182.9392      68.549207      27609.281      409.51332      8216.0812      1.5729394      0.7796657    
      6000  -6115.0834     -6184.3931      69.309751      23050.918      414.05681      8262.4868      1.5641051      0.8690167    
      6100  -6117.4218     -6184.5801      67.158348      23734.05       401.20432      8302.5897      1.5565502      0.8690167    
      6200  -6116.1449     -6185.5915      69.446586      22560.99       414.87426      8325.5625      1.5522552      0.8690167    
      6300  -6115.7261     -6184.6866      68.960517      26346.462      411.97048      8325.3264      1.5522992      0.8690167    
      6400  -6114.9528     -6181.9652      67.012392      28421.909      400.33237      8303.827       1.5563183      0.8690167    
      6500  -6116.1289     -6183.8794      67.750432      27175.557      404.74143      8264.1369      1.5637928      0.8690167    
      6600  -6113.7543     -6180.8537      67.099449      28109.375      400.85245      8211.5699      1.5738036      0.8690167    
      6700  -6114.1458     -6184.0658      69.919978      30117.668      417.70231      8164.0369      1.5829666      0.8690167    
      6800  -6113.3522     -6181.5293      68.177074      28937.079      407.29019      8131.5893      1.5892831      0.8690167    
      6900  -6114.1662     -6184.2334      70.067242      28850.871      418.58206      8119.9013      1.5915708      0.8690167    
      7000  -6115.5583     -6182.1429      66.584568      29046.076      397.77655      8128.7118      1.5898457      0.94570771   
      7100  -6116.7614     -6183.508       66.746557      30310.266      398.74427      8157.655       1.584205       0.94570771   
      7200  -6116.5917     -6183.4505      66.858863      25857.724      399.41519      8200.7137      1.575887       0.94570771   
      7300  -6116.4823     -6182.8875      66.405229      24264.063      396.70518      8246.6784      1.5671034      0.94570771   
      7400  -6115.9846     -6184.0858      68.101159      25696.158      406.83667      8287.8352      1.5593213      0.94570771   
      7500  -6115.7704     -6183.5596      67.789217      22925.322      404.97313      8312.823       1.5546341      0.94570771   
      7600  -6116.0812     -6185.1815      69.100283      21968.456      412.80545      8317.9092      1.5536834      0.94570771   
      7700  -6114.1775     -6183.0745      68.897026      25814.024      411.59119      8305.3853      1.5560263      0.94570771   
      7800  -6112.0711     -6182.476       70.404921      28222.42       420.59936      8280.5871      1.5606862      0.94570771   
      7900  -6111.3353     -6181.3451      70.009748      27777.239      418.2386       8250.964       1.5662894      0.94570771   
      8000  -6113.3571     -6182.398       69.040839      31597.589      412.45033      8223.9857      1.5714276      0.87536365   
      8100  -6111.7954     -6181.4587      69.663256      27070.536      416.16865      8200.048       1.5760149      0.87536365   
      8200  -6112.9988     -6182.7708      69.771986      28474.877      416.8182       8188.4343      1.5782502      0.87536365   
      8300  -6112.1495     -6182.1977      70.048232      36320.806      418.4685       8192.5168      1.5774637      0.87536365   
      8400  -6110.8994     -6180.5013      69.601933      33512.318      415.80231      8211.6895      1.5737806      0.87536365   
      8500  -6112.8512     -6183.0505      70.199268      26972.497      419.37079      8242.8061      1.5678396      0.87536365   
      8600  -6112.707      -6181.758       69.050979      25622.791      412.5109       8275.7323      1.5616017      0.87536365   
      8700  -6113.9727     -6181.0114      67.038664      28109.792      400.48932      8304.6532      1.5561635      0.87536365   
      8800  -6113.6422     -6182.7637      69.121512      20490.639      412.93227      8323.7684      1.5525898      0.87536365   
      8900  -6114.4478     -6181.3302      66.882357      22776.715      399.55555      8326.2786      1.5521217      0.87536365   
      9000  -6114.232      -6182.913       68.680924      25682.714      410.30019      8312.1077      1.5547679      0.84806315   
      9100  -6115.3256     -6181.3809      66.05524       28229.476      394.61434      8285.1181      1.5598327      0.84806315   
      9200  -6114.9472     -6183.9899      69.042755      25887.84       412.46178      8254.1909      1.5656771      0.84806315   
      9300  -6113.6213     -6180.9463      67.324999      29324.471      402.19989      8223.6306      1.5714954      0.84806315   
      9400  -6112.1691     -6179.6832      67.514072      31817.846      403.32941      8203.6998      1.5753134      0.84806315   
      9500  -6113.4533     -6182.9243      69.470964      28156.492      415.0199       8197.9444      1.5764193      0.84806315   
      9600  -6112.0207     -6179.9         67.879351      30694.615      405.51159      8207.2713      1.5746278      0.84806315   
      9700  -6111.176      -6180.5137      69.337713      29459.036      414.22386      8231.1876      1.5700526      0.84806315   
      9800  -6112.903      -6181.03        68.126928      27027.392      406.99062      8264.5758      1.5637098      0.84806315   
      9900  -6111.9903     -6180.9577      68.967416      25561.42       412.0117       8300.5959      1.5569241      0.84806315   
     10000  -6115.4644     -6182.5196      67.055211      22959.838      400.58818      8332.9665      1.550876       0.79380973   
     10100  -6113.9941     -6181.029       67.034938      25356.945      400.46707      8351.3098      1.5474696      0.79380973   
     10200  -6115.9371     -6183.585       67.647975      23799.272      404.12935      8350.4397      1.5476308      0.79380973   
     10300  -6114.9521     -6181.8301      66.878034      23235.17       399.52972      8329.6268      1.5514978      0.79380973   
     10400  -6115.2919     -6181.787       66.495076      22985.09       397.24193      8297.9594      1.5574188      0.79380973   
     10500  -6112.6362     -6182.5716      69.935389      28470.775      417.79437      8262.1661      1.5641658      0.79380973   
     10600  -6113.1573     -6180.6675      67.510251      27182.941      403.30659      8230.5525      1.5701738      0.79380973   
     10700  -6113.4571     -6183.8873      70.430246      30355.834      420.75065      8206.4918      1.5747774      0.79380973   
     10800  -6111.3325     -6184.3249      72.992439      24849.594      436.05721      8193.3785      1.5772978      0.79380973   
     10900  -6110.1245     -6178.2552      68.130693      30692.771      407.01311      8196.1669      1.5767612      0.79380973   
     11000  -6111.8556     -6179.7665      67.910855      27490.075      405.6998       8219.5126      1.5722827      0.80144319   
     11100  -6112.7269     -6182.7675      70.040622      27692.699      418.42304      8257.3361      1.5650808      0.80144319   
     11200  -6112.547      -6181.3761      68.829112      23996.473      411.18547      8298.5864      1.5573011      0.80144319   
     11300  -6113.8783     -6183.456       69.577726      27405.317      415.6577       8332.7566      1.5509151      0.80144319   
     11400  -6113.5199     -6181.9716      68.451676      26958.137      408.93066      8354.0694      1.5469584      0.80144319   
     11500  -6114.0987     -6182.973       68.874273      24163.404      411.45526      8362.1109      1.5454708      0.80144319   
     11600  -6114.0975     -6180.5326      66.435011      22850.285      396.8831       8353.8797      1.5469935      0.80144319   
     11700  -6113.9146     -6181.9743      68.05974       23553.866      406.58924      8329.8778      1.5514511      0.80144319   
     11800  -6112.4755     -6180.3918      67.9163        23428.516      405.73232      8294.0982      1.5581438      0.80144319   
     11900  -6110.8129     -6180.6934      69.880489      26158.693      417.4664       8255.7622      1.5653791      0.80144319   
     12000  -6111.634      -6180.7832      69.149186      29041.223      413.09759      8223.9888      1.571427       0.89208659   
     12100  -6112.4001     -6180.8594      68.459376      30157.172      408.97667      8200.9694      1.5758378      0.89208659   
     12200  -6114.0253     -6181.9488      67.923544      30450.91       405.7756       8190.279       1.5778947      0.89208659   
     12300  -6115.426      -6183.7625      68.336502      30446.398      408.24261      8193.6434      1.5772468      0.89208659   
     12400  -6117.9764     -6183.8145      65.838137      25664.634      393.31737      8204.3692      1.5751848      0.89208659   
     12500  -6119.7222     -6185.4212      65.698949      26701.319      392.48586      8217.6682      1.5726356      0.89208659   
     12600  -6118.7469     -6184.8574      66.110452      24902.363      394.94418      8230.4738      1.5701888      0.89208659   
     12700  -6118.0884     -6185.1533      67.064935      25841.974      400.64627      8243.596       1.5676894      0.89208659   
     12800  -6118.994      -6183.9284      64.93437       27493.091      387.91826      8254.4247      1.5656328      0.89208659   
     12900  -6116.725      -6183.991       67.265999      29947.278      401.84742      8263.5773      1.5638987      0.89208659   
     13000  -6114.9632     -6182.2468      67.283606      29512.573      401.95261      8267.9918      1.5630637      0.85130597   
     13100  -6113.954      -6183.2233      69.269266      31629.929      413.81495      8270.7102      1.56255        0.85130597   
     13200  -6114.0655     -6184.0045      69.939056      26881.966      417.81628      8273.2546      1.5620694      0.85130597   
     13300  -6114.6155     -6184.1431      69.527604      26460.854      415.35827      8278.0227      1.5611697      0.85130597   
     13400  -6114.2655     -6182.0555      67.789949      27659.18       404.9775       8282.7534      1.560278       0.85130597   
     13500  -6116.2812     -6184.1144      67.833243      31756.427      405.23614      8284.7078      1.5599099      0.85130597   
     13600  -6117.5068     -6185.131       67.624139      31515.745      403.98695      8283.8178      1.5600775      0.85130597   
     13700  -6116.2117     -6185.3147      69.102927      30144.584      412.82124      8274.609       1.5618137      0.85130597   
     13800  -6113.9569     -6182.0917      68.13472       26303.834      407.03717      8260.6064      1.5644612      0.85130597   
     13900  -6117.3235     -6182.6193      65.295701      28049.057      390.07685      8249.1205      1.5666395      0.85130597   
     14000  -6116.7372     -6184.4031      67.665944      29554.576      404.2367       8241.3146      1.5681233      0.82917082   
     14100  -6117.3873     -6185.1119      67.724583      30027.073      404.58701      8236.8388      1.5689754      0.82917082   
     14200  -6114.7552     -6182.742       67.986824      30206.613      406.15364      8236.0649      1.5691229      0.82917082   
     14300  -6113.0753     -6180.9959      67.920598      30120.739      405.758        8244.6895      1.5674815      0.82917082   
     14400  -6110.5297     -6182.1421      71.612463      30431.49       427.81323      8264.5494      1.5637148      0.82917082   
     14500  -6111.1136     -6179.0357      67.922071      29155.423      405.7668       8294.2121      1.5581224      0.82917082   
     14600  -6113.7382     -6182.3529      68.614674      24618.852      409.90442      8329.0219      1.5516105      0.82917082   
     14700  -6112.3176     -6181.4058      69.088201      24376.101      412.73327      8356.5354      1.5465019      0.82917082   
     14800  -6114.7236     -6183.4256      68.702042      23890.379      410.42635      8372.3197      1.5435863      0.82917082   
     14900  -6112.7188     -6181.6887      68.969888      21280.59       412.02647      8368.8554      1.5442253      0.82917082   
     15000  -6114.9852     -6181.9904      67.005192      27464.884      400.28936      8346.6202      1.548339       0.85765508   
     15100  -6114.3325     -6181.8255      67.492945      27694.48       403.2032       8307.6078      1.55561        0.85765508   
     15200  -6114.5912     -6183.4948      68.903669      30076.094      411.63087      8257.6535      1.5650206      0.85765508   
     15300  -6112.0276     -6180.581       68.553386      29316.366      409.53828      8206.3763      1.5747996      0.85765508   
     15400  -6112.5651     -6181.3259      68.760718      27639.909      410.77688      8171.4477      1.581531       0.85765508   
     15500  -6112.1735     -6182.2086      70.03507       29614.315      418.38987      8160.8889      1.5835772      0.85765508   
     15600  -6112.4278     -6181.3419      68.914169      26001.396      411.6936       8174.7172      1.5808985      0.85765508   
     15700  -6111.1796     -6180.897       69.717326      31516.236      416.49167      8212.52        1.5736215      0.85765508   
     15800  -6113.2108     -6182.4446      69.233777      28037.408      413.60294      8265.9783      1.5634444      0.85765508   
     15900  -6112.9592     -6182.0433      69.084019      29073.581      412.70828      8321.9732      1.5529247      0.85765508   
     16000  -6114.714      -6182.111       67.397029      26741.111      402.6302       8368.5397      1.5442835      0.81723501   
     16100  -6113.8281     -6182.7642      68.936064      25675.693      411.8244       8395.4795      1.5393281      0.81723501   
     16200  -6110.9758     -6180.856       69.880236      27664.06       417.46489      8397.2797      1.5389981      0.81723501   
     16300  -6111.2608     -6180.9952      69.734419      26608.216      416.59378      8376.5772      1.5428017      0.81723501   
     16400  -6109.4392     -6179.9136      70.474417      27493.116      421.01453      8337.7604      1.5499843      0.81723501   
     16500  -6109.5947     -6180.9116      71.31687       29793.42       426.04735      8292.6389      1.558418       0.81723501   
     16600  -6108.9238     -6179.608       70.684143      30140.893      422.26743      8249.465       1.5665741      0.81723501   
     16700  -6108.9025     -6182.1074      73.204896      34748.372      437.32643      8218.0352      1.5725654      0.81723501   
     16800  -6109.1185     -6181.7847      72.666203      32166.972      434.10827      8205.1212      1.5750405      0.81723501   
     16900  -6109.4593     -6181.2075      71.748174      32410.46       428.62396      8211.1434      1.5738853      0.81723501   
     17000  -6110.3753     -6180.3576      69.982249      31953.939      418.07432      8233.331       1.5696439      0.82765523   
     17100  -6112.5913     -6183.3489      70.757574      26984.642      422.70611      8264.9482      1.5636393      0.82765523   
     17200  -6112.6296     -6181.7973      69.167696      28683.264      413.20817      8297.0205      1.557595       0.82765523   
     17300  -6112.8142     -6184.7328      71.918539      29945.86       429.64172      8325.3082      1.5523026      0.82765523   
     17400  -6112.0418     -6183.2004      71.158655      28603.915      425.10217      8343.6015      1.5488992      0.82765523   
     17500  -6112.7849     -6181.869       69.084114      31817.346      412.70885      8352.1745      1.5473094      0.82765523   
     17600  -6111.1856     -6180.0816      68.895974      26468.025      411.58491      8351.3526      1.5474617      0.82765523   
     17700  -6112.7198     -6181.9067      69.186849      24691.311      413.32259      8342.7172      1.5490634      0.82765523   
     17800  -6110.5848     -6183.4015      72.816665      26109.681      435.00713      8324.796       1.5523981      0.82765523   
     17900  -6111.3911     -6179.5739      68.182803      26514.951      407.32442      8300.0375      1.5570289      0.82765523   
     18000  -6112.9943     -6182.8445      69.85015       29385.116      417.28516      8274.7095      1.5617947      0.8038828    
     18100  -6112.8139     -6182.2446      69.43069       30233.532      414.7793       8253.4019      1.5658268      0.8038828    
     18200  -6113.2646     -6182.776       69.511401      27134.253      415.26147      8241.7114      1.5680479      0.8038828    
     18300  -6112.1314     -6181.9859      69.854523      26372.4        417.31128      8238.8924      1.5685844      0.8038828    
     18400  -6114.5927     -6181.3468      66.754097      33405.167      398.78932      8242.0395      1.5679854      0.8038828    
     18500  -6113.8835     -6182.7049      68.821407      30417.083      411.13944      8250.7277      1.5663343      0.8038828    
     18600  -6114.0768     -6182.5241      68.44727       29498.114      408.90434      8263.4587      1.5639212      0.8038828    
     18700  -6115.1035     -6184.225       69.121494      28375.836      412.93216      8275.2815      1.5616868      0.8038828    
     18800  -6114.1771     -6181.8913      67.71424       29952.905      404.52522      8286.0367      1.5596597      0.8038828    
     18900  -6112.292      -6182.4573      70.165298      32963.69       419.16785      8295.4655      1.557887       0.8038828    
     19000  -6111.1419     -6181.7431      70.601162      27082.098      421.7717       8305.2094      1.5560593      0.89351291   
     19100  -6114.1201     -6183.1404      69.020314      26588.012      412.32771      8311.5919      1.5548643      0.89351291   
     19200  -6113.4723     -6183.2754      69.803093      27927.012      417.00404      8313.1563      1.5545717      0.89351291   
     19300  -6111.3252     -6180.6739      69.34871       26380.717      414.28955      8307.7066      1.5555915      0.89351291   
     19400  -6110.0423     -6179.8738      69.83144       28148.58       417.17338      8298.0654      1.5573989      0.89351291   
     19500  -6110.708      -6181.6453      70.937365      25233.37       423.78018      8288.3506      1.5592243      0.89351291   
     19600  -6114.2388     -6183.2168      68.978049      27082.086      412.07522      8279.1407      1.5609588      0.89351291   
     19700  -6109.984      -6181.2032      71.219286      29466.109      425.46438      8271.5034      1.5624001      0.89351291   
     19800  -6113.4954     -6181.2747      67.779378      29549.468      404.91435      8268.1021      1.5630429      0.89351291   
     19900  -6114.2688     -6182.2133      67.94454       26581.977      405.90103      8265.4772      1.5635392      0.89351291   
     20000  -6116.0354     -6183.6131      67.577725      28615.747      403.70968      8260.645       1.5644538      0.81700165   
     20033  -6117.2931     -6184.1186      66.825418      26189.36       399.21539      8258.7187      1.5648187      0.81700165   
Loop time of 86.3195 on 1 procs for 20000 steps with 1296 atoms

Performance: 10.009 ns/day, 2.398 hours/ns, 231.697 timesteps/s, 300.280 katom-step/s
99.8% CPU use with 1 MPI tasks x 1 OpenMP threads

MPI task timing breakdown:
Section |  min time  |  avg time  |  max time  |%varavg| %total
---------------------------------------------------------------
Pair    | 65.773     | 65.773     | 65.773     |   0.0 | 76.20
Neigh   | 0.88119    | 0.88119    | 0.88119    |   0.0 |  1.02
Comm    | 0.89746    | 0.89746    | 0.89746    |   0.0 |  1.04
Output  | 0.027636   | 0.027636   | 0.027636   |   0.0 |  0.03
Modify  | 18.283     | 18.283     | 18.283     |   0.0 | 21.18
Other   |            | 0.4569     |            |       |  0.53

Nlocal:           1296 ave        1296 max        1296 min
Histogram: 1 0 0 0 0 0 0 0 0 0
Nghost:           4427 ave        4427 max        4427 min
Histogram: 1 0 0 0 0 0 0 0 0 0
Neighs:              0 ave           0 max           0 min
Histogram: 1 0 0 0 0 0 0 0 0 0
FullNghs:       233114 ave      233114 max      233114 min
Histogram: 1 0 0 0 0 0 0 0 0 0

Total # of neighbors = 233114
Ave neighs/atom = 179.87191
Neighbor list builds = 1999
Dangerous builds = 1996

unfix 3
unfix 4

################## main calculation

dump 		3 all custom 1000 traj.lammpstrj id type element x y z
dump_modify     3 element H O

fix             3 all nph aniso ${pressure} ${pressure} ${pressureDamp}
fix             3 all nph aniso 28000 ${pressure} ${pressureDamp}
fix             3 all nph aniso 28000 28000 ${pressureDamp}
fix             3 all nph aniso 28000 28000 1
fix             4 all temp/csvr ${temperature} ${temperature} ${tempDamp} ${seed}
fix             4 all temp/csvr 410 ${temperature} ${tempDamp} ${seed}
fix             4 all temp/csvr 410 410 ${tempDamp} ${seed}
fix             4 all temp/csvr 410 410 0.1 ${seed}
fix             4 all temp/csvr 410 410 0.1 92418
velocity 	all create ${temperature} ${seed} dist gaussian
velocity 	all create 410 ${seed} dist gaussian
velocity 	all create 410 92418 dist gaussian

run             2000000
WARNING: Fix with atom-based arrays not compatible with Kokkos sorting on device, switching to classic host sorting (src/KOKKOS/atom_kokkos.cpp:216)
Per MPI rank memory allocation (min/avg/max) = 1140 | 1140 | 1140 Mbytes
   Step         TotEng         PotEng         KinEng         Press           Temp          Volume        Density     c_max_pace_gamma
     20033  -6115.4879     -6184.1186      68.630674      26422.838      410            8258.7187      1.5648187      0.81700165   
     20100  -6114.9044     -6184.5993      69.694838      28186.496      416.35732      8258.1568      1.5649252      0.81700165   
     20200  -6116.6452     -6186.2424      69.597239      28207.844      415.77426      8255.9244      1.5653484      0.81700165   
     20300  -6114.8827     -6181.8636      66.980838      27364.818      400.14387      8251.7992      1.5661309      0.81700165   
     20400  -6114.6625     -6183.5058      68.843273      27815.25       411.27007      8247.5668      1.5669346      0.81700165   
     20500  -6113.4029     -6181.6087      68.205786      29551.284      407.46172      8244.7465      1.5674706      0.81700165   
     20600  -6113.8351     -6183.6161      69.781011      31872.177      416.87212      8244.5767      1.5675029      0.81700165   
     20700  -6113.2993     -6181.788       68.488757      30660.463      409.15219      8246.2935      1.5671766      0.81700165   
     20800  -6114.3674     -6183.6835      69.31606       29750.866      414.0945       8249.7143      1.5665267      0.81700165   
     20900  -6116.1139     -6183.2031      67.08924       31382.672      400.79147      8253.555       1.5657977      0.81700165   
     21000  -6114.4031     -6182.6408      68.23767       29809.89       407.65219      8258.5985      1.5648415      0.79911417   
     21100  -6114.1723     -6183.0268      68.854528      30222.807      411.33731      8261.4099      1.564309       0.79911417   
     21200  -6115.3083     -6181.2126      65.904287      27108.468      393.71255      8262.883       1.5640301      0.79911417   
     21300  -6115.2653     -6182.8121      67.546835      29366.364      403.52514      8266.9125      1.5632678      0.79911417   
     21400  -6117.4121     -6183.39        65.977897      29486.951      394.1523       8272.0948      1.5622884      0.79911417   
     21500  -6119.1676     -6187.0251      67.857502      29898.21       405.38107      8273.8005      1.5619663      0.79911417   
     21600  -6118.3885     -6184.1202      65.731765      27642.269      392.6819       8267.0587      1.5632401      0.79911417   
     21700  -6118.3466     -6185.3913      67.044689      26868.697      400.52532      8255.434       1.5654414      0.79911417   
     21800  -6116.9931     -6183.2765      66.283354      31633.976      395.9771       8239.3134      1.5685042      0.79911417   
     21900  -6113.9897     -6184.1148      70.12512       32015.401      418.92783      8225.0467      1.5712249      0.79911417   
     22000  -6114.3365     -6182.8213      68.484881      36415.485      409.12903      8215.9609      1.5729624      0.85824957   
     22100  -6113.7994     -6181.7431      67.943615      34989.328      405.8955       8216.3689      1.5728843      0.85824957   
     22200  -6112.6973     -6182.2763      69.579023      28422.372      415.66544      8226.6345      1.5709216      0.85824957   
     22300  -6114.8795     -6183.8397      68.960164      27809.437      411.96838      8244.9703      1.5674281      0.85824957   
     22400  -6114.27       -6184.7765      70.506467      29263.499      421.206        8268.4004      1.5629865      0.85824957   
     22500  -6113.8901     -6182.0648      68.174723      31470.992      407.27615      8290.4434      1.5588307      0.85824957   
     22600  -6114.1834     -6182.6531      68.469698      28439.919      409.03833      8311.5054      1.5548805      0.85824957   
     22700  -6113.9983     -6182.1189      68.120626      25337.336      406.95297      8327.3643      1.5519194      0.85824957   
     22800  -6114.8318     -6182.4105      67.578661      29132.864      403.71527      8331.3673      1.5511737      0.85824957   
     22900  -6114.3054     -6183.1924      68.88708       27077.666      411.53177      8322.1251      1.5528964      0.85824957   
     23000  -6114.2154     -6178.8826      64.66724       25187.763      386.32242      8300.6188      1.5569198      0.79796411   
     23100  -6112.4564     -6182.0892      69.632778      27016.003      415.98658      8274.9765      1.5617444      0.79796411   
     23200  -6110.8086     -6180.1498      69.341196      30505.139      414.24466      8248.0812      1.5668369      0.79796411   
     23300  -6109.814      -6181.4004      71.586408      32712.553      427.65757      8227.9771      1.5706653      0.79796411   
     23400  -6109.9219     -6181.1247      71.202817      32327.022      425.36599      8219.6532      1.5722559      0.79796411   
     23500  -6108.302      -6180.079       71.777005      29761.572      428.7962       8226.2037      1.5710039      0.79796411   
     23600  -6108.5183     -6177.8863      69.367935      28193.038      414.4044       8243.5768      1.567693       0.79796411   
     23700  -6108.5745     -6179.2339      70.659472      29234.604      422.12005      8268.5599      1.5629563      0.79796411   
     23800  -6111.6614     -6180.4239      68.762562      25461.255      410.7879       8295.5973      1.5578623      0.79796411   
     23900  -6113.6122     -6181.57        67.957789      26624.138      405.98018      8314.9699      1.5542327      0.79796411   
     24000  -6113.2685     -6183.3337      70.065174      25751.619      418.56971      8320.2695      1.5532427      0.8909125    
     24100  -6111.6711     -6181.2472      69.576078      25257.163      415.64785      8311.2475      1.5549288      0.8909125    
     24200  -6113.9925     -6182.244       68.251475      27763.449      407.73466      8296.1168      1.5577647      0.8909125    
     24300  -6113.7903     -6184.5318      70.741582      32847.923      422.61057      8278.0872      1.5611575      0.8909125    
     24400  -6110.6803     -6178.6545      67.974144      28103.79       406.07789      8260.4989      1.5644815      0.8909125    
     24500  -6111.6311     -6181.942       70.310914      23443.495      420.03776      8250.7383      1.5663323      0.8909125    
     24600  -6113.3759     -6183.4786      70.102707      29241.19       418.79393      8243.4424      1.5677186      0.8909125    
     24700  -6112.8994     -6181.7549      68.855479      30663.361      411.34299      8241.0898      1.5681661      0.8909125    
     24800  -6113.4597     -6181.8629      68.403182      28021.696      408.64096      8244.4325      1.5675303      0.8909125    
     24900  -6112.289      -6182.9714      70.682411      30198.051      422.25709      8252.781       1.5659446      0.8909125    
     25000  -6113.4329     -6181.9998      68.566936      28171.801      409.61923      8263.4501      1.5639228      0.96105711   
     25100  -6112.2999     -6183.2974      70.997458      27100.28       424.13918      8273.7631      1.5619734      0.96105711   
     25200  -6111.7651     -6178.2954      66.530355      26922.945      397.45268      8280.7848      1.5606489      0.96105711   
     25300  -6112.1717     -6182.5184      70.346692      22689.419      420.2515       8287.1349      1.5594531      0.96105711   
     25400  -6114.4079     -6182.5279      68.120014      23513.713      406.94931      8289.561       1.5589967      0.96105711   
     25500  -6114.7592     -6182.1476      67.388385      24319.588      402.57856      8285.0899      1.559838       0.96105711   
     25600  -6112.3366     -6180.7797      68.443105      24459.256      408.87946      8277.2149      1.561322       0.96105711   
     25700  -6113.5869     -6184.0652      70.478214      27511.446      421.03721      8266.1847      1.5634054      0.96105711   
     25800  -6115.1504     -6182.4199      67.269542      29971.531      401.86859      8251.5397      1.5661802      0.96105711   
     25900  -6113.264      -6181.9169      68.652923      32158.765      410.13291      8236.3075      1.5690767      0.96105711   
     26000  -6113.2101     -6181.5542      68.344131      31968.468      408.28819      8223.8132      1.5714605      0.8340117    
     26100  -6115.2753     -6182.6801      67.404815      31073.012      402.67671      8217.9107      1.5725892      0.8340117    
     26200  -6113.9789     -6184.5423      70.563443      27890.954      421.54637      8218.6154      1.5724544      0.8340117    
     26300  -6114.0137     -6182.9739      68.960173      27821.715      411.96843      8227.3139      1.5707919      0.8340117    
     26400  -6114.2161     -6181.7483      67.53221       25366.807      403.43777      8241.2257      1.5681403      0.8340117    
     26500  -6116.212      -6183.2313      67.019296      23028.026      400.37362      8258.7261      1.5648174      0.8340117    
     26600  -6114.8289     -6182.2084      67.37941       23517.017      402.52494      8272.1725      1.5622737      0.8340117    
     26700  -6116.0794     -6184.501       68.421545      23663.935      408.75066      8280.9364      1.5606204      0.8340117    
     26800  -6115.2864     -6182.7205      67.434102      22655.051      402.85167      8281.232       1.5605646      0.8340117    
     26900  -6115.4559     -6182.0944      66.638471      30576.418      398.09857      8273.1413      1.5620908      0.8340117    
     27000  -6116.1568     -6185.5292      69.372359      28838.743      414.43083      8259.1647      1.5647342      0.79990867   
     27100  -6116.8728     -6184.7723      67.899419      28698.383      405.63148      8240.0677      1.5683606      0.79990867   
     27200  -6115.5843     -6184.7246      69.140325      30947.788      413.04466      8220.3613      1.5721204      0.79990867   
     27300  -6114.6466     -6182.0455      67.39892       29534.631      402.6415       8206.4851      1.5747787      0.79990867   
     27400  -6113.9309     -6183.8696      69.938726      28839.141      417.81431      8203.5589      1.5753404      0.79990867   
     27500  -6113.8521     -6181.8811      68.029053      30913.185      406.40592      8210.598       1.5739899      0.79990867   
     27600  -6114.9186     -6182.5602      67.641525      32034.528      404.09082      8226.2285      1.5709991      0.79990867   
     27700  -6114.032      -6182.2121      68.180084      32220.635      407.30818      8247.6208      1.5669244      0.79990867   
     27800  -6112.5845     -6182.6001      70.015576      29004.512      418.27341      8271.9434      1.562317       0.79990867   
     27900  -6112.5565     -6182.9435      70.387047      31578.168      420.49258      8295.5644      1.5578684      0.79990867   
     28000  -6114.8456     -6181.9674      67.121778      31518.519      400.98585      8312.7369      1.5546502      0.81217509   
     28100  -6113.6226     -6183.1731      69.550495      25548.491      415.49502      8316.3379      1.553977       0.81217509   
     28200  -6114.4179     -6181.3572      66.939368      29131.474      399.89613      8304.0355      1.5562792      0.81217509   
     28300  -6113.0258     -6183.5415      70.515693      30937.441      421.26111      8282.3093      1.5603617      0.81217509   
     28400  -6110.7498     -6179.384       68.634177      26432.383      410.02093      8259.05        1.564756       0.81217509   
     28500  -6111.8943     -6182.5024      70.608086      35301.654      421.81307      8242.4026      1.5679164      0.81217509   
     28600  -6111.4148     -6183.0606      71.645785      32492.236      428.01229      8231.9857      1.5699004      0.81217509   
     28700  -6112.4214     -6180.4891      68.067665      30189.438      406.63658      8229.5634      1.5703625      0.81217509   
     28800  -6112.4076     -6183.2628      70.85517       26829.265      423.28915      8237.4882      1.5688518      0.81217509   
     28900  -6113.5027     -6181.6097      68.106957      26675.373      406.87131      8249.9         1.5664915      0.81217509   
     29000  -6114.0009     -6183.2035      69.202616      28667.314      413.41679      8262.4722      1.5641079      0.83217109   
     29100  -6115.9894     -6184.0968      68.107397      28813.768      406.87394      8271.5076      1.5623993      0.83217109   
     29200  -6115.5311     -6182.0389      66.50786       25997.931      397.3183       8278.2881      1.5611196      0.83217109   
     29300  -6115.1168     -6184.1313      69.014591      23417.851      412.29352      8279.4928      1.5608925      0.83217109   
     29400  -6114.1        -6184.67        70.570013      23710.548      421.58562      8271.4736      1.5624058      0.83217109   
     29500  -6114.5691     -6184.3417      69.772632      26799.059      416.82206      8257.328       1.5650823      0.83217109   
     29600  -6112.5993     -6182.1484      69.549039      29557.758      415.48632      8244.3135      1.5675529      0.83217109   
     29700  -6111.2747     -6181.7293      70.45467       30976.357      420.89656      8238.3911      1.5686798      0.83217109   
     29800  -6112.5502     -6182.3615      69.811276      32708.391      417.05292      8239.3082      1.5685052      0.83217109   
     29900  -6111.3005     -6179.6808      68.380338      32664.104      408.50449      8248.8131      1.5666979      0.83217109   
     30000  -6115.1686     -6182.8569      67.68829       23384.903      404.37019      8268.4513      1.5629768      0.84719787   
     30100  -6114.1388     -6183.3272      69.188452      27157.11       413.33217      8287.2259      1.5594359      0.84719787   
     30200  -6115.6354     -6183.1059      67.470522      24317.769      403.06925      8303.2115      1.5564337      0.84719787   
     30300  -6115.297      -6183.2714      67.974454      27099.938      406.07974      8312.2401      1.5547431      0.84719787   
     30400  -6116.3761     -6184.8055      68.429361      25596.931      408.79736      8309.622       1.5552329      0.84719787   
     30500  -6113.8965     -6182.8681      68.971544      26774.713      412.03636      8295.7972      1.5578247      0.84719787   
     30600  -6114.5868     -6182.2164      67.629611      25423.167      404.01964      8272.2875      1.562252       0.84719787   
     30700  -6114.3553     -6183.4051      69.049729      27007.9        412.50344      8240.3797      1.5683013      0.84719787   
     30800  -6111.4677     -6180.6142      69.146581      33665.308      413.08203      8207.3865      1.5746057      0.84719787   
     30900  -6109.5332     -6180.3402      70.807078      25803.014      423.00185      8184.8346      1.5789443      0.84719787   
     31000  -6111.1675     -6180.5533      69.385833      30253.677      414.51132      8177.0566      1.5804462      0.81292884   
     31100  -6112.0673     -6180.9675      68.900192      29713.616      411.6101       8183.558       1.5791906      0.81292884   
     31200  -6111.8386     -6182.4427      70.604124      33558.394      421.7894       8204.3353      1.5751913      0.81292884   
     31300  -6112.8573     -6180.4369      67.579579      32716.036      403.72076      8238.5826      1.5686434      0.81292884   
     31400  -6113.1839     -6180.7368      67.55286       24587.86       403.56113      8281.5409      1.5605064      0.81292884   
     31500  -6114.5809     -6183.6037      69.022737      21443.082      412.34219      8324.5465      1.5524447      0.81292884   
     31600  -6115.0198     -6181.1641      66.144239      26244.72       395.14602      8354.885       1.5468074      0.81292884   
     31700  -6115.2606     -6184.5124      69.251787      24172.79       413.71053      8367.3566      1.5445019      0.81292884   
     31800  -6113.8995     -6182.4252      68.525746      25807.092      409.37316      8355.6281      1.5466698      0.81292884   
     31900  -6112.15       -6181.1691      69.019121      21109.425      412.32058      8325.303       1.5523036      0.81292884   
     32000  -6112.8828     -6181.4946      68.611781      24760.124      409.88713      8281.4892      1.5605162      0.86445998   
     32100  -6112.4187     -6181.8661      69.447479      29746.136      414.8796       8231.7074      1.5699535      0.86445998   
     32200  -6114.1404     -6183.3372      69.196811      26815.108      413.3821       8187.519       1.5784266      0.86445998   
     32300  -6114.915      -6184.2515      69.336526      26390.382      414.21677      8156.2975      1.5844687      0.86445998   
     32400  -6117.139      -6185.6169      68.477889      31620.425      409.08726      8143.6844      1.5869227      0.86445998   
     32500  -6118.7063     -6184.6732      65.966902      31811.129      394.08662      8151.1423      1.5854708      0.86445998   
     32600  -6118.2101     -6183.734       65.523951      32473.844      391.44042      8175.3492      1.5807763      0.86445998   
     32700  -6117.9545     -6183.4722      65.517695      29096.9        391.40305      8207.5566      1.5745731      0.86445998   
     32800  -6119.2373     -6184.9646      65.727304      27439.419      392.65525      8242.322       1.5679317      0.86445998   
     32900  -6117.453      -6183.7688      66.315857      27997.281      396.17127      8271.3808      1.5624233      0.86445998   
     33000  -6115.8643     -6182.8122      66.947922      26769.26       399.94723      8290.3979      1.5588393      0.84452319   
     33100  -6113.9946     -6183.3987      69.404118      26252.335      414.62056      8301.599       1.556736       0.84452319   
     33200  -6114.6512     -6184.2349      69.583692      24271.906      415.69334      8303.5158      1.5563766      0.84452319   
     33300  -6114.9292     -6182.8506      67.92142       27566.464      405.76291      8294.3277      1.5581007      0.84452319   
     33400  -6114.3628     -6183.327       68.964171      28417.625      411.99231      8278.0455      1.5611654      0.84452319   
     33500  -6116.0779     -6182.6418      66.563896      27049.465      397.65306      8258.1995      1.5649171      0.84452319   
     33600  -6116.8496     -6183.7414      66.891794      26376.931      399.61192      8236.772       1.5689882      0.84452319   
     33700  -6115.3293     -6182.4679      67.138582      30427.455      401.08624      8217.4874      1.5726702      0.84452319   
     33800  -6113.483      -6181.0303      67.547244      28755.132      403.52758      8203.4253      1.5753661      0.84452319   
     33900  -6116.9054     -6182.6005      65.695084      25779.694      392.46277      8198.7792      1.5762588      0.84452319   
     34000  -6116.9796     -6185.086       68.106413      26320.6        406.86806      8203.7276      1.575308       0.87837226   
     34100  -6117.8017     -6184.9505      67.148801      25570.596      401.14728      8215.7308      1.5730065      0.87837226   
     34200  -6115.1438     -6184.6901      69.546288      26762.494      415.46988      8233.3877      1.5696331      0.87837226   
     34300  -6113.587      -6182.3195      68.73247       28966.998      410.60813      8256.7977      1.5651828      0.87837226   
     34400  -6111.1348     -6180.0884      68.953638      25715.046      411.92939      8279.6834      1.5608565      0.87837226   
     34500  -6111.6532     -6181.7804      70.1272        24365.527      418.94025      8302.2086      1.5566217      0.87837226   
     34600  -6113.6711     -6182.3155      68.644368      28943.693      410.08181      8321.2604      1.5530577      0.87837226   
     34700  -6112.3833     -6182.2589      69.875571      30300.491      417.43702      8327.3757      1.5519172      0.87837226   
     34800  -6114.3697     -6183.0837      68.714043      35955.645      410.49805      8321.5045      1.5530122      0.87837226   
     34900  -6112.0314     -6180.7977      68.766244      36144.256      410.8099       8305.4929      1.5560061      0.87837226   
     35000  -6114.9928     -6183.9822      68.989398      30179.834      412.14302      8282.234       1.5603759      0.87719651   
     35100  -6114.4595     -6183.535       69.075531      29527.995      412.65758      8254.6403      1.5655919      0.87719651   
     35200  -6114.5878     -6183.6685      69.080658      25121.727      412.68821      8228.1529      1.5706317      0.87719651   
     35300  -6112.8599     -6180.9046      68.044686      31391.395      406.49931      8205.4011      1.5749867      0.87719651   
     35400  -6113.6697     -6182.1605      68.49076       31973.414      409.16416      8193.8242      1.577212       0.87719651   
     35500  -6113.4014     -6183.3871      69.985716      32637.137      418.09503      8194.7499      1.5770338      0.87719651   
     35600  -6113.2496     -6184.2748      71.025238      33273.301      424.30514      8207.0635      1.5746677      0.87719651   
     35700  -6111.8892     -6181.2492      69.359994      30050.989      414.35696      8230.6303      1.570159       0.87719651   
     35800  -6113.0504     -6181.2637      68.213238      28949.503      407.50624      8260.9202      1.5644017      0.87719651   
     35900  -6112.622      -6180.867       68.245033      24281.414      407.69618      8294.5946      1.5580506      0.87719651   
     36000  -6114.3694     -6182.7435      68.374104      27759.49       408.46725      8323.5178      1.5526365      0.82144712   
     36100  -6113.3836     -6181.3278      67.944252      23217.588      405.89931      8339.2518      1.5497071      0.82144712   
     36200  -6110.4412     -6180.4928      70.051585      23771.286      418.48853      8341.172       1.5493504      0.82144712   
     36300  -6110.8419     -6180.4203      69.578385      26229.953      415.66163      8330.9299      1.5512552      0.82144712   
     36400  -6109.6664     -6179.9462      70.279784      25708.472      419.85179      8311.8954      1.5548076      0.82144712   
     36500  -6109.7861     -6181.8537      72.067586      26023.245      430.53213      8286.8618      1.5595045      0.82144712   
     36600  -6109.2627     -6178.4005      69.137759      33595.02       413.02933      8259.0115      1.5647633      0.82144712   
     36700  -6109.0448     -6179.1651      70.120317      28550.36       418.89913      8237.6704      1.5688171      0.82144712   
     36800  -6109.6402     -6179.501       69.860814      30240.404      417.34886      8226.2919      1.570987       0.82144712   
     36900  -6109.3436     -6179.2007      69.857053      30932.218      417.3264       8230.3111      1.5702199      0.82144712   
     37000  -6110.3        -6181.4306      71.130619      28898.813      424.93468      8248.0396      1.5668448      0.85509592   
     37100  -6112.3059     -6181.485       69.179158      23828.69       413.27665      8273.0835      1.5621017      0.85509592   
     37200  -6112.2371     -6179.6382      67.401126      28813.387      402.65467      8298.5559      1.5573068      0.85509592   
     37300  -6112.3904     -6182.1503      69.759874      25800.534      416.74585      8319.4411      1.5533974      0.85509592   
     37400  -6111.4594     -6180.6032      69.143716      24849.004      413.06492      8332.7689      1.5509128      0.85509592   
     37500  -6112.4866     -6182.624       70.137366      23572.817      419.00099      8336.477       1.5502229      0.85509592   
     37600  -6110.9202     -6179.1225      68.20228       24385.784      407.44077      8330.3019      1.5513721      0.85509592   
     37700  -6112.2927     -6180.708       68.415241      28610.322      408.713        8315.4517      1.5541426      0.85509592   
     37800  -6110.2104     -6180.3194      70.109077      31678.055      418.83199      8296.0016      1.5577863      0.85509592   
     37900  -6110.9562     -6183.187       72.230791      28970.812      431.50712      8275.8509      1.5615793      0.85509592   
     38000  -6113.0507     -6182.2321      69.181347      27470.772      413.28973      8257.5125      1.5650473      0.82554297   
     38100  -6112.9944     -6180.5583      67.563858      24079.833      403.62684      8244.9166      1.5674383      0.82554297   
     38200  -6113.3871     -6181.1269      67.739855      26869.423      404.67824      8239.54        1.5684611      0.82554297   
     38300  -6112.4472     -6181.5889      69.141698      30376.017      413.05286      8240.747       1.5682314      0.82554297   
     38400  -6114.6486     -6184.1767      69.528171      30569.018      415.36165      8246.3651      1.567163       0.82554297   
     38500  -6114.0667     -6182.618       68.551359      30324.664      409.52617      8254.6518      1.5655897      0.82554297   
     38600  -6113.8307     -6181.0857      67.255075      30782.334      401.78217      8264.9567      1.5636377      0.82554297   
     38700  -6114.7383     -6184.0203      69.282055      27380.763      413.89135      8277.3725      1.5612923      0.82554297   
     38800  -6114.0831     -6182.8994      68.816306      28188.287      411.10896      8284.8005      1.5598925      0.82554297   
     38900  -6111.86       -6181.4792      69.619183      27125.205      415.90536      8288.4664      1.5592025      0.82554297   
     39000  -6111.196      -6180.8566      69.660579      27641.53       416.15266      8290.3502      1.5588482      0.84679009   
     39100  -6113.9001     -6182.8809      68.980722      24939.181      412.09119      8289.0895      1.5590853      0.84679009   
     39200  -6113.2475     -6183.4047      70.157224      24661.225      419.11961      8281.6277      1.5604901      0.84679009   
     39300  -6110.7252     -6180.9678      70.242527      29024.045      419.62922      8269.459       1.5627864      0.84679009   
     39400  -6109.6527     -6179.8469      70.194212      32022.271      419.34058      8259.2241      1.564723       0.84679009   
     39500  -6110.6664     -6181.9021      71.235771      23431.85       425.56286      8253.6663      1.5657766      0.84679009   
     39600  -6114.4177     -6182.8114      68.393722      27522.262      408.58445      8251.26        1.5662333      0.84679009   
     39700  -6110.4437     -6180.3374      69.893737      25354.53       417.54555      8251.4577      1.5661957      0.84679009   
     39800  -6113.9701     -6183.5233      69.553217      26910.571      415.51128      8258.2378      1.5649099      0.84679009   
     39900  -6114.573      -6179.6076      65.034586      27332.909      388.51695      8267.8985      1.5630814      0.84679009   
     40000  -6117.0109     -6184.8193      67.808403      27460.101      405.08775      8273.7564      1.5619747      0.72715365   
     40100  -6117.4316     -6182.4485      65.016818      26334.845      388.41081      8270.0415      1.5626763      0.72715365   
     40200  -6116.7801     -6186.4379      69.657827      27617.259      416.13621      8260.6294      1.5644568      0.72715365   
     40300  -6115.1932     -6181.7248      66.531649      31847.952      397.46042      8244.3865      1.5675391      0.72715365   
     40400  -6115.5211     -6183.1232      67.60215       30605.565      403.85559      8229.6557      1.5703449      0.72715365   
     40500  -6114.0111     -6183.5411      69.530059      29939.717      415.37293      8218.5681      1.5724634      0.72715365   
     40600  -6115.4797     -6182.0211      66.541332      29591.747      397.51826      8214.7367      1.5731969      0.72715365   
     40700  -6115.2653     -6183.4747      68.209336      29191.354      407.48293      8221.4291      1.5719162      0.72715365   
     40800  -6114.7505     -6183.5722      68.821631      27138.36       411.14078      8232.883       1.5697293      0.72715365   
     40900  -6116.0044     -6183.7728      67.768464      26366.038      404.84916      8248.0488      1.566843       0.72715365   
     41000  -6118.1959     -6185.7672      67.571265      25823.367      403.67109      8261.044       1.5643783      0.89346992   
     41100  -6117.8349     -6185.0026      67.16768       26484.132      401.26007      8266.5533      1.5633357      0.89346992   
     41200  -6116.0852     -6184.6424      68.557158      30752.582      409.56082      8265.2468      1.5635828      0.89346992   
     41300  -6115.7498     -6184.7598      69.009954      32100.928      412.26582      8259.3184      1.5647051      0.89346992   
     41400  -6115.0905     -6183.6708      68.580373      30267.407      409.6995       8250.1186      1.5664499      0.89346992   
     41500  -6115.1865     -6183.207       68.020446      28707.137      406.35449      8241.9659      1.5679994      0.89346992   
     41600  -6112.4088     -6180.7086      68.299795      29860.051      408.02333      8236.3927      1.5690604      0.89346992   
     41700  -6112.9125     -6182.0915      69.179022      29069.552      413.27584      8237.7185      1.5688079      0.89346992   
     41800  -6113.0814     -6182.3827      69.301359      31219.699      414.00667      8244.9027      1.5674409      0.89346992   
     41900  -6113.1026     -6181.9245      68.821949      28860.227      411.14268      8257.4861      1.5650523      0.89346992   
     42000  -6113.7777     -6181.9178      68.140075      25392.641      407.06916      8271.3467      1.5624297      0.87379959   
     42100  -6113.4515     -6181.6286      68.177093      22728.064      407.29031      8283.5424      1.5601294      0.87379959   
     42200  -6112.3836     -6185.1581      72.774456      25516.302      434.75498      8290.7431      1.5587744      0.87379959   
     42300  -6111.2696     -6181.061       69.791383      28764.348      416.93408      8292.4312      1.5584571      0.87379959   
     42400  -6110.9814     -6180.7135      69.732102      31347.179      416.57993      8294.7572      1.55802        0.87379959   
     42500  -6111.984      -6182.3322      70.348174      26625.718      420.26035      8296.453       1.5577016      0.87379959   
     42600  -6112.0916     -6182.6984      70.606768      30705.81       421.8052       8294.6029      1.558049       0.87379959   
     42700  -6111.1093     -6181.5256      70.416296      29231.356      420.66732      8289.6621      1.5589776      0.87379959   
     42800  -6113.7506     -6182.9405      69.189912      29211.588      413.34089      8284.9077      1.5598723      0.87379959   
     42900  -6112.8009     -6182.3188      69.517912      31850.218      415.30036      8278.9461      1.5609955      0.87379959   
     43000  -6112.7914     -6181.1515      68.360046      28273.237      408.38327      8273.6568      1.5619935      0.81771197   
     43100  -6111.9444     -6181.515       69.570544      26828.106      415.61479      8269.5858      1.5627624      0.81771197   
     43200  -6114.5606     -6182.4026      67.841964      26815.657      405.28824      8267.3878      1.5631779      0.81771197   
     43300  -6116.4046     -6184.4298      68.025163      25465.276      406.38267      8264.2304      1.5637751      0.81771197   
     43400  -6113.4739     -6181.8377      68.363865      26260.015      408.40608      8258.7718      1.5648087      0.81771197   
     43500  -6116.2265     -6185.0527      68.826232      30546.962      411.16826      8256.2214      1.5652921      0.81771197   
     43600  -6117.007      -6184.6705      67.663434      30747.131      404.22171      8254.4382      1.5656302      0.81771197   
     43700  -6116.6542     -6182.6782      66.023975      31672.926      394.42757      8251.7504      1.5661402      0.81771197   
     43800  -6116.09       -6184.4452      68.355215      29997.131      408.35441      8250.4254      1.5663917      0.81771197   
     43900  -6115.7676     -6184.3117      68.544094      28689.364      409.48277      8251.0455      1.566274       0.81771197   
     44000  -6115.999      -6182.4406      66.441632      26865.973      396.92265      8254.0955      1.5656952      0.85135816   
     44100  -6117.0254     -6184.708       67.682529      26537.493      404.33578      8259.3952      1.5646906      0.85135816   
     44200  -6116.2593     -6183.6177      67.358394      26243.715      402.39939      8265.0392      1.5636221      0.85135816   
     44300  -6115.9839     -6184.0423      68.058325      25405.947      406.58078      8266.9731      1.5632563      0.85135816   
     44400  -6114.455      -6181.1692      66.714235      24961.415      398.55118      8265.3076      1.5635713      0.85135816   
     44500  -6113.9182     -6182.4904      68.572274      23988.044      409.65112      8265.7331      1.5634908      0.85135816   
     44600  -6112.578      -6181.2317      68.653686      27986.359      410.13748      8272.3084      1.5622481      0.85135816   
     44700  -6115.7453     -6182.2916      66.546311      29932.117      397.548        8282.2913      1.560365       0.85135816   
     44800  -6115.4965     -6183.6858      68.18938       24868.281      407.36371      8293.1875      1.5583149      0.85135816   
     44900  -6114.7393     -6184.712       69.972739      26439.976      418.0175       8298.2752      1.5573595      0.85135816   
     45000  -6112.4738     -6180.6419      68.168136      27715.176      407.23679      8301.366       1.5567797      0.93245337   
     45100  -6113.2054     -6184.5957      71.390366      26860.194      426.48641      8304.4865      1.5561947      0.93245337   
     45200  -6113.5113     -6180.7702      67.258861      28354.395      401.80478      8303.0883      1.5564567      0.93245337   
     45300  -6113.786      -6183.1491      69.363111      29353.224      414.37558      8300.6099      1.5569215      0.93245337   
     45400  -6110.8703     -6181.1878      70.317479      27124.113      420.07698      8292.8844      1.5583719      0.93245337   
     45500  -6108.5353     -6179.4794      70.944085      29158.536      423.82033      8285.4307      1.5597738      0.93245337   
     45600  -6109.0174     -6181.9915      72.97403       30468.881      435.94723      8281.7579      1.5604656      0.93245337   
     45700  -6110.0799     -6180.3917      70.311767      29251.414      420.04286      8281.2037      1.56057        0.93245337   
     45800  -6106.2926     -6177.4552      71.162687      30603.312      425.12626      8286.8423      1.5595081      0.93245337   
     45900  -6107.6218     -6178.3585      70.736723      27555.988      422.58155      8300.8872      1.5568695      0.93245337   
     46000  -6109.4163     -6177.8956      68.479289      26056.387      409.09563      8315.0174      1.5542238      0.8049951    
     46100  -6111.8041     -6179.4249      67.620803      26708.224      403.96703      8322.4719      1.5528317      0.8049951    
     46200  -6111.2881     -6182.3263      71.038205      24571.773      424.3826       8319.4916      1.5533879      0.8049951    
     46300  -6113.4162     -6181.3353      67.919072      26422.888      405.74888      8306.9949      1.5557248      0.8049951    
     46400  -6112.9119     -6180.2375      67.325613      29245.515      402.20356      8287.4194      1.5593995      0.8049951    
     46500  -6113.3252     -6182.0191      68.693908      25730.306      410.37776      8263.2156      1.5639672      0.8049951    
     46600  -6112.382      -6181.1753      68.793238      28259.584      410.97116      8237.858       1.5687813      0.8049951    
     46700  -6113.9353     -6182.7272      68.791856      24563.716      410.9629       8216.4919      1.5728608      0.8049951    
     46800  -6115.9842     -6182.8303      66.846127      24270.777      399.33911      8202.9679      1.5754539      0.8049951    
     46900  -6115.0496     -6183.5436      68.493951      27574.404      409.18322      8197.4662      1.5765113      0.8049951    
     47000  -6113.5664     -6181.4225      67.856104      26264.049      405.37271      8202.5616      1.575532       0.92394375   
     47100  -6113.7948     -6181.5376      67.74288       26094.297      404.69631      8218.7176      1.5724348      0.92394375   
     47200  -6113.2059     -6179.7408      66.534835      28654.804      397.47945      8239.8993      1.5683927      0.92394375   
     47300  -6115.7705     -6185.0531      69.282608      31192.076      413.89465      8266.6091      1.5633251      0.92394375   
     47400  -6116.5533     -6183.0656      66.512336      29598.551      397.34504      8285.419       1.559776       0.92394375   
     47500  -6115.2392     -6183.9366      68.697343      25198.097      410.39828      8292.6451      1.5584168      0.92394375   
     47600  -6114.4668     -6181.6189      67.152053      24508.483      401.16671      8288.4875      1.5591986      0.92394375   
     47700  -6111.8813     -6181.7496      69.868316      23844.717      417.39368      8275.0514      1.5617302      0.92394375   
     47800  -6111.5027     -6181.8         70.297283      28184.755      419.95633      8257.573       1.5650359      0.92394375   
     47900  -6109.642      -6178.5037      68.861788      25780.425      411.38068      8238.5128      1.5686566      0.92394375   
     48000  -6110.0886     -6179.8506      69.762029      27755.32       416.75872      8227.8629      1.5706871      0.78594953   
     48100  -6109.8964     -6180.0507      70.15437       26310.252      419.10257      8227.5074      1.5707549      0.78594953   
     48200  -6109.1489     -6179.8716      70.72268       24857.321      422.49766      8236.1844      1.5691001      0.78594953   
     48300  -6111.4438     -6180.9915      69.547698      28461.691      415.47831      8254.0149      1.5657105      0.78594953   
     48400  -6115.39       -6184.6245      69.23446       26284.129      413.60702      8274.818       1.5617743      0.78594953   
     48500  -6114.5483     -6183.2957      68.747445      28322.24       410.69759      8291.0012      1.5587258      0.78594953   
     48600  -6115.4501     -6182.4795      67.029483      27240.038      400.43448      8298.791       1.5572627      0.78594953   
     48700  -6116.2175     -6182.4228      66.205268      27505.792      395.51061      8297.4976      1.5575055      0.78594953   
     48800  -6116.1764     -6183.4158      67.239354      29613.209      401.68825      8286.3269      1.5596051      0.78594953   
     48900  -6114.5733     -6182.451       67.877644      31650.584      405.5014       8265.5843      1.563519       0.78594953   
     49000  -6116.081      -6182.9494      66.868387      28693.361      399.47209      8242.6538      1.5678686      0.809499     
     49100  -6115.2582     -6183.4958      68.237634      28479.446      407.65197      8220.3174      1.5721288      0.809499     
     49200  -6115.0902     -6183.9829      68.89265       27315.289      411.56505      8206.577       1.5747611      0.809499     
     49300  -6113.6836     -6182.5497      68.86609       27754.403      411.40637      8202.4718      1.5755492      0.809499     
     49400  -6113.3394     -6183.1164      69.777025      30414.451      416.8483       8210.7848      1.573954       0.809499     
     49500  -6114.3775     -6183.9661      69.58856       28171.102      415.72241      8231.1515      1.5700595      0.809499     
     49600  -6114.3428     -6181.6816      67.338848      29207.376      402.28263      8259.3271      1.5647035      0.809499     
     49700  -6115.6051     -6183.8161      68.21099       27631.993      407.49281      8291.5045      1.5586312      0.809499     
     49800  -6116.2412     -6183.6142      67.372963      27796.709      402.48643      8315.8772      1.5540631      0.809499     
     49900  -6115.0008     -6183.5187      68.517943      28234.282      409.32655      8326.3997      1.5520992      0.809499     
     50000  -6116.7718     -6182.8337      66.061913      28100.615      394.65421      8321.7368      1.5529688      0.81442349   
     50100  -6115.3971     -6185.5148      70.117675      26902.839      418.88335      8305.6258      1.5559812      0.81442349   
     50200  -6115.1565     -6183.3034      68.146954      29673.247      407.11026      8279.4054      1.5609089      0.81442349   
     50300  -6115.4588     -6183.231       67.772198      26851.329      404.87146      8249.1192      1.5666397      0.81442349   
     50400  -6115.1272     -6183.2213      68.094118      28096.661      406.79461      8220.7083      1.5720541      0.81442349   
     50500  -6112.9372     -6183.3867      70.449541      32206.325      420.86592      8198.6445      1.5762847      0.81442349   
     50600  -6114.7413     -6182.6677      67.926426      32775.185      405.79282      8191.893       1.5775838      0.81442349   
     50700  -6116.3146     -6183.0738      66.759245      28861.647      398.82008      8198.4594      1.5763203      0.81442349   
     50800  -6115.761      -6182.7841      67.02309       33038.815      400.39629      8213.4956      1.5734346      0.81442349   
     50900  -6116.0387     -6182.2054      66.166656      24358.391      395.27995      8233.0783      1.5696921      0.81442349   
     51000  -6115.1449     -6183.3506      68.205664      23385.675      407.46099      8253.4024      1.5658267      0.98864167   
     51100  -6117.8537     -6185.7781      67.924478      26015.611      405.78118      8267.5419      1.5631488      0.98864167   
     51200  -6114.5861     -6182.432       67.845922      26953.836      405.31189      8273.2623      1.562068       0.98864167   
     51300  -6113.3109     -6182.1146      68.803628      23508.812      411.03323      8274.1589      1.5618987      0.98864167   
     51400  -6112.2202     -6181.6333      69.413113      28544.755      414.67429      8271.0228      1.5624909      0.98864167   
     51500  -6111.5361     -6181.9786      70.442546      29218.296      420.82413      8262.7783      1.5640499      0.98864167   
     51600  -6112.2483     -6182.5252      70.276939      29362.25       419.83479      8254.4223      1.5656332      0.98864167   
     51700  -6111.803      -6183.085       71.281933      31814.416      425.83864      8248.3882      1.5667786      0.98864167   
     51800  -6110.453      -6178.9548      68.501819      25999.211      409.23022      8245.2602      1.567373       0.98864167   
     51900  -6110.7045     -6182.0519      71.347334      23123.722      426.22934      8249.3281      1.5666001      0.98864167   
     52000  -6111.3147     -6180.0186      68.703875      25636.285      410.4373       8254.352       1.5656466      0.83120056   
     52100  -6112.202      -6181.0859      68.883849      28094.924      411.51247      8263.1037      1.5639883      0.83120056   
     52200  -6112.2969     -6181.6234      69.326499      25590.871      414.15686      8272.7348      1.5621675      0.83120056   
     52300  -6112.8078     -6180.2812      67.473455      27762.097      403.08677      8280.6662      1.5606713      0.83120056   
     52400  -6114.3652     -6182.223       67.857806      23815.56       405.38288      8283.6756      1.5601043      0.83120056   
     52500  -6113.8893     -6184.139       70.249649      28812.556      419.67177      8278.5054      1.5610786      0.83120056   
     52600  -6114.313      -6183.2995      68.986473      26492.415      412.12555      8265.4417      1.5635459      0.83120056   
     52700  -6112.3066     -6181.2668      68.960178      33651.725      411.96846      8248.0654      1.5668399      0.83120056   
     52800  -6115.0539     -6182.8656      67.811765      32358.48       405.10783      8232.0248      1.569893       0.83120056   
     52900  -6115.642      -6182.879       67.237033      30593.866      401.67438      8218.9461      1.5723911      0.83120056   
     53000  -6116.9059     -6181.6316      64.725664      28608.935      386.67145      8209.2811      1.5742423      0.86009385   
     53100  -6113.6031     -6182.3695      68.766421      31482.628      410.81096      8204.2458      1.5752085      0.86009385   
[...]
   2006100  -6114.4415     -6183.7311      69.289576      21833.327      413.93628      8291.842       1.5585678      0.9090287    
   2006200  -6114.0051     -6183.5642      69.559101      27446.461      415.54643      8280.635       1.5606772      0.9090287    
   2006300  -6114.3617     -6183.1238      68.76213       33535.922      410.78532      8263.0026      1.5640075      0.9090287    
   2006400  -6114.8572     -6183.5572      68.699971      33819.479      410.41398      8241.9395      1.5680045      0.9090287    
   2006500  -6113.6628     -6181.2751      67.612266      32424.403      403.91603      8217.9468      1.5725823      0.9090287    
   2006600  -6115.687      -6185.3402      69.653234      29772.012      416.10878      8200.8567      1.5758595      0.9090287    
   2006700  -6115.0185     -6183.8401      68.821617      28373.414      411.14069      8190.069       1.5779352      0.9090287    
   2006800  -6112.0112     -6181.3291      69.317991      25593.516      414.10604      8189.026       1.5781361      0.9090287    
   2006900  -6113.2648     -6182.703       69.438216      29611.356      414.82426      8200.8095      1.5758686      0.9090287    
   2007000  -6115.5073     -6183.8044      68.297037      30698.643      408.00685      8226.7127      1.5709067      0.80154253   
   2007100  -6116.9585     -6185.3188      68.36036       25317.57       408.38514      8258.0088      1.5649533      0.80154253   
   2007200  -6119.3353     -6185.6274      66.292114      26311.363      396.02943      8281.8662      1.5604451      0.80154253   
   2007300  -6121.0977     -6185.7652      64.667457      25926.444      386.32372      8293.886       1.5581837      0.80154253   
   2007400  -6117.9083     -6184.5645      66.656151      23413.767      398.20419      8293.0203      1.5583463      0.80154253   
   2007500  -6114.2558     -6182.857       68.601209      22884.793      409.82398      8278.511       1.5610776      0.80154253   
   2007600  -6113.2666     -6182.9356      69.669028      29373.489      416.20313      8256.5267      1.5652342      0.80154253   
   2007700  -6111.889      -6178.4066      66.517577      32405.885      397.37635      8231.9433      1.5699085      0.80154253   
   2007800  -6112.4981     -6183.0713      70.573162      33234.819      421.60443      8215.1397      1.5731197      0.80154253   
   2007900  -6111.8095     -6182.4295      70.620071      34407.226      421.88467      8205.1005      1.5750444      0.80154253   
   2008000  -6111.7503     -6182.1528      70.402495      27779.806      420.58487      8202.5785      1.5755287      0.89977559   
   2008100  -6110.8325     -6182.4714      71.638892      28222.918      427.97111      8210.3784      1.574032       0.89977559   
   2008200  -6112.4303     -6182.0056      69.575243      27543.939      415.64286      8225.9164      1.5710587      0.89977559   
   2008300  -6113.879      -6183.6116      69.732683      26237.152      416.58341      8245.917       1.5672481      0.89977559   
   2008400  -6114.3527     -6184.3441      69.991459      21956.8        418.12934      8264.4049      1.5637421      0.89977559   
   2008500  -6112.8378     -6182.5033      69.665538      28260.435      416.18228      8273.3803      1.5620457      0.89977559   
   2008600  -6112.2583     -6181.4059      69.147569      26233.694      413.08793      8274.1795      1.5618948      0.89977559   
   2008700  -6112.0997     -6182.0627      69.96302       21503.204      417.95944      8269.1391      1.5628468      0.89977559   
   2008800  -6112.6277     -6180.6269      67.999234      26155.91       406.22778      8259.3426      1.5647005      0.89977559   
   2008900  -6115.9572     -6184.5127      68.555502      26006.927      409.55092      8248.7252      1.5667146      0.89977559   
   2009000  -6114.284      -6180.5649      66.280882      28704.724      395.96233      8238.0398      1.5687467      0.9487476    
   2009100  -6114.9606     -6181.756       66.795393      24303.584      399.03602      8229.4386      1.5703863      0.9487476    
   2009200  -6113.5611     -6181.6168      68.055621      27857.309      406.56463      8221.5225      1.5718984      0.9487476    
   2009300  -6113.1071     -6182.5533      69.446262      29581.805      414.87233      8215.3146      1.5730862      0.9487476    
   2009400  -6113.8541     -6182.3379      68.483786      29287.782      409.12249      8214.7842      1.5731877      0.9487476    
   2009500  -6115.7281     -6182.9611      67.232984      28993.509      401.65019      8218.8467      1.5724101      0.9487476    
   2009600  -6114.7347     -6181.4416      66.706851      25942.421      398.50707      8225.3685      1.5711634      0.9487476    
   2009700  -6111.5934     -6181.5904      69.997033      29884.557      418.16264      8233.1659      1.5696754      0.9487476    
   2009800  -6113.0485     -6182.7244      69.67582       32117.582      416.24371      8243.7778      1.5676548      0.9487476    
   2009900  -6112.7944     -6184.8012      72.006768      28958.884      430.1688       8253.6416      1.5657813      0.9487476    
   2010000  -6110.3763     -6180.4878      70.111499      31072.532      418.84646      8258.7467      1.5648134      0.8264402    
   2010100  -6111.3372     -6180.6515      69.314325      29227.415      414.08413      8261.9976      1.5641977      0.8264402    
   2010200  -6109.3908     -6180.2551      70.864387      28895.846      423.34422      8265.5727      1.5635212      0.8264402    
   2010300  -6111.1429     -6180.2693      69.12633       25037.818      412.96105      8267.2042      1.5632126      0.8264402    
   2010400  -6111.2156     -6180.1829      68.967322      24149.326      412.01114      8266.4822      1.5633492      0.8264402    
   2010500  -6110.9018     -6180.1409      69.239138      28512.337      413.63497      8262.1236      1.5641739      0.8264402    
   2010600  -6111.1903     -6179.0988      67.908455      29849.446      405.68546      8255.5804      1.5654136      0.8264402    
   2010700  -6110.3939     -6180.207       69.813108      29681.445      417.06387      8250.3305      1.5664097      0.8264402    
   2010800  -6112.0127     -6181.6674      69.654688      29200.044      416.11747      8248.4195      1.5667726      0.8264402    
   2010900  -6112.6926     -6182.3679      69.675265      24990.289      416.24039      8248.6259      1.5667334      0.8264402    
   2011000  -6114.6562     -6181.7889      67.132728      25245.46       401.05126      8248.0284      1.5668469      0.81902317   
   2011100  -6114.3037     -6183.5631      69.259448      27849.987      413.7563       8243.4138      1.567724       0.81902317   
   2011200  -6117.0432     -6184.684       67.640782      27202.915      404.08638      8234.9763      1.5693303      0.81902317   
   2011300  -6115.4214     -6183.7732      68.351861      28405.483      408.33437      8225.9018      1.5710615      0.81902317   
   2011400  -6113.6627     -6181.7652      68.102415      30660.239      406.84418      8219.8373      1.5722206      0.81902317   
   2011500  -6114.6418     -6182.5838      67.941988      33375.687      405.88578      8219.7744      1.5722327      0.81902317   
   2011600  -6115.5467     -6182.1547      66.608074      32121.743      397.91698      8224.3834      1.5713516      0.81902317   
   2011700  -6115.1175     -6184.9692      69.851685      34258.377      417.29432      8234.4212      1.5694361      0.81902317   
   2011800  -6111.9397     -6181.3288      69.389071      31471.088      414.53067      8245.1912      1.5673861      0.81902317   
   2011900  -6113.0075     -6180.3046      67.297174      28094.412      402.03367      8257.0395      1.565137       0.81902317   
   2012000  -6110.0592     -6181.3394      71.280219      27903.463      425.8284       8270.8093      1.5625312      0.83348773   
   2012100  -6109.0318     -6178.4965      69.464757      23985.766      414.98282      8285.0528      1.559845       0.83348773   
   2012200  -6108.8        -6179.6501      70.850056      21298.479      423.2586       8301.9341      1.5566731      0.83348773   
   2012300  -6110.4765     -6180.1448      69.668354      22658.13       416.1991       8317.2494      1.5538067      0.83348773   
   2012400  -6109.5488     -6180.9696      71.420805      22502.811      426.66826      8324.6434      1.5524266      0.83348773   
   2012500  -6111.6447     -6180.4134      68.76873       26952.365      410.82475      8323.679       1.5526065      0.83348773   
   2012600  -6112.6187     -6183.8801      71.261401      28920.774      425.71598      8313.0556      1.5545906      0.83348773   
   2012700  -6111.8273     -6181.2028      69.375567      28349.667      414.44999      8291.5918      1.5586148      0.83348773   
   2012800  -6112.5418     -6182.965       70.42324       23061.108      420.7088       8264.7572      1.5636754      0.83348773   
   2012900  -6114.0512     -6181.3698      67.318601      27274.306      402.16167      8234.4652      1.5694277      0.83348773   
   2013000  -6113.6557     -6181.8912      68.235588      30525.515      407.63975      8207.0042      1.5746791      0.84036122   
   2013100  -6114.369      -6181.8075      67.438519      33705.523      402.87806      8188.9409      1.5781525      0.84036122   
   2013200  -6110.9471     -6182.5777      71.630668      30678.225      427.92198      8181.4957      1.5795887      0.84036122   
   2013300  -6112.8171     -6183.6976      70.880457      26521.781      423.44022      8192.0056      1.5775621      0.84036122   
   2013400  -6111.665      -6181.9433      70.278311      30218.411      419.84299      8218.5346      1.5724698      0.84036122   
   2013500  -6110.8152     -6180.5503      69.735126      31588.162      416.598        8256.5586      1.5652281      0.84036122   
   2013600  -6113.2797     -6183.2717      69.992015      28424.732      418.13266      8303.318       1.5564137      0.84036122   
   2013700  -6112.6759     -6181.9274      69.251486      26934.78       413.70874      8344.1723      1.5487933      0.84036122   
   2013800  -6114.684      -6183.9321      69.248023      27598.432      413.68805      8368.0136      1.5443806      0.84036122   
   2013900  -6117.9004     -6185.766       67.86554       24269.299      405.42909      8370.4136      1.5439378      0.84036122   
   2014000  -6115.2192     -6183.6383      68.41917       26982.616      408.73647      8348.1873      1.5480484      0.8412692    
   2014100  -6115.4322     -6183.014       67.581782      30924.177      403.73392      8306.2569      1.555863       0.8412692    
   2014200  -6113.6233     -6181.8703      68.246974      30393.261      407.70778      8258.936       1.5647776      0.8412692    
   2014300  -6110.1967     -6179.7079      69.511149      30711.573      415.25996      8218.5184      1.572473       0.8412692    
   2014400  -6112.222      -6181.0386      68.816614      31706.61       411.11081      8195.4149      1.5769059      0.8412692    
   2014500  -6113.4318     -6182.5965      69.16471       30418.551      413.19033      8190.2145      1.5779071      0.8412692    
   2014600  -6115.604      -6184.2618      68.657748      31633.422      410.16174      8202.1343      1.575614       0.8412692    
   2014700  -6116.7001     -6184.191       67.490881      32248.37       403.19087      8222.6232      1.571688       0.8412692    
   2014800  -6116.7917     -6184.5464      67.754634      32903.334      404.76653      8246.4562      1.5671456      0.8412692    
   2014900  -6116.0513     -6183.5935      67.542264      29411.425      403.49783      8268.5517      1.5629579      0.8412692    
   2015000  -6117.8843     -6183.6903      65.806078      26831.942      393.12585      8284.4535      1.5599578      0.85240128   
   2015100  -6117.6629     -6184.6948      67.031824      22696.123      400.44846      8292.5278      1.5584389      0.85240128   
   2015200  -6114.8048     -6183.0635      68.258713      24395.248      407.77791      8291.0802      1.558711       0.85240128   
   2015300  -6116.5392     -6183.5965      67.057249      24846.389      400.60035      8281.1173      1.5605863      0.85240128   
   2015400  -6115.8374     -6184.336       68.498593      28056.536      409.21094      8263.6872      1.5638779      0.85240128   
   2015500  -6114.9197     -6182.5427      67.622984      28035.978      403.98006      8244.6154      1.5674955      0.85240128   
   2015600  -6113.2995     -6182.5199      69.220392      32282.629      413.52298      8231.9213      1.5699127      0.85240128   
   2015700  -6112.7754     -6182.3295      69.554081      29665.147      415.51644      8227.4554      1.5707649      0.85240128   
   2015800  -6113.8844     -6182.9815      69.09711       25087.531      412.78649      8232.6636      1.5697712      0.85240128   
   2015900  -6114.3586     -6183.3238      68.965222      28684.388      411.99859      8245.1983      1.5673847      0.85240128   
   2016000  -6113.25       -6179.9084      66.658389      30574.786      398.21756      8258.5749      1.564846       0.9060706    
   2016100  -6113.2656     -6182.4428      69.177202      24093.554      413.26496      8271.4924      1.5624022      0.9060706    
   2016200  -6111.5702     -6178.6429      67.072679      28667.175      400.69253      8283.6729      1.5601048      0.9060706    
   2016300  -6114.7178     -6183.7407      69.022823      28575.124      412.3427       8297.141       1.5575724      0.9060706    
   2016400  -6116.5815     -6182.5982      66.016698      27565.678      394.3841       8300.9296      1.5568615      0.9060706    
   2016500  -6117.0842     -6182.9763      65.892175      31851.114      393.6402       8292.571       1.5584308      0.9060706    
   2016600  -6117.6084     -6184.0897      66.481299      27638.014      397.15962      8271.6234      1.5623774      0.9060706    
   2016700  -6116.5189     -6183.1462      66.62733       27157.817      398.03202      8242.7647      1.5678475      0.9060706    
   2016800  -6117.8943     -6183.4091      65.514796      30753.924      391.38573      8214.1136      1.5733162      0.9060706    
   2016900  -6116.5193     -6182.1762      65.65685       29832.98       392.23436      8192.2208      1.5775207      0.9060706    
   2017000  -6117.7171     -6183.829       66.111975      27033.222      394.95328      8179.4999      1.5799741      0.76284024   
   2017100  -6117.0002     -6182.2345      65.234295      30012.263      389.71001      8174.9771      1.5808482      0.76284024   
   2017200  -6117.8971     -6184.3543      66.457228      28268.166      397.01582      8178.469       1.5801732      0.76284024   
   2017300  -6117.5049     -6182.3324      64.827447      27547.118      387.2795       8188.9157      1.5781574      0.76284024   
   2017400  -6116.6798     -6185.888       69.208189      25382.955      413.45008      8206.3394      1.5748067      0.76284024   
   2017500  -6114.9086     -6181.5767      66.668114      32373.03       398.27566      8225.7056      1.571099       0.76284024   
   2017600  -6113.507      -6182.2153      68.708345      30027.546      410.46401      8246.3131      1.5671728      0.76284024   
   2017700  -6112.7313     -6183.5663      70.834955      28272.642      423.16839      8264.707       1.5636849      0.76284024   
   2017800  -6113.0606     -6182.642       69.58143       24809.527      415.67982      8277.9778      1.5611781      0.76284024   
   2017900  -6109.8077     -6180.3167      70.509037      28618.856      421.22135      8287.448       1.5593941      0.76284024   
   2018000  -6109.404      -6181.6708      72.266888      29209.77       431.72276      8294.8402      1.5580044      0.86255426   
   2018100  -6110.0663     -6180.7115      70.645212      28726.401      422.03486      8297.1419      1.5575722      0.86255426   
   2018200  -6109.3956     -6179.0325      69.636857      28966.362      416.01094      8292.924       1.5583644      0.86255426   
   2018300  -6112.2711     -6181.2704      68.99931       28901.139      412.20224      8284.7382      1.5599042      0.86255426   
   2018400  -6110.4828     -6180.4182      69.935377      27943.505      417.7943       8273.9234      1.5619431      0.86255426   
   2018500  -6110.2907     -6179.558       69.267302      30170.112      413.80322      8262.563       1.5640907      0.86255426   
   2018600  -6110.5139     -6180.0082      69.494389      29346.804      415.15984      8249.9468      1.5664826      0.86255426   
   2018700  -6110.2094     -6181.3446      71.135126      28124.876      424.96161      8237.992       1.5687558      0.86255426   
   2018800  -6110.7902     -6180.2769      69.486751      27624.09       415.11421      8231.7653      1.5699425      0.86255426   
   2018900  -6107.5187     -6178.9619      71.44317       30345.957      426.80187      8232.7752      1.5697499      0.86255426   
   2019000  -6110.6557     -6181.0844      70.428744      32368.363      420.74168      8241           1.5681832      0.79261501   
   2019100  -6111.6425     -6182.0223      70.379867      30385.487      420.44969      8252.5338      1.5659915      0.79261501   
   2019200  -6112.4023     -6181.6641      69.261864      22831.445      413.77073      8265.7341      1.5634906      0.79261501   
   2019300  -6113.6077     -6181.42        67.812324      22408.43       405.11117      8274.396       1.5618539      0.79261501   
   2019400  -6115.0516     -6182.9657      67.914109      22495.148      405.71924      8276.587       1.5614405      0.79261501   
   2019500  -6116.442      -6183.9731      67.531167      26579.273      403.43154      8269.3977      1.562798       0.79261501   
   2019600  -6116.6277     -6184.2088      67.581149      27540.937      403.73013      8249.7266      1.5665244      0.79261501   
   2019700  -6117.0562     -6184.0077      66.951495      28295.271      399.96858      8221.1403      1.5719714      0.79261501   
   2019800  -6116.8069     -6183.9203      67.113409      33577.322      400.93585      8187.8729      1.5783584      0.79261501   
   2019900  -6116.6612     -6182.481       65.819828      33772.85       393.20799      8158.6997      1.5840022      0.79261501   
   2020000  -6115.2693     -6181.0372      65.767957      34915.842      392.89811      8139.4256      1.5877531      0.80227663   
   2020033  -6114.9692     -6184.0415      69.072258      29187.464      412.63803      8136.2296      1.5883767      0.80227663   
Loop time of 8644.56 on 1 procs for 2000000 steps with 1296 atoms

Performance: 9.995 ns/day, 2.401 hours/ns, 231.359 timesteps/s, 299.842 katom-step/s
99.7% CPU use with 1 MPI tasks x 1 OpenMP threads

MPI task timing breakdown:
Section |  min time  |  avg time  |  max time  |%varavg| %total
---------------------------------------------------------------
Pair    | 6604.3     | 6604.3     | 6604.3     |   0.0 | 76.40
Neigh   | 87.855     | 87.855     | 87.855     |   0.0 |  1.02
Comm    | 89.119     | 89.119     | 89.119     |   0.0 |  1.03
Output  | 9.0576     | 9.0576     | 9.0576     |   0.0 |  0.10
Modify  | 1809       | 1809       | 1809       |   0.0 | 20.93
Other   |            | 45.23      |            |       |  0.52

Nlocal:           1296 ave        1296 max        1296 min
Histogram: 1 0 0 0 0 0 0 0 0 0
Nghost:           4440 ave        4440 max        4440 min
Histogram: 1 0 0 0 0 0 0 0 0 0
Neighs:              0 ave           0 max           0 min
Histogram: 1 0 0 0 0 0 0 0 0 0
FullNghs:       235918 ave      235918 max      235918 min
Histogram: 1 0 0 0 0 0 0 0 0 0

Total # of neighbors = 235918
Ave neighs/atom = 182.03549
Neighbor list builds = 200000
Dangerous builds = 200000

unfix		3
unfix		4
Total wall time: 2:25:32
