LAMMPS (7 Feb 2024 - Update 1)
KOKKOS mode with Kokkos version 4.2.0 is enabled (src/KOKKOS/kokkos.cpp:72)
  will use up to 4 GPU(s) per node
  using 1 OpenMP thread(s) per MPI task
package kokkos
package kokkos newton on neigh half

units		metal						## E in [eV], t in [ps], P in [10000 Pa], l in [A]
atom_style	atomic						## mass x y z vx vy vz

neighbor	0.5 bin						## neighbor list, skin = 0.5 Angstrom
neigh_modify	every 2 delay 10 check yes			## update of neighbor list

############################## main variables
variable        seed equal 70224

variable	temperature equal 365
variable	tempDamp equal 0.1

variable        pressure equal 15000
variable        pressureDamp equal 1.0 				# This is 1 ps

##############################

read_data water.dat
Reading data file ...
  triclinic box = (0 0 0) to (24.989956 24.989919 23.167336) with tilt (-0.22207236 -0.16357316 -0.098737559)
  2 by 2 by 1 MPI processor grid
  reading atoms ...
  1920 atoms
  read_data CPU = 0.013 seconds

mass		1 1.008    # H
mass		2 15.9994  # O


pair_style	pace/extrapolation
ACE/AL version: 2023.11.25
pair_coeff	* * /home/cicn/cicn607503/pd/pot_dir/interim_potential_ladder_step_1.yaml /home/cicn/cicn607503/pd/pot_dir/interim_potential_ladder_step_1.asi H O
Loading /home/cicn/cicn607503/pd/pot_dir/interim_potential_ladder_step_1.yaml
Total number of basis functions
	H: 23 (r=1) 664 (r>1)
	O: 23 (r=1) 664 (r>1)
Mapping LAMMPS atom type #1(H) -> ACE species type #0
Mapping LAMMPS atom type #2(O) -> ACE species type #1
Loading ASI /home/cicn/cicn607503/pd/pot_dir/interim_potential_ladder_step_1.asi
LINEAR ASI is loaded

fix pace_gamma all pair 1000 pace/extrapolation gamma 1
compute max_pace_gamma all reduce max f_pace_gamma
variable dump_skip equal "c_max_pace_gamma < 10"

dump pace_dump all custom 1000 extrapolative_structures.dump id type x y z f_pace_gamma
dump_modify pace_dump skip v_dump_skip
dump_modify pace_dump element H O

variable max_pace_gamma equal c_max_pace_gamma

timestep	0.0005						## timestep = 0.0005*ps = 0.5 fs

thermo		100
thermo_style custom step etotal pe ke press temp vol density c_max_pace_gamma


min_style cg/kk
minimize 0.0 5.0e-4 10000 100000
Switching to 'neigh_modify every 1 delay 0 check yes' setting during minimization
Neighbor list info ...
  update: every = 1 steps, delay = 0 steps, check = yes
  max neighbors/atom: 2000, page size: 100000
  master list distance cutoff = 6.5
  ghost atom cutoff = 6.5
  binsize = 6.5, bins = 4 4 4
  1 neighbor lists, perpetual/occasional/extra = 1 0 0
  (1) pair pace/extrapolation/kk, perpetual
      attributes: full, newton on, kokkos_device
      pair build: full/bin/kk/device
      stencil: full/bin/3d
      bin: kk/device
WARNING: Fix with atom-based arrays not compatible with sending data in Kokkos communication, switching to classic exchange/border communication (src/KOKKOS/comm_kokkos.cpp:666)
WARNING: Fix with atom-based arrays not compatible with Kokkos sorting on device, switching to classic host sorting (src/KOKKOS/atom_kokkos.cpp:218)
Per MPI rank memory allocation (min/avg/max) = 423.1 | 425.1 | 428.5 Mbytes
   Step         TotEng         PotEng         KinEng         Press           Temp          Volume        Density     c_max_pace_gamma
         0  -9257.6624     -9257.6624      0              4199.2215      0              14467.932      1.3233249      0.59040827   
       100  -9273.0754     -9273.0754      0             -8062.4723      0              14467.932      1.3233249      0.59040827   
       200  -9273.115      -9273.115       0             -8132.5793      0              14467.932      1.3233249      0.59040827   
       300  -9273.1151     -9273.1151      0             -8129.1373      0              14467.932      1.3233249      0.59040827   
       330  -9273.1151     -9273.1151      0             -8129.2551      0              14467.932      1.3233249      0.59040827   
Loop time of 1.33076 on 4 procs for 330 steps with 1920 atoms

99.6% CPU use with 4 MPI tasks x 1 OpenMP threads

Minimization stats:
  Stopping criterion = force tolerance
  Energy initial, next-to-last, final = 
     -9257.66239234844  -9273.11512032474  -9273.11512032964
  Force two-norm initial, final = 10.318152 0.00048118279
  Force max component initial, final = 0.72934274 3.957474e-05
  Final line search alpha, max atom move = 1 3.957474e-05
  Iterations, force evaluations = 330 660

MPI task timing breakdown:
Section |  min time  |  avg time  |  max time  |%varavg| %total
---------------------------------------------------------------
Pair    | 0.85473    | 0.86852    | 0.88893    |   1.3 | 65.27
Neigh   | 0.002076   | 0.0021547  | 0.0022421  |   0.1 |  0.16
Comm    | 0.20176    | 0.22269    | 0.23651    |   2.7 | 16.73
Output  | 0.00044573 | 0.00044731 | 0.00045115 |   0.0 |  0.03
Modify  | 0.1451     | 0.14919    | 0.15234    |   0.8 | 11.21
Other   |            | 0.08776    |            |       |  6.59

Nlocal:            480 ave         483 max         478 min
Histogram: 1 0 1 0 1 0 0 0 0 1
Nghost:         2633.5 ave        2637 max        2632 min
Histogram: 2 0 1 0 0 0 0 0 0 1
Neighs:              0 ave           0 max           0 min
Histogram: 4 0 0 0 0 0 0 0 0 0
FullNghs:        75282 ave       75862 max       74860 min
Histogram: 1 0 0 2 0 0 0 0 0 1

Total # of neighbors = 301128
Ave neighs/atom = 156.8375
Neighbor list builds = 5
Dangerous builds = 0

################## equilibration of main calculation
# Equilibrate to specified number of ice

fix             3 all nph tri ${pressure} ${pressure} ${pressureDamp}
fix             3 all nph tri 15000 ${pressure} ${pressureDamp}
fix             3 all nph tri 15000 15000 ${pressureDamp}
fix             3 all nph tri 15000 15000 1
fix             4 all temp/csvr ${temperature} ${temperature} ${tempDamp} ${seed}
fix             4 all temp/csvr 365 ${temperature} ${tempDamp} ${seed}
fix             4 all temp/csvr 365 365 ${tempDamp} ${seed}
fix             4 all temp/csvr 365 365 0.1 ${seed}
fix             4 all temp/csvr 365 365 0.1 70224
velocity 	all create ${temperature} ${seed} dist gaussian
velocity 	all create 365 ${seed} dist gaussian
velocity 	all create 365 70224 dist gaussian

run 200000
WARNING: Fix with atom-based arrays not compatible with sending data in Kokkos communication, switching to classic exchange/border communication (src/KOKKOS/comm_kokkos.cpp:666)
WARNING: Fix with atom-based arrays not compatible with Kokkos sorting on device, switching to classic host sorting (src/KOKKOS/atom_kokkos.cpp:218)
Per MPI rank memory allocation (min/avg/max) = 424.6 | 426.3 | 427.6 Mbytes
   Step         TotEng         PotEng         KinEng         Press           Temp          Volume        Density     c_max_pace_gamma
       330  -9182.5768     -9273.1151      90.53833      -1445.1214      365            14467.932      1.3233249      0.59040827   
       400  -9170.9699     -9216.5731      45.603255     -8376.3692      183.84687      14401.417      1.3294369      0.59040827   
       500  -9150.4124     -9205.864       55.451615      3875.5561      223.54995      14150.074      1.3530512      0.59040827   
       600  -9134.2707     -9202.4041      68.133379      12814.035      274.67575      13850.747      1.3822918      0.59040827   
       700  -9122.1374     -9199.3786      77.241164      16510.057      311.39325      13632.42       1.4044296      0.59040827   
       800  -9114.5147     -9191.8388      77.324048      19223.239      311.72739      13515.554      1.4165734      0.59040827   
       900  -9107.9008     -9189.5767      81.675884      21115.272      329.27157      13483.049      1.4199885      0.59040827   
      1000  -9103.9819     -9186.7968      82.814982      20914.092      333.86377      13523.724      1.4157176      0.69268493   
      1100  -9102.6899     -9185.5134      82.823456      18490.752      333.89793      13623.932      1.4053046      0.69268493   
      1200  -9100.8071     -9185.2786      84.471537      15331.349      340.54208      13760.773      1.3913299      0.69268493   
      1300  -9097.3972     -9184.2254      86.828158      14127.025      350.04266      13900.966      1.3772982      0.69268493   
      1400  -9097.8654     -9183.0081      85.142772      15867.879      343.24813      14012.15       1.3663696      0.69268493   
      1500  -9096.2143     -9184.9959      88.781529      9646.4097      357.91756      14080.31       1.3597552      0.69268493   
      1600  -9093.8082     -9178.6181      84.809961      12416.163      341.90642      14100.47       1.3578111      0.69268493   
      1700  -9092.2717     -9179.4898      87.218036      11308.637      351.61443      14081.461      1.3596441      0.69268493   
      1800  -9089.6752     -9176.2413      86.56606       9873.3873      348.98602      14034.074      1.364235       0.69268493   
      1900  -9088.3727     -9177.0307      88.657964      14478.502      357.41941      13976.319      1.3698725      0.69268493   
      2000  -9084.88       -9176.0235      91.14349       14875.628      367.43967      13922.437      1.375174       0.64844121   
      2100  -9084.3946     -9176.1773      91.782687      17173.094      370.01656      13884.356      1.3789458      0.64844121   
      2200  -9081.9751     -9174.7768      92.80168       19976.489      374.12456      13871.208      1.3802529      0.64844121   
      2300  -9083.1135     -9174.9547      91.84118       19779.032      370.25236      13882.146      1.3791653      0.64844121   
      2400  -9083.2535     -9174.5707      91.317245      15301.649      368.14015      13913.781      1.3760296      0.64844121   
      2500  -9083.1429     -9176.3447      93.201797      15038.374      375.73761      13960.763      1.3713989      0.64844121   
      2600  -9081.8682     -9176.0863      94.218119      14968.336      379.83485      14012.629      1.3663228      0.64844121   
      2700  -9083.793      -9175.6537      91.86067       13168.369      370.33094      14058.312      1.3618829      0.64844121   
      2800  -9084.9791     -9175.9301      90.950937      9925.2054      366.6634       14085.9        1.3592156      0.64844121   
      2900  -9085.0335     -9176.0191      90.98561       13463.681      366.80318      14094.297      1.3584058      0.64844121   
      3000  -9084.525      -9177.1517      92.626677      13656.694      373.41905      14086.454      1.3591621      0.69298546   
      3100  -9083.6812     -9173.9247      90.243434      15549.563      363.81115      14063.982      1.3613338      0.69298546   
      3200  -9083.7362     -9174.7526      91.016364      15900.418      366.92717      14033.4        1.3643005      0.69298546   
      3300  -9084.4305     -9172.1556      87.725116      16774.658      353.65869      14002.191      1.3673413      0.69298546   
      3400  -9083.2277     -9176.9517      93.723919      13763.193      377.84252      13974.003      1.3700995      0.69298546   
      3500  -9083.1036     -9175.56        92.456393      13111.358      372.73256      13951.748      1.372285       0.69298546   
      3600  -9084.4556     -9174.8638      90.408195      17882.208      364.47537      13939.239      1.3735165      0.69298546   
      3700  -9082.9174     -9175.1178      92.200342      15906.01       371.70031      13939.345      1.373506       0.69298546   
      3800  -9084.9575     -9178.2297      93.272251      17832.953      376.02165      13951.228      1.3723362      0.69298546   
      3900  -9083.6989     -9175.5229      91.824028      13226.326      370.18322      13970.702      1.3704232      0.69298546   
      4000  -9084.9275     -9173.8781      88.950633      15800.119      358.59929      13994.426      1.3681         0.69129448   
      4100  -9085.6416     -9176.3367      90.695085      14901.042      365.63195      14025.755      1.3650442      0.69129448   
      4200  -9086.225      -9177.9622      91.737225      13837.358      369.83328      14055.966      1.3621102      0.69129448   
      4300  -9087.0637     -9175.8305      88.766756      12500.931      357.858        14074.421      1.3603241      0.69129448   
      4400  -9085.348      -9176.5892      91.241212      14536.708      367.83363      14077.895      1.3599884      0.69129448   
      4500  -9088.3274     -9177.5604      89.233001      11441.518      359.73765      14066.396      1.3611002      0.69129448   
      4600  -9088.0784     -9178.7421      90.663622      12107.401      365.50511      14033.597      1.3642813      0.69129448   
      4700  -9086.2257     -9176.6993      90.473582      17028.043      364.73898      13983.161      1.3692022      0.69129448   
      4800  -9087.0364     -9174.9633      87.926956      16932.913      354.4724       13928.162      1.3746089      0.69129448   
      4900  -9085.8039     -9176.7865      90.982604      13788.877      366.79107      13882.213      1.3791587      0.69129448   
      5000  -9086.1999     -9176.0639      89.863923      16394.146      362.28117      13855.298      1.3818378      0.72728054   
      5100  -9085.7994     -9177.6595      91.860098      21019.087      370.32863      13850.743      1.3822922      0.72728054   
      5200  -9086.9433     -9175.0719      88.128535      18138.626      355.28505      13872.044      1.3801697      0.72728054   
      5300  -9088.0924     -9177.0191      88.926663      16595.622      358.50266      13916.824      1.3757287      0.72728054   
      5400  -9086.5846     -9175.9556      89.37097       16856.015      360.29386      13977.063      1.3697996      0.72728054   
      5500  -9086.9598     -9177.0392      90.079388      12260.548      363.14981      14044.586      1.3632139      0.72728054   
      5600  -9086.5976     -9174.5005      87.902829      11714.717      354.37513      14106.783      1.3572035      0.72728054   
      5700  -9088.8808     -9179.1567      90.275948      12006.347      363.94223      14148.88       1.3531654      0.72728054   
      5800  -9087.3045     -9177.4274      90.122826      13985.314      363.32492      14150.06       1.3530525      0.72728054   
      5900  -9083.4616     -9175.474       92.012361      17838.205      370.94247      14114.088      1.356501       0.72728054   
      6000  -9081.1711     -9175.7553      94.584266      14042.748      381.31096      14057.951      1.3619179      0.72580844   
      6100  -9080.5527     -9174.5387      93.986028      16035.926      378.89919      13995.004      1.3680435      0.72580844   
      6200  -9080.0151     -9171.9939      91.978828      17176.959      370.80729      13941.65       1.373279       0.72580844   
      6300  -9080.6514     -9172.6498      91.998386      19496.098      370.88613      13911.632      1.3762421      0.72580844   
      6400  -9083.2216     -9175.181       91.959381      17947.142      370.72889      13908.623      1.3765399      0.72580844   
      6500  -9082.3206     -9173.5561      91.235516      16244.348      367.81066      13927.319      1.374692       0.72580844   
      6600  -9083.9094     -9175.2651      91.355724      15342.403      368.29528      13960.31       1.3714434      0.72580844   
      6700  -9084.8668     -9174.3036      89.436783      12423.362      360.55918      13997.769      1.3677733      0.72580844   
      6800  -9084.9199     -9176.5102      91.590248      14021.596      369.24075      14031.841      1.3644521      0.72580844   
      6900  -9086.6565     -9176.8364      90.179868      14118.382      363.55488      14057.146      1.3619958      0.72580844   
      7000  -9086.781      -9175.8515      89.070559      14321.861      359.08277      14066.238      1.3611155      0.77180915   
      7100  -9085.9462     -9176.9998      91.053647      12366.675      367.07747      14056.583      1.3620504      0.77180915   
      7200  -9083.3692     -9175.186       91.816794      13509.458      370.15406      14033.125      1.3643272      0.77180915   
      7300  -9082.6775     -9174.8709      92.193419      18878.766      371.6724       14006.389      1.3669315      0.77180915   
      7400  -9085.7176     -9177.0442      91.32664       14336.037      368.17803      13981.469      1.3693679      0.77180915   
      7500  -9083.4567     -9176.7174      93.260636      15707.44       375.97482      13957.339      1.3717353      0.77180915   
      7600  -9084.1453     -9176.2654      92.120051      13926.871      371.37662      13938.687      1.3735709      0.77180915   
      7700  -9085.6801     -9175.9029      90.222837      16277.934      363.72811      13930.344      1.3743935      0.77180915   
      7800  -9085.3181     -9177.7462      92.428014      19073.568      372.61815      13935.534      1.3738817      0.77180915   
      7900  -9088.0177     -9177.1033      89.08558       14976.383      359.14332      13948.584      1.3725963      0.77180915   
      8000  -9087.7194     -9176.7184      88.99904       15420.222      358.79444      13965.481      1.3709356      0.74424606   
      8100  -9089.0179     -9177.9555      88.937649      13965.483      358.54695      13981.992      1.3693167      0.74424606   
      8200  -9088.8683     -9179.5792      90.710833      14689.798      365.69544      13992.849      1.3682542      0.74424606   
      8300  -9090.0068     -9179.5142      89.50744       15506.18       360.84403      13999.1        1.3676432      0.74424606   
      8400  -9089.5999     -9179.0745      89.474566      15749.716      360.7115       13995.377      1.3680071      0.74424606   
      8500  -9088.9929     -9178.3368      89.34386       15554.805      360.18457      13983.924      1.3691274      0.74424606   
      8600  -9090.2047     -9179.1925      88.987822      14920.556      358.74922      13970.709      1.3704225      0.74424606   
      8700  -9089.5306     -9176.9032      87.372652      16160.206      352.23775      13955.578      1.3719084      0.74424606   
      8800  -9089.2008     -9179.4163      90.215471      16448.886      363.69841      13940.342      1.3734079      0.74424606   
      8900  -9084.6389     -9177.8917      93.252828      12490.962      375.94334      13931.459      1.3742835      0.74424606   
      9000  -9085.4887     -9174.7428      89.25409       15001.353      359.82266      13934.604      1.3739734      0.77165065   
      9100  -9083.2703     -9174.5514      91.281182      15642.622      367.99477      13948.734      1.3725815      0.77165065   
      9200  -9082.7867     -9173.2685      90.481771      15756.269      364.77199      13972.432      1.3702535      0.77165065   
      9300  -9087.1035     -9179.7161      92.612534      16701.733      373.36203      14004.077      1.3671572      0.77165065   
      9400  -9088.1693     -9179.0738      90.904455      12101.193      366.47601      14032.952      1.3643441      0.77165065   
      9500  -9088.0928     -9177.7771      89.684363      11001.657      361.55728      14051.459      1.3625471      0.77165065   
      9600  -9086.6099     -9177.1613      90.551373      14630.537      365.05258      14051.557      1.3625376      0.77165065   
      9700  -9084.5121     -9174.4764      89.964271      16190.914      362.68572      14036.053      1.3640427      0.77165065   
      9800  -9082.6978     -9174.4478      91.749995      16470.792      369.88476      14011.377      1.3664449      0.77165065   
      9900  -9080.1803     -9172.4765      92.296183      16454.28       372.08668      13980.519      1.3694609      0.77165065   
     10000  -9082.897      -9176.1665      93.269496      15915.623      376.01054      13951.757      1.3722842      0.66506149   
     10100  -9081.5768     -9174.1943      92.617427      17243.994      373.38176      13933.472      1.374085       0.66506149   
     10200  -9084.3039     -9173.843       89.539182      14576.007      360.972        13932.693      1.3741618      0.66506149   
     10300  -9084.8524     -9176.9322      92.079804      16499.221      371.21437      13945.165      1.3729329      0.66506149   
     10400  -9088.3397     -9177.4004      89.060731      14813.428      359.04315      13962.107      1.3712668      0.66506149   
     10500  -9087.227      -9176.0793      88.85232       14486.924      358.20295      13976.087      1.3698952      0.66506149   
     10600  -9085.4777     -9176.5323      91.054612      12639.72       367.08136      13988.506      1.368679       0.66506149   
     10700  -9087.0275     -9176.9249      89.897353      16163.267      362.41594      14000.329      1.3675232      0.66506149   
     10800  -9087.1361     -9176.8344      89.698317      15459.965      361.61354      14010.192      1.3665605      0.66506149   
     10900  -9087.3824     -9178.567       91.184556      14193.23       367.60523      14011.919      1.3663921      0.66506149   
     11000  -9087.1915     -9177.6624      90.47093       16349.177      364.72828      14008.821      1.3666942      0.72098424   
     11100  -9087.4183     -9177.6281      90.20983       17825.49       363.67567      13997.958      1.3677548      0.72098424   
     11200  -9086.86       -9177.2042      90.344211      14287.935      364.21742      13979.507      1.3695601      0.72098424   
     11300  -9088.0302     -9176.9535      88.923258      13867.528      358.48893      13959.082      1.371564       0.72098424   
     11400  -9088.0625     -9177.6383      89.575785      16660.958      361.11956      13943.312      1.3731153      0.72098424   
     11500  -9088.1124     -9177.7358      89.623351      13521.336      361.31132      13934.251      1.3740082      0.72098424   
     11600  -9087.8821     -9176.6318      88.749762      19050.816      357.78949      13930.809      1.3743476      0.72098424   
     11700  -9089.9154     -9175.8809      85.965477      19388.865      346.56481      13939.394      1.3735013      0.72098424   
     11800  -9090.205      -9176.325       86.119972      14089.448      347.18765      13958.733      1.3715983      0.72098424   
     11900  -9089.9201     -9176.7102      86.790138      11378.386      349.88938      13982.041      1.3693119      0.72098424   
     12000  -9086.2879     -9176.3585      90.070576      15990.142      363.11428      14004.583      1.3671078      0.62698518   
     12100  -9084.6204     -9174.969       90.348673      14563.844      364.23541      14024.657      1.365151       0.62698518   
     12200  -9085.7575     -9174.9501      89.192598      14863.949      359.57476      14041.104      1.363552       0.62698518   
     12300  -9085.0043     -9176.7741      91.769818      13173.553      369.96467      14047.762      1.3629057      0.62698518   
     12400  -9085.2042     -9175.8508      90.646621      12767.162      365.43657      14041.543      1.3635093      0.62698518   
     12500  -9083.6868     -9175.1033      91.416497      15122.775      368.54028      14026.597      1.3649622      0.62698518   
     12600  -9081.0364     -9175.3805      94.344143      12343.31       380.34292      14007.778      1.366796       0.62698518   
     12700  -9083.545      -9173.4137      89.868736      11339.877      362.30057      13990.374      1.3684963      0.62698518   
     12800  -9082.7258     -9171.5016      88.775826      17036.977      357.89457      13974.512      1.3700496      0.62698518   
     12900  -9086.0433     -9175.8622      89.818951      13570.611      362.09987      13968.776      1.3706122      0.62698518   
     13000  -9086.9634     -9178.1859      91.2225        13571.896      367.75819      13968.117      1.3706768      0.68816266   
     13100  -9085.7581     -9176.1752      90.417161      14233.74       364.51151      13969.762      1.3705154      0.68816266   
     13200  -9082.5085     -9171.336       88.827484      12561.749      358.10283      13978.712      1.369638       0.68816266   
     13300  -9083.097      -9175.2529      92.155912      16801.798      371.52119      13993.468      1.3681937      0.68816266   
     13400  -9082.9814     -9173.9131      90.931765      14076.712      366.58611      14013.095      1.3662774      0.68816266   
     13500  -9083.7281     -9172.5502      88.822099      16059.905      358.08112      14035.271      1.3641187      0.68816266   
     13600  -9084.5006     -9175.0377      90.53712       12834.439      364.99512      14053.749      1.3623251      0.68816266   
     13700  -9084.7427     -9173.6248      88.882152      14922.076      358.32322      14061.094      1.3616134      0.68816266   
     13800  -9084.4361     -9174.6764      90.240264      12061.666      363.79836      14056.556      1.362053       0.68816266   
     13900  -9084.4404     -9175.7611      91.320718      12260.623      368.15415      14045.659      1.3631097      0.68816266   
     14000  -9087.568      -9177.14        89.571924      14811.623      361.10399      14030.434      1.3645889      0.66491804   
     14100  -9087.399      -9175.8707      88.471748      16839.592      356.66869      14002.682      1.3672934      0.66491804   
     14200  -9086.6963     -9177.9278      91.231518      17027.096      367.79455      13970.7        1.3704235      0.66491804   
     14300  -9085.2463     -9177.3615      92.115223      14190.862      371.35715      13941.307      1.3733128      0.66491804   
     14400  -9088.4214     -9177.1873      88.765891      14448.264      357.85452      13915.765      1.3758334      0.66491804   
     14500  -9090.1654     -9179.5903      89.424977      15648.428      360.51158      13903.932      1.3770043      0.66491804   
     14600  -9089.7644     -9177.5901      87.825684      18870.724      354.06413      13906.828      1.3767176      0.66491804   
     14700  -9089.5407     -9179.2691      89.728456      17168.827      361.73504      13924.548      1.3749656      0.66491804   
     14800  -9089.5978     -9176.7584      87.160591      15018.501      351.38285      13951.043      1.3723543      0.66491804   
     14900  -9090.4703     -9179.6188      89.148516      12792.868      359.39705      13982.391      1.3692776      0.66491804   
     15000  -9090.4448     -9178.6355      88.190695      15045.585      355.53565      14010.255      1.3665543      0.75704304   
     15100  -9090.4006     -9179.0479      88.647303      18310.608      357.37644      14026.439      1.3649776      0.75704304   
     15200  -9090.9024     -9178.8512      87.948847      12969.231      354.56065      14025.316      1.3650869      0.75704304   
     15300  -9088.5044     -9176.742       88.237614      13952.093      355.7248       14006.811      1.3668903      0.75704304   
     15400  -9085.8378     -9175.0345      89.196763      17381.943      359.59155      13978.034      1.3697044      0.75704304   
     15500  -9084.1517     -9175.5691      91.41738       13846.32       368.54384      13950.302      1.3724273      0.75704304   
     15600  -9085.3107     -9175.9978      90.687132      15061.492      365.59989      13933.883      1.3740445      0.75704304   
     15700  -9084.2031     -9175.8077      91.604599      17702.688      369.2986       13931.624      1.3742672      0.75704304   
     15800  -9085.0166     -9174.8812      89.864616      16362.369      362.28396      13942.466      1.3731986      0.75704304   
     15900  -9083.7889     -9175.5651      91.776199      17550.011      369.9904       13965.65       1.370919       0.75704304   
     16000  -9083.526      -9174.0817      90.555682      16432.13       365.06996      13997.428      1.3678066      0.6280051    
     16100  -9083.8416     -9177.8032      93.961614      15329.006      378.80077      14031.119      1.3645223      0.6280051    
     16200  -9083.509      -9174.3311      90.822098      16009.495      366.14399      14056.572      1.3620515      0.6280051    
     16300  -9084.4122     -9177.2865      92.874273      13080.507      374.41722      14067.102      1.3610319      0.6280051    
     16400  -9084.1687     -9175.6478      91.47912       16507.175      368.79274      14055.963      1.3621105      0.6280051    
     16500  -9082.8902     -9174.6423      91.752062      15733.089      369.89309      14028.464      1.3647806      0.6280051    
     16600  -9082.5577     -9175.665       93.107298      15583.919      375.35665      13999.673      1.3675873      0.6280051    
     16700  -9080.6959     -9174.1057      93.409815      15505.02       376.57623      13973.118      1.3701863      0.6280051    
     16800  -9080.2669     -9173.9984      93.73153       17164.107      377.8732       13956.821      1.3717862      0.6280051    
     16900  -9083.984      -9174.7626      90.778618      18607.197      365.96871      13956.571      1.3718108      0.6280051    
     17000  -9085.0907     -9176.9476      91.856906      16469.722      370.31576      13966.229      1.3708621      0.6574196    
     17100  -9087.0875     -9176.2006      89.11315       15882.726      359.25447      13979.662      1.3695449      0.6574196    
     17200  -9086.8753     -9176.8799      90.004627      13940.534      362.84841      13993.893      1.3681522      0.6574196    
     17300  -9083.5681     -9174.0937      90.525513      12749.543      364.94833      14004.568      1.3671093      0.6574196    
     17400  -9083.672      -9174.6232      90.951196      15931.003      366.66445      14013.133      1.3662737      0.6574196    
     17500  -9084.9229     -9177.1043      92.181336      13289.068      371.62368      14015.573      1.3660358      0.6574196    
     17600  -9086.3116     -9174.4841      88.1725        15452.473      355.4623       14010.957      1.3664859      0.6574196    
     17700  -9086.0216     -9178.2262      92.204602      12892.52       371.71748      14003.632      1.3672006      0.6574196    
     17800  -9086.0591     -9178.4804      92.421385      11918.704      372.59143      13988.417      1.3686878      0.6574196    
     17900  -9086.6208     -9176.5402      89.919338      15677.293      362.50457      13968.887      1.3706013      0.6574196    
     18000  -9085.614      -9176.24        90.62606       15645.184      365.35368      13950.06       1.3724511      0.6830735    
     18100  -9086.2126     -9177.8334      91.620755      16115.994      369.36373      13934.252      1.374008       0.6830735    
     18200  -9087.0196     -9176.5459      89.526301      15153.68       360.92006      13926.936      1.3747298      0.6830735    
     18300  -9092.1135     -9179.0515      86.937985      16772.877      350.48542      13923.107      1.3751079      0.6830735    
     18400  -9091.9651     -9178.687       86.721846      15161.044      349.61407      13921.418      1.3752747      0.6830735    
     18500  -9091.0738     -9180.9489      89.875091      14477.377      362.32619      13924.468      1.3749735      0.6830735    
     18600  -9088.1946     -9177.7863      89.591736      16078.244      361.18386      13927.26       1.3746979      0.6830735    
     18700  -9088.6575     -9178.6267      89.969249      14932.043      362.70578      13933.488      1.3740834      0.6830735    
     18800  -9088.4786     -9176.7451      88.266487      12975.783      355.8412       13941.979      1.3732466      0.6830735    
     18900  -9085.6974     -9176.29        90.592542      13846.059      365.21855      13953.633      1.3720996      0.6830735    
     19000  -9087.8124     -9179.2328      91.420375      16315.352      368.55592      13966.558      1.3708299      0.72244579   
     19100  -9088.442      -9180.134       91.691982      14127.734      369.65088      13976.86       1.3698195      0.72244579   
     19200  -9088.7421     -9177.8265      89.084399      16760.687      359.13857      13982.166      1.3692996      0.72244579   
     19300  -9091.0241     -9177.4352      86.411157      14205.235      348.36154      13981.428      1.3693719      0.72244579   
     19400  -9088.5709     -9176.2911      87.720185      14352.509      353.63882      13972.473      1.3702495      0.72244579   
     19500  -9089.0335     -9179.1616      90.128141      14883.163      363.34635      13960.7        1.371405       0.72244579   
     19600  -9086.701      -9175.9139      89.212916      14090.746      359.65667      13943.089      1.3731373      0.72244579   
     19700  -9084.2182     -9177.4253      93.207024      16241.461      375.75869      13928.367      1.3745886      0.72244579   
     19800  -9083.9042     -9176.6581      92.75393       16478.479      373.93206      13920.89       1.3753269      0.72244579   
     19900  -9082.4226     -9175.8976      93.475018      19004.272      376.83909      13922.512      1.3751667      0.72244579   
     20000  -9080.208      -9172.2945      92.086547      17147.708      371.24155      13936.108      1.3738251      0.71559734   
     20100  -9081.5443     -9172.5642      91.01994       14700.965      366.94159      13964.318      1.3710498      0.71559734   
     20200  -9081.8685     -9173.3897      91.521108      15661.423      368.96201      13999.338      1.36762        0.71559734   
     20300  -9082.6437     -9173.8602      91.216502      14207.001      367.73401      14026.805      1.3649419      0.71559734   
     20400  -9084.5408     -9176.4912      91.950382      15185.886      370.69261      14043.944      1.3632762      0.71559734   
     20500  -9087.0864     -9175.8568      88.770439      11507.549      357.87285      14046.442      1.3630338      0.71559734   
     20600  -9086.4695     -9176.3814      89.911936      13062.913      362.47473      14032.019      1.3644348      0.71559734   
     20700  -9087.8421     -9177.8301      89.98798       12176.242      362.7813       14004.677      1.3670986      0.71559734   
     20800  -9085.2383     -9175.6902      90.451862      14158.065      364.65141      13970.365      1.3704563      0.71559734   
     20900  -9085.4647     -9178.0165      92.55183       14190.36       373.11731      13937.701      1.373668       0.71559734   
     21000  -9084.3382     -9173.8337      89.495516      17887.925      360.79596      13912.685      1.376138       0.73224075   
     21100  -9084.5481     -9175.7859      91.237761      14948.837      367.81972      13907.134      1.3766872      0.73224075   
     21200  -9083.8457     -9175.2667      91.421008      15593.099      368.55847      13919.115      1.3755023      0.73224075   
     21300  -9086.8595     -9176.6564      89.796953      13568.612      362.01118      13944.893      1.3729595      0.73224075   
     21400  -9086.1028     -9176.9592      90.856407      15586.165      366.28231      13980.834      1.3694301      0.73224075   
     21500  -9087.4278     -9177.2002      89.772407      13625.216      361.91223      14022.559      1.3653552      0.73224075   
     21600  -9088.0698     -9176.4542      88.384457      14491.501      356.31679      14055.751      1.362131       0.73224075   
     21700  -9086.9349     -9177.2723      90.337357      12928.14       364.18979      14067.416      1.3610015      0.73224075   
     21800  -9086.3996     -9176.9729      90.573303      13830.328      365.14099      14059.647      1.3617536      0.73224075   
     21900  -9087.9614     -9178.5583      90.59692       13491.962      365.2362       14033.409      1.3642997      0.73224075   
     22000  -9088.6062     -9178.9413      90.33504       15378.295      364.18045      13992.953      1.368244       0.71024263   
     22100  -9088.4534     -9176.8529      88.399552      15661.146      356.37764      13945.46       1.3729038      0.71024263   
     22200  -9088.7433     -9176.9328      88.189473      13497.133      355.53072      13900.772      1.3773174      0.71024263   
     22300  -9088.4304     -9175.7085      87.278055      15002.931      351.85639      13869.345      1.3804382      0.71024263   
     22400  -9086.1973     -9177.1557      90.958364      18541.321      366.69334      13860.185      1.3813505      0.71024263   
     22500  -9089.3356     -9178.9809      89.645314      19413.962      361.39986      13876.216      1.3797547      0.71024263   
     22600  -9090.0649     -9178.1132      88.048341      14390.083      354.96176      13918.133      1.3755993      0.71024263   
     22700  -9089.0852     -9175.8119      86.726725      13166.379      349.63374      13975.813      1.369922       0.71024263   
     22800  -9090.3926     -9177.3537      86.96104       12921.228      350.57837      14033.438      1.3642969      0.71024263   
     22900  -9091.5377     -9178.2007      86.663009      14771.937      349.37687      14077.991      1.3599792      0.71024263   
     23000  -9087.4455     -9176.1415      88.695962      12599.731      357.5726       14099.164      1.3579368      0.6944835    
     23100  -9090.329      -9178.2301      87.901108      14707.073      354.36819      14094.853      1.3583522      0.6944835    
     23200  -9090.5577     -9177.4676      86.909848      14565.92       350.37199      14064.045      1.3613277      0.6944835    
     23300  -9087.3807     -9175.2303      87.849584      15985.195      354.16048      14017.654      1.3658331      0.6944835    
     23400  -9085.3816     -9177.0015      91.619881      14501.906      369.36021      13968.867      1.3706032      0.6944835    
     23500  -9084.8567     -9175.4235      90.566793      16983.885      365.11475      13929.571      1.3744698      0.6944835    
     23600  -9084.8104     -9177.2224      92.41207       13954.1        372.55388      13907.55       1.3766462      0.6944835    
     23700  -9085.4303     -9175.1995      89.769188      16845.466      361.89925      13908.503      1.3765518      0.6944835    
     23800  -9087.5357     -9176.0715      88.535816      14400.26       356.92698      13930.118      1.3744158      0.6944835    
     23900  -9086.4537     -9176.746       90.29236       14927.035      364.00839      13966.648      1.370821       0.6944835    
     24000  -9085.4091     -9176.1839      90.774873      14363.545      365.95361      14008.296      1.3667455      0.71746635   
     24100  -9086.3522     -9178.4171      92.064923      12577.632      371.15437      14049.818      1.3627062      0.71746635   
     24200  -9086.2855     -9174.4544      88.168901      14168.156      355.44779      14080.344      1.359752       0.71746635   
     24300  -9085.327      -9177.5689      92.241947      14066.963      371.86804      14096.539      1.3581897      0.71746635   
     24400  -9086.3699     -9175.7311      89.361222      15764.825      360.25456      14097.164      1.3581295      0.71746635   
     24500  -9088.9074     -9178.2171      89.30978       12980.532      360.04717      14083.525      1.3594448      0.71746635   
     24600  -9089.0616     -9179.8578      90.796168      10730.997      366.03946      14053.495      1.3623497      0.71746635   
     24700  -9087.4291     -9177.2754      89.84628       17484.456      362.21004      14012.431      1.3663421      0.71746635   
     24800  -9087.637      -9177.4531      89.816107      13367.325      362.0884       13975.22       1.3699802      0.71746635   
     24900  -9090.494      -9178.8581      88.364066      14794.264      356.23458      13948.582      1.3725965      0.71746635   
     25000  -9088.7742     -9179.0725      90.298304      16267.979      364.03235      13931.937      1.3742363      0.67880197   
     25100  -9089.7037     -9179.6371      89.933383      11936.021      362.56119      13925.36       1.3748854      0.67880197   
     25200  -9088.264      -9179.2182      90.954144      14397.962      366.67633      13926.615      1.3747615      0.67880197   
     25300  -9087.6837     -9176.6821      88.998366      17210.016      358.79173      13938.317      1.3736073      0.67880197   
     25400  -9090.1864     -9179.4379      89.251505      15656.181      359.81224      13956.843      1.3717841      0.67880197   
     25500  -9089.2943     -9180.0672      90.772839      12720.429      365.94541      13971.932      1.3703026      0.67880197   
     25600  -9089.7473     -9179.1935      89.446125      11967.452      360.59684      13978.611      1.3696478      0.67880197   
     25700  -9089.5701     -9178.8059      89.235773      13336.78       359.74882      13979.521      1.3695587      0.67880197   
     25800  -9085.4271     -9176.5137      91.086604      16822.747      367.21033      13974.696      1.3700315      0.67880197   
     25900  -9084.4602     -9174.3485      89.888342      12920.893      362.37961      13972.151      1.3702811      0.67880197   
     26000  -9086.7641     -9176.2639      89.499808      12505.726      360.81326      13974.091      1.3700909      0.69422338   
     26100  -9086.4973     -9178.1816      91.684341      14658.49       369.62008      13980.327      1.3694797      0.69422338   
     26200  -9087.2686     -9177.2754      90.006809      14244.098      362.8572       13986.411      1.368884       0.69422338   
     26300  -9084.7013     -9175.0614      90.360174      14684.148      364.28178      13992.051      1.3683323      0.69422338   
     26400  -9084.7888     -9176.4884      91.699642      13049.112      369.68176      14000.098      1.3675458      0.69422338   
     26500  -9085.574      -9176.2511      90.677068      15933.451      365.55932      14010.036      1.3665757      0.69422338   
     26600  -9087.2965     -9176.6895      89.392992      13823.312      360.38264      14020.317      1.3655736      0.69422338   
     26700  -9084.8091     -9178.9551      94.145911      18419.151      379.54376      14021.362      1.3654718      0.69422338   
     26800  -9084.9784     -9175.907       90.928644      17510.314      366.57353      14014.95       1.3660966      0.69422338   
     26900  -9084.8783     -9176.3781      91.499737      15728.563      368.87586      14004.839      1.3670828      0.69422338   
     27000  -9087.3587     -9177.5363      90.177638      13582.141      363.54589      13990.909      1.368444       0.65795667   
     27100  -9084.586      -9176.919       92.333053      15927.405      372.23532      13972.452      1.3702515      0.65795667   
     27200  -9084.6482     -9173.0899      88.441643      16838.122      356.54733      13953.567      1.3721061      0.65795667   
     27300  -9086.6609     -9176.4839      89.822944      15165.984      362.11597      13944.19       1.3730288      0.65795667   
     27400  -9086.9671     -9177.3665      90.399405      14312.456      364.43993      13941.491      1.3732947      0.65795667   
     27500  -9088.0782     -9177.8059      89.727705      13907.088      361.73202      13942.31       1.373214       0.65795667   
     27600  -9085.8898     -9174.8249      88.935086      17719.338      358.53662      13952.751      1.3721864      0.65795667   
     27700  -9086.4411     -9176.5565      90.115399      11393.821      363.29498      13975.708      1.3699323      0.65795667   
     27800  -9083.4786     -9174.8164      91.337812      10618.815      368.22307      14001.049      1.3674529      0.65795667   
     27900  -9083.3227     -9174.7484      91.425796      14580.749      368.57777      14026.122      1.3650084      0.65795667   
     28000  -9084.0054     -9176.1236      92.118213      14878.572      371.36921      14045.185      1.3631558      0.69073767   
     28100  -9081.5339     -9174.6881      93.154216      13373.02       375.54579      14055.507      1.3621547      0.69073767   
     28200  -9083.0826     -9174.5094      91.426809      11722.913      368.58185      14054.096      1.3622915      0.69073767   
     28300  -9086.2108     -9177.1577      90.946878      12920.491      366.64704      14036.652      1.3639845      0.69073767   
     28400  -9082.4447     -9172.8342      90.389473      14900.806      364.39989      14006.243      1.3669457      0.69073767   
     28500  -9082.079      -9174.9096      92.830588      13612.614      374.24111      13971.017      1.3703924      0.69073767   
     28600  -9080.149      -9173.1816      93.032678      14384.103      375.05582      13943.427      1.373104       0.69073767   
     28700  -9082.9973     -9175.4139      92.416615      16935.801      372.5722       13932.742      1.374157       0.69073767   
     28800  -9082.953      -9176.978       94.025012      16736.124      379.05636      13941.07       1.3733361      0.69073767   
     28900  -9082.1184     -9174.4956      92.377242      18333.298      372.41347      13960.195      1.3714547      0.69073767   
     29000  -9085.5645     -9175.07        89.505513      14974.778      360.83626      13983.645      1.3691548      0.69048242   
     29100  -9086.9013     -9177.537       90.635687      16482.326      365.39249      14003.976      1.367167       0.69048242   
     29200  -9087.3521     -9177.1121      89.759949      13151.312      361.862        14015.608      1.3660324      0.69048242   
     29300  -9086.2897     -9176.8657      90.57602       11827.97       365.15194      14013.8        1.3662086      0.69048242   
     29400  -9084.2015     -9175.4583      91.256769      11583.336      367.89635      14001.652      1.367394       0.69048242   
     29500  -9085.7759     -9176.856       91.080073      12074.427      367.18401      13986.107      1.3689138      0.69048242   
     29600  -9087.0144     -9176.2589      89.244462      18568.316      359.78385      13964.901      1.3709925      0.69048242   
     29700  -9086.3824     -9178.99        92.607568      14873.825      373.34201      13942.167      1.3732281      0.69048242   
     29800  -9087.7548     -9176.4131      88.658328      11470.17       357.42088      13921.968      1.3752204      0.69048242   
     29900  -9086.0636     -9178.6114      92.547825      15533.652      373.10116      13909.127      1.37649        0.69048242   
     30000  -9087.8224     -9179.8891      92.066689      13830.135      371.16149      13907.803      1.3766211      0.72740992   
     30100  -9086.5138     -9176.0066      89.492791      16154.622      360.78497      13915.973      1.3758128      0.72740992   
     30200  -9087.0533     -9179.4796      92.42625       14008.941      372.61104      13932.344      1.3741962      0.72740992   
     30300  -9087.6246     -9178.776       91.151398      14448.339      367.47155      13948.87       1.3725681      0.72740992   
     30400  -9086.9112     -9179.2332      92.322071      14372.462      372.19105      13963.874      1.3710933      0.72740992   
     30500  -9086.9278     -9177.3266      90.398805      16259.819      364.43752      13971.207      1.3703737      0.72740992   
     30600  -9088.9654     -9177.7611      88.79575       13539.091      357.97489      13972.802      1.3702173      0.72740992   
     30700  -9087.8452     -9177.3257      89.48053       13859.6        360.73554      13967.395      1.3707477      0.72740992   
     30800  -9085.8625     -9175.3425      89.47997       15060.301      360.73328      13959.429      1.3715299      0.72740992   
     30900  -9086.426      -9176.0659      89.639937      15914.963      361.37818      13952.843      1.3721774      0.72740992   
     31000  -9088.2926     -9177.1364      88.843805      12630.12       358.16862      13949.23       1.3725327      0.65177427   
     31100  -9088.3935     -9178.6347      90.241258      14077.841      363.80237      13944.039      1.3730437      0.65177427   
     31200  -9086.3847     -9177.6503      91.265649      15220.903      367.93215      13937.816      1.3736567      0.65177427   
     31300  -9085.753      -9177.0956      91.342645      16082.172      368.24255      13934.847      1.3739494      0.65177427   
     31400  -9084.4264     -9176.3943      91.967879      16210.061      370.76315      13939.07       1.3735331      0.65177427   
     31500  -9087.5365     -9178.7084      91.171906      16683.753      367.55423      13954.233      1.3720406      0.65177427   
     31600  -9085.7742     -9174.3156      88.541359      15595.299      356.94933      13971.567      1.3703384      0.65177427   
     31700  -9087.5285     -9176.9952      89.466717      12666.982      360.67986      13992.417      1.3682964      0.65177427   
     31800  -9085.9596     -9177.5201      91.560424      15232.09       369.12051      14010.748      1.3665063      0.65177427   
     31900  -9085.701      -9175.3824      89.681427      16439.355      361.54545      14022.263      1.365384       0.65177427   
     32000  -9089.2642     -9178.7807      89.516447      13962.652      360.88034      14027.427      1.3648814      0.69830021   
     32100  -9090.3036     -9178.4447      88.141078      15883.024      355.33562      14022.005      1.3654092      0.69830021   
     32200  -9089.332      -9177.8984      88.566345      14202.815      357.05006      13999.317      1.367622       0.69830021   
     32300  -9088.2747     -9176.9488      88.674074      12211.375      357.48436      13964.515      1.3710304      0.69830021   
     32400  -9088.9662     -9178.4731      89.506925      13765.253      360.84195      13924.531      1.3749673      0.69830021   
     32500  -9088.9474     -9179.6631      90.715691      14666.103      365.71502      13887.129      1.3786704      0.69830021   
     32600  -9087.5944     -9177.4255      89.831134      17985.998      362.14898      13858.099      1.3815585      0.69830021   
     32700  -9085.4231     -9177.6347      92.2116        16420.434      371.74569      13847.635      1.3826025      0.69830021   
     32800  -9085.3586     -9176.1075      90.748897      15106.313      365.84889      13859.428      1.3814261      0.69830021   
     32900  -9085.2853     -9175.1012      89.815877      16776.546      362.08747      13895.23       1.3778667      0.69830021   
     33000  -9085.7031     -9176.498       90.794857      13621.957      366.03418      13948.623      1.3725925      0.71830639   
     33100  -9084.9035     -9171.6382      86.734644      14690.955      349.66566      14005.179      1.3670497      0.71830639   
     33200  -9084.4712     -9175.3543      90.883142      12714.311      366.39009      14058.533      1.3618615      0.71830639   
     33300  -9084.6435     -9176.0063      91.362761      12291.915      368.32365      14098.86       1.3579661      0.71830639   
     33400  -9082.2593     -9175.0622      92.80287       11318.292      374.12936      14111.082      1.35679        0.71830639   
     33500  -9082.1337     -9174.0186      91.88492       10525.196      370.4287       14094.434      1.3583926      0.71830639   
     33600  -9085.2562     -9178.0015      92.74533       13552.23       373.89739      14056.362      1.3620718      0.71830639   
     33700  -9085.8971     -9176.3675      90.470345      14823.128      364.72592      14000.595      1.3674973      0.71830639   
     33800  -9083.586      -9174.9402      91.354184      18308.981      368.28907      13942.171      1.3732276      0.71830639   
     33900  -9082.4063     -9172.537       90.130693      21260.905      363.35663      13893.985      1.3779902      0.71830639   
     34000  -9080.782      -9172.9276      92.14556       15892.586      371.47945      13864.238      1.3809467      0.66632201   
     34100  -9081.5038     -9174.3716      92.867761      18202.816      374.39097      13860.993      1.38127        0.66632201   
     34200  -9081.6348     -9175.631       93.996232      17103.357      378.94033      13882.508      1.3791294      0.66632201   
     34300  -9080.4788     -9175.4998      95.021038      16921.624      383.07178      13922.074      1.3752099      0.66632201   
     34400  -9080.0774     -9172.9917      92.914223      13834.48       374.57827      13968.048      1.3706836      0.66632201   
     34500  -9080.9998     -9172.9316      91.931755      15298.962      370.61751      14016.005      1.3659937      0.66632201   
     34600  -9082.7519     -9174.6286      91.876691      16473.349      370.39552      14058.064      1.3619069      0.66632201   
     34700  -9084.329      -9176.1351      91.806172      14071.336      370.11123      14083.328      1.3594638      0.66632201   
     34800  -9086.0472     -9176.5502      90.503041      12685.531      364.85774      14080.141      1.3597715      0.66632201   
     34900  -9086.3571     -9175.9709      89.613718      14460.79       361.27248      14049.431      1.3627438      0.66632201   
     35000  -9085.2643     -9177.5607      92.296467      14759.609      372.08783      14002.103      1.3673499      0.6856585    
     35100  -9084.2465     -9175.0045      90.757987      15045.541      365.88553      13948.281      1.3726261      0.6856585    
     35200  -9084.0564     -9174.9132      90.856795      14569.503      366.28387      13901.763      1.3772192      0.6856585    
     35300  -9083.6865     -9177.031       93.344467      15579.508      376.31278      13875.131      1.3798626      0.6856585    
     35400  -9082.6799     -9175.6933      93.013389      18080.979      374.97806      13866.516      1.3807199      0.6856585    
     35500  -9086.0136     -9177.9794      91.965801      18570.689      370.75477      13880.53       1.3793259      0.6856585    
     35600  -9086.5206     -9178.2626      91.742002      15780.954      369.85254      13915.804      1.3758296      0.6856585    
     35700  -9086.2333     -9174.3744      88.141107      12432.572      355.33574      13962.563      1.3712221      0.6856585    
     35800  -9090.9796     -9180.0951      89.115512      13463.948      359.26399      14011.132      1.3664688      0.6856585    
     35900  -9092.1058     -9180.0667      87.960889      10413.462      354.6092       14043.2        1.3633485      0.6856585    
     36000  -9090.4078     -9179.2015      88.793717      13282.816      357.96669      14048.441      1.3628398      0.65361474   
     36100  -9092.3636     -9179.5722      87.20858       15741.654      351.57631      14034.052      1.3642371      0.65361474   
     36200  -9091.1928     -9180.2         89.00724       16280.894      358.8275       14000.854      1.3674719      0.65361474   
     36300  -9088.6522     -9178.1629      89.510719      14713.264      360.85725      13953.66       1.372097       0.65361474   
     36400  -9086.3602     -9175.5381      89.177951      16328.148      359.51571      13903.76       1.3770213      0.65361474   
     36500  -9085.8978     -9178.3079      92.410147      16057.596      372.54612      13865.921      1.3807791      0.65361474   
     36600  -9087.2465     -9177.8639      90.617432      17769.225      365.3189       13852.075      1.3821593      0.65361474   
     36700  -9087.4199     -9176.3023      88.882476      14940.807      358.32452      13859.975      1.3813716      0.65361474   
     36800  -9088.149      -9177.0777      88.928671      16721.529      358.51076      13886.723      1.3787108      0.65361474   
     36900  -9089.3905     -9179.5469      90.156382      15325.852      363.4602       13928.898      1.3745362      0.65361474   
     37000  -9090.8088     -9179.2552      88.446398      12943.81       356.5665       13973.678      1.3701314      0.72578921   
     37100  -9093.3207     -9180.2274      86.906734      13539.635      350.35943      14005.817      1.3669874      0.72578921   
     37200  -9089.6917     -9176.5632      86.871511      12518.389      350.21743      14019.094      1.3656928      0.72578921   
     37300  -9090.3833     -9180.1481      89.764747      11244.837      361.88135      14015.066      1.3660852      0.72578921   
     37400  -9088.7291     -9180.0724      91.343347      12904.147      368.24538      13991.675      1.368369       0.72578921   
     37500  -9087.4656     -9177.2859      89.820267      15218.53       362.10517      13957.808      1.3716892      0.72578921   
     37600  -9087.6329     -9177.393       89.76001       13118.803      361.86225      13927.329      1.3746911      0.72578921   
     37700  -9083.5162     -9174.4764      90.960239      15772.447      366.7009       13902.193      1.3771766      0.72578921   
     37800  -9084.3719     -9174.9649      90.592996      15711.487      365.22038      13894.289      1.37796        0.72578921   
     37900  -9085.4369     -9176.9529      91.516057      14897.673      368.94165      13905.964      1.3768031      0.72578921   
     38000  -9086.2116     -9177.4345      91.222836      15656.656      367.75955      13931.696      1.3742601      0.62275761   
     38100  -9086.0258     -9177.8441      91.81831       13464.037      370.16017      13963.547      1.3711254      0.62275761   
     38200  -9086.3551     -9177.0949      90.739847      17295.371      365.8124       13994.98       1.3680459      0.62275761   
     38300  -9086.9755     -9175.6114      88.635927      16649.539      357.33058      14022.458      1.3653651      0.62275761   
     38400  -9087.3286     -9177.9112      90.582592      13058.716      365.17844      14043.977      1.363273       0.62275761   
     38500  -9085.8435     -9176.8036      90.960099      15165.682      366.70034      14053.05       1.3623928      0.62275761   
     38600  -9084.4739     -9177.7356      93.26167       15981.571      375.97899      14048.135      1.3628695      0.62275761   
     38700  -9082.5355     -9176.022       93.486513      13171.834      376.88543      14029.776      1.3646529      0.62275761   
     38800  -9085.022      -9173.0907      88.068727      14021.721      355.04394      14003.578      1.3672059      0.62275761   
     38900  -9086.4251     -9174.3501      87.924941      16693.02       354.46427      13975.066      1.3699953      0.62275761   
     39000  -9085.9318     -9175.8851      89.953277      15901.655      362.64139      13945.372      1.3729124      0.67266005   
     39100  -9086.8117     -9178.1491      91.337432      16092.838      368.22153      13921.018      1.3753143      0.67266005   
     39200  -9084.0913     -9174.9989      90.907576      14786.742      366.48859      13906.975      1.376703       0.67266005   
     39300  -9080.3409     -9173.5907      93.249782      16199.763      375.93106      13913.931      1.3760147      0.67266005   
     39400  -9081.8826     -9174.6203      92.737662      17579.192      373.86648      13944.698      1.3729788      0.67266005   
     39500  -9084.9747     -9174.7599      89.78523       17002.076      361.96392      13992.31       1.3683069      0.67266005   
     39600  -9087.0236     -9176.9362      89.912576      13212.901      362.47731      14042.332      1.3634327      0.67266005   
     39700  -9088.2567     -9179.6185      91.361773      12942.381      368.31966      14088.608      1.3589543      0.67266005   
     39800  -9087.0021     -9176.3345      89.332394      14063.355      360.13834      14111.489      1.3567509      0.67266005   
     39900  -9087.3192     -9178.7794      91.460202      16267.788      368.71647      14108.482      1.35704        0.67266005   
     40000  -9087.8532     -9176.5229      88.669732      14506.729      357.46686      14083.031      1.3594925      0.75163007   
     40100  -9082.6315     -9174.4512      91.81965       13166.313      370.16557      14041.672      1.3634968      0.75163007   
     40200  -9083.8674     -9178.4082      94.540785      17631.794      381.13566      13992.953      1.3682441      0.75163007   
     40300  -9087.9059     -9178.4547      90.548837      16725.928      365.04236      13940.385      1.3734036      0.75163007   
     40400  -9087.674      -9177.4214      89.747374      18970.534      361.81131      13892.043      1.3781828      0.75163007   
     40500  -9086.5857     -9177.4054      90.819771      16428.687      366.13461      13857.742      1.3815941      0.75163007   
     40600  -9087.3014     -9176.8383      89.536848      15080.527      360.96259      13843.66       1.3829995      0.75163007   
     40700  -9087.0612     -9174.7349      87.673701      15476.059      353.45142      13852.984      1.3820687      0.75163007   
     40800  -9084.9331     -9177.2663      92.333255      17482.824      372.23614      13883.946      1.3789866      0.75163007   
     40900  -9083.5692     -9174.2742      90.704986      14878.834      365.67187      13931.183      1.3743107      0.75163007   
     41000  -9082.7763     -9171.7993      89.023015      14909.069      358.8911       13986.403      1.3688848      0.72817491   
     41100  -9083.3173     -9175.273       91.955682      12888.479      370.71397      14042.797      1.3633875      0.72817491   
     41200  -9084.2755     -9175.1747      90.899194      17657.703      366.4548       14082.386      1.3595547      0.72817491   
     41300  -9086.1635     -9179.4376      93.274057      14503.589      376.02892      14098.866      1.3579656      0.72817491   
     41400  -9085.875      -9175.0697      89.194683      13957.393      359.58317      14091.2        1.3587043      0.72817491   
     41500  -9085.1029     -9177.0126      91.909767      12728.811      370.52887      14068.093      1.360936       0.72817491   
     41600  -9086.2509     -9177.0728      90.821888      13484.338      366.14315      14031.494      1.3644858      0.72817491   
     41700  -9087.6292     -9177.5039      89.874705      15521.46       362.32464      13989.348      1.3685966      0.72817491   
     41800  -9086.0209     -9173.5268      87.505832      14661.379      352.77466      13948.609      1.3725938      0.72817491   
     41900  -9086.9918     -9175.3469      88.355069      16920.23       356.19831      13922.913      1.3751271      0.72817491   
     42000  -9087.5306     -9176.9127      89.382122      14972.903      360.33882      13911.751      1.3762304      0.66839229   
     42100  -9088.8846     -9177.2048      88.32015       15541.501      356.05754      13913.984      1.3760095      0.66839229   
     42200  -9088.073      -9177.4135      89.340521      14556.935      360.1711       13926.486      1.3747743      0.66839229   
     42300  -9087.8775     -9176.4501      88.572581      14909.376      357.0752       13946.577      1.3727938      0.66839229   
     42400  -9086.427      -9176.4207      89.993728      18669.192      362.80447      13970.986      1.3703954      0.66839229   
     42500  -9086.2675     -9177.9028      91.635321      16278.476      369.42246      13998.494      1.3677024      0.66839229   
     42600  -9086.4829     -9177.3589      90.87603       16366.92       366.36142      14022.904      1.3653217      0.66839229   
     42700  -9086.7361     -9177.2597      90.523577      14862.24       364.94052      14039.931      1.3636659      0.66839229   
     42800  -9086.6796     -9177.1792      90.499612      14161.798      364.84391      14044.958      1.3631778      0.66839229   
     42900  -9086.5994     -9175.2667      88.667311      15635.779      357.4571       14040.984      1.3635636      0.66839229   
     43000  -9084.6024     -9175.8539      91.251472      14940.516      367.87499      14031.936      1.3644429      0.69241943   
     43100  -9086.0442     -9175.1114      89.067247      18483.33       359.06942      14018.49       1.3657516      0.69241943   
     43200  -9086.318      -9176.0236      89.705547      12177.981      361.64269      14001.312      1.3674272      0.69241943   
     43300  -9088.3082     -9178.1731      89.864844      13007.926      362.28488      13978.367      1.3696717      0.69241943   
     43400  -9090.3269     -9178.9134      88.586444      14537.714      357.13109      13953.26       1.3721363      0.69241943   
     43500  -9089.41       -9178.9356      89.525607      17812.462      360.91727      13931.684      1.3742613      0.69241943   
     43600  -9088.1016     -9178.9602      90.858606      16376.018      366.29118      13916.088      1.3758015      0.69241943   
     43700  -9087.1767     -9177.103       89.926293      15231.009      362.53261      13909.371      1.3764659      0.69241943   
     43800  -9090.9394     -9178.2766      87.337243      14853.377      352.09501      13915.581      1.3758517      0.69241943   
     43900  -9089.1162     -9177.7388      88.622536      15460.122      357.27659      13932.965      1.3741349      0.69241943   
     44000  -9089.7919     -9179.357       89.565103      13110.225      361.07649      13965.206      1.3709626      0.70630611   
     44100  -9089.8738     -9179.974       90.100113      13190.077      363.23336      14005.12       1.3670554      0.70630611   
     44200  -9090.222      -9180.8479      90.625897      15479.492      365.35302      14043.525      1.3633168      0.70630611   
     44300  -9089.8983     -9178.7513      88.852996      13993.218      358.20568      14077.36       1.3600401      0.70630611   
     44400  -9090.2329     -9175.0557      84.822785      14747.709      341.95812      14098.722      1.3579795      0.70630611   
     44500  -9090.4526     -9178.9595      88.50694       14038.062      356.81057      14101.311      1.3577301      0.70630611   
     44600  -9089.614      -9178.9284      89.314311      12788.146      360.06544      14078.116      1.3599671      0.70630611   
     44700  -9090.5189     -9178.6794      88.160553      13209.924      355.41413      14032.503      1.3643877      0.70630611   
     44800  -9086.58       -9176.7662      90.186256      15401.576      363.58064      13970.759      1.3704176      0.70630611   
     44900  -9085.8893     -9179.2837      93.394375      15964.63       376.51398      13911.83       1.3762226      0.70630611   
     45000  -9084.7064     -9175.6996      90.993281      16229.389      366.83411      13870.613      1.380312       0.70238544   
     45100  -9083.4206     -9176.5155      93.094923      16788.962      375.30676      13855.196      1.381848       0.70238544   
     45200  -9084.1093     -9176.1812      92.071902      17221.079      371.18251      13870.833      1.3802902      0.70238544   
     45300  -9083.9045     -9173.7245      89.81993       14085.019      362.10381      13918.754      1.375538       0.70238544   
     45400  -9085.2242     -9174.1182      88.893966      11956.172      358.37084      13987.187      1.368808       0.70238544   
     45500  -9086.8988     -9178.8698      91.970937      12926.477      370.77547      14057.754      1.361937       0.70238544   
     45600  -9089.6135     -9177.5581      87.944503      14166.851      354.54314      14111.449      1.3567547      0.70238544   
     45700  -9089.6672     -9178.1553      88.488094      15422.017      356.73459      14133.887      1.3546008      0.70238544   
     45800  -9088.4358     -9178.7279      90.292113      12376.705      364.00739      14119.54       1.3559772      0.70238544   
     45900  -9087.6817     -9177.5294      89.847711      15444.723      362.21581      14069.114      1.3608373      0.70238544   
     46000  -9086.8299     -9176.719       89.889144      13255.224      362.38285      13996.871      1.3678611      0.71275431   
     46100  -9085.1746     -9176.6454      91.470787      13759.471      368.75915      13924.343      1.3749858      0.71275431   
     46200  -9084.787      -9178.3671      93.580145      17256.489      377.2629       13864.616      1.3809091      0.71275431   
     46300  -9084.1207     -9174.5775      90.456788      19038.094      364.67127      13833.242      1.3840411      0.71275431   
     46400  -9084.4621     -9174.4437      89.981556      19953.35       362.7554       13836.79       1.3836862      0.71275431   
     46500  -9084.6746     -9174.6059      89.931334      17028.045      362.55293      13871.625      1.3802114      0.71275431   
     46600  -9084.0326     -9175.649       91.61647       17696.227      369.34646      13926.977      1.3747258      0.71275431   
     46700  -9084.2434     -9176.6726      92.429146      16136.729      372.62271      13991.635      1.368373       0.71275431   
     46800  -9084.2293     -9174.2412      90.011927      13835.702      362.87784      14050.477      1.3626423      0.71275431   
     46900  -9083.8837     -9176.7327      92.849042      14688.301      374.3155       14089.104      1.3589065      0.71275431   
     47000  -9083.8971     -9176.82        92.92295       12391.224      374.61346      14104.497      1.3574234      0.80417279   
     47100  -9084.1905     -9177.9458      93.755262      14748.775      377.96888      14095.484      1.3582914      0.80417279   
     47200  -9084.4128     -9175.6865      91.273671      15367.809      367.96448      14063.492      1.3613813      0.80417279   
     47300  -9084.0884     -9176.0808      91.99236       14820.718      370.86184      14013.935      1.3661955      0.80417279   
     47400  -9086.168      -9176.7323      90.564358      15348.908      365.10493      13960.559      1.3714189      0.80417279   
     47500  -9083.8014     -9174.4777      90.676307      15196.875      365.55625      13911.536      1.3762517      0.80417279   
     47600  -9084.1851     -9177.2298      93.044633      15429.269      375.10401      13881.088      1.3792704      0.80417279   
     47700  -9086.3984     -9175.7324      89.333997      14593.904      360.1448       13870.469      1.3803264      0.80417279   
     47800  -9083.7479     -9176.8104      93.062555      14163.814      375.17627      13880.673      1.3793117      0.80417279   
     47900  -9085.5678     -9175.3398      89.771956      18262.022      361.91041      13909.551      1.3764481      0.80417279   
     48000  -9088.2189     -9175.9005      87.681635      16791.166      353.4834       13950.842      1.3723741      0.7119681    
     48100  -9088.7797     -9179.5706      90.79088       14090.75       366.01814      13989.869      1.3685456      0.7119681    
     48200  -9088.7079     -9178.0953      89.387342      14941.523      360.35986      14018.131      1.3657865      0.7119681    
     48300  -9088.4907     -9179.6117      91.120994      15458.603      367.34898      14031.987      1.3644379      0.7119681    
     48400  -9089.0084     -9178.7173      89.708806      14544.089      361.65583      14027.064      1.3649168      0.7119681    
     48500  -9087.9204     -9176.4847      88.564328      12822.435      357.04193      14007.084      1.3668637      0.7119681    
     48600  -9086.0769     -9177.1657      91.088812      12665.971      367.21924      13974.4        1.3700606      0.7119681    
     48700  -9083.7928     -9176.6023      92.809484      15407.758      374.15603      13935.874      1.3738481      0.7119681    
     48800  -9081.5396     -9173.8303      92.290719      15305.267      372.06465      13906.783      1.376722       0.7119681    
     48900  -9081.1894     -9174.5049      93.315533      18478.072      376.19613      13900.038      1.3773901      0.7119681    
     49000  -9082.6724     -9176.862       94.189603      14186.721      379.7199       13915.06       1.3759031      0.80018331   
     49100  -9084.5267     -9172.8921      88.365403      18978.582      356.23997      13949.784      1.3724782      0.80018331   
     49200  -9087.885      -9180.2531      92.368091      12953.112      372.37658      14001.381      1.3674204      0.80018331   
     49300  -9086.2446     -9175.8264      89.581812      12329.044      361.14385      14048.314      1.3628521      0.80018331   
     49400  -9081.5488     -9176.2323      94.68346       15326.475      381.71085      14080.862      1.3597019      0.80018331   
     49500  -9082.8407     -9173.407       90.566311      16276.686      365.1128       14099.61       1.357894       0.80018331   
     49600  -9085.0745     -9175.4834      90.408946      14440.209      364.4784       14105.136      1.357362       0.80018331   
     49700  -9085.8633     -9172.9183      87.055026      11685.405      350.95727      14086.437      1.3591637      0.80018331   
     49800  -9085.0185     -9175.0776      90.059061      13360.263      363.06786      14047.303      1.3629502      0.80018331   
     49900  -9084.2932     -9173.7958      89.502592      17044.588      360.82449      13995.446      1.3680003      0.80018331   
     50000  -9085.2427     -9176.3382      91.095432      16311.572      367.24593      13941.515      1.3732923      0.71844884   
     50100  -9085.0062     -9177.8673      92.861019      17447.523      374.36379      13896.805      1.3777106      0.71844884   
     50200  -9086.497      -9176.6037      90.106643      18590.897      363.25968      13872.704      1.380104       0.71844884   
     50300  -9086.6474     -9179.2574      92.609949      16169.645      373.35161      13873.254      1.3800493      0.71844884   
     50400  -9085.585      -9177.8416      92.256605      14857.958      371.92713      13894.357      1.3779533      0.71844884   
     50500  -9085.6359     -9177.065       91.429071      18061.163      368.59097      13933.545      1.3740778      0.71844884   
     50600  -9083.0503     -9171.871       88.82073       14734.53       358.0756       13983.118      1.3692064      0.71844884   
     50700  -9083.2381     -9175.0392      91.801122      13486.973      370.09087      14032.86       1.364353       0.71844884   
     50800  -9086.0459     -9177.841       91.795075      13620.754      370.0665       14071.857      1.360572       0.71844884   
     50900  -9086.4593     -9176.1467      89.687381      12686.643      361.56945      14087.353      1.3590753      0.71844884   
     51000  -9084.8868     -9178.0237      93.136966      13552.18       375.47625      14078.089      1.3599697      0.69118799   
     51100  -9084.9397     -9175.9806      91.040912      13347.07       367.02613      14046.737      1.3630052      0.69118799   
     51200  -9083.9119     -9175.9962      92.084291      14421.054      371.23245      14004.498      1.3671161      0.69118799   
     51300  -9083.346      -9175.2864      91.940412      17436.468      370.65241      13962.343      1.3712437      0.69118799   
     51400  -9084.5878     -9177.0146      92.426769      14359.445      372.61313      13929.95       1.3744324      0.69118799   
     51500  -9086.1975     -9177.4101      91.212627      16240.329      367.71839      13909.421      1.3764609      0.69118799   
     51600  -9087.0203     -9178.135       91.114619      15006.966      367.32328      13905.844      1.376815       0.69118799   
     51700  -9088.2094     -9179.779       91.569553      13679.322      369.15732      13919.322      1.3754819      0.69118799   
     51800  -9088.7751     -9177.0146      88.239447      14319.383      355.73219      13946.848      1.3727671      0.69118799   
     51900  -9088.4929     -9176.8569      88.363985      16440.01       356.23426      13982.042      1.3693117      0.69118799   
     52000  -9089.3239     -9177.9369      88.613079      15506.341      357.23847      14017.042      1.3658927      0.79694304   
     52100  -9087.0833     -9177.9995      90.916194      14373.747      366.52334      14043.265      1.3633421      0.79694304   
     52200  -9085.2344     -9176.0551      90.820781      14661.375      366.13869      14059.969      1.3617224      0.79694304   
     52300  -9088.7913     -9177.6785      88.887211      14241.461      358.34361      14066.228      1.3611165      0.79694304   
     52400  -9086.4822     -9177.8108      91.328617      14311.014      368.186        14056.992      1.3620108      0.79694304   
     52500  -9086.311      -9175.3332      89.022175      15927.43       358.88771      14031.756      1.3644603      0.79694304   
     52600  -9086.5917     -9175.8408      89.249177      15810.898      359.80286      14004.75       1.3670915      0.79694304   
     52700  -9085.5436     -9175.6909      90.14731       15233.586      363.42363      13977.443      1.3697624      0.79694304   
     52800  -9084.015      -9176.4088      92.393768      16405.347      372.48009      13955.499      1.3719162      0.79694304   
     52900  -9082.4594     -9175.9289      93.469472      16758.415      376.81673      13947.644      1.3726888      0.79694304   
     53000  -9082.0795     -9173.6644      91.584909      15755.286      369.21922      13955.845      1.3718822      0.81954902   
     53100  -9082.0488     -9172.8713      90.822545      15576.354      366.1458       13978.664      1.3696427      0.81954902   
     53200  -9082.9381     -9175.5965      92.658408      17566.71       373.54697      14010.85       1.3664963      0.81954902   
     53300  -9083.1916     -9174.2102      91.018581      13129.468      366.9361       14046.572      1.3630212      0.81954902   
     53400  -9084.9005     -9174.7493      89.848704      11564.043      362.21982      14076.806      1.3600936      0.81954902   
     53500  -9086.7363     -9176.1521      89.415757      12387.005      360.47441      14094.444      1.3583916      0.81954902   
     53600  -9087.7609     -9177.5012      89.740291      14519.636      361.78275      14095.396      1.3582999      0.81954902   
     53700  -9086.1356     -9175.4109      89.275314      15505.552      359.90823      14075.852      1.3601858      0.81954902   
     53800  -9083.3452     -9173.6064      90.261194      16927.365      363.88274      14040.365      1.3636237      0.81954902   
     53900  -9083.366      -9173.2829      89.916852      16514.522      362.49455      14001.487      1.3674101      0.81954902   
     54000  -9082.8233     -9175.0629      92.239655      16084.49       371.85879      13968.097      1.3706788      0.68523186   
     54100  -9082.5374     -9174.0007      91.463388      18025.032      368.72932      13946.504      1.372801       0.68523186   
     54200  -9081.1581     -9173.3419      92.183781      15253.75       371.63354      13942.709      1.3731746      0.68523186   
     54300  -9083.2384     -9178.2722      95.033869      13899.985      383.12351      13958.51       1.3716202      0.68523186   
     54400  -9083.0956     -9173.9109      90.815322      16144.196      366.11668      13989.516      1.3685802      0.68523186   
     54500  -9082.7104     -9176.2328      93.522309      11073.937      377.02974      14030.059      1.3646254      0.68523186   
     54600  -9083.0847     -9174.29        91.205315      16376.099      367.68891      14066.704      1.3610704      0.68523186   
     54700  -9082.1513     -9173.0928      90.941526      16193.884      366.62546      14097.552      1.3580922      0.68523186   
     54800  -9084.5042     -9175.2881      90.783981      15658.883      365.99033      14117.343      1.3561882      0.68523186   
     54900  -9084.1623     -9177.3944      93.232083      14104.678      375.85971      14117.812      1.3561432      0.68523186   
     55000  -9089.4644     -9179.1366      89.672212      13908.215      361.5083       14093.342      1.3584978      0.6354323    
     55100  -9088.3464     -9177.5165      89.170148      13804.955      359.48426      14042.111      1.3634541      0.6354323    
     55200  -9086.8194     -9175.763       88.943573      16356.24       358.57083      13978.624      1.3696466      0.6354323    
     55300  -9085.4259     -9177.6615      92.235634      16812.622      371.84258      13915.427      1.3758669      0.6354323    
     55400  -9083.8923     -9174.16        90.267646      16088.968      363.90876      13865.003      1.3808706      0.6354323    
     55500  -9084.9057     -9176.3356      91.429818      14544.67       368.59398      13841.978      1.3831675      0.6354323    
     55600  -9088.2817     -9177.9234      89.641704      16880.704      361.38531      13846.386      1.3827273      0.6354323    
[...]
    386300  -9087.8036     -9177.0287      89.225094      13142.694      359.70577      14026.796      1.3649428      0.66161072   
    386400  -9087.8892     -9176.5078      88.618518      13670.152      357.26039      13978.686      1.3696405      0.66161072   
    386500  -9088.1608     -9177.3331      89.172353      13174.112      359.49314      13920.581      1.3753574      0.66161072   
    386600  -9085.5833     -9176.608       91.024784      17209.177      366.96111      13868.634      1.3805091      0.66161072   
    386700  -9084.9866     -9175.6577      90.671083      19793.155      365.53519      13835.811      1.3837841      0.66161072   
    386800  -9085.5011     -9177.4986      91.997531      19066.534      370.88269      13831.666      1.3841987      0.66161072   
    386900  -9084.0554     -9177.7019      93.646452      14593.102      377.53022      13855.843      1.3817834      0.66161072   
    387000  -9084.7003     -9175.812       91.111754      15282.329      367.31173      13903.976      1.3769999      0.6839983    
    387100  -9085.5367     -9175.0623      89.525599      16592.561      360.91724      13968.02       1.3706864      0.6839983    
    387200  -9087.2244     -9176.7204      89.496         10678.03       360.79791      14036.636      1.363986       0.6839983    
    387300  -9089.1818     -9177.9121      88.73031       12085.356      357.71107      14092.926      1.358538       0.6839983    
    387400  -9090.7197     -9180.9044      90.184688      15191.977      363.57431      14121.309      1.3558073      0.6839983    
    387500  -9088.5676     -9179.8134      91.245786      13143.184      367.85207      14109.836      1.3569098      0.6839983    
    387600  -9084.9247     -9177.8666      92.941964      14923.82       374.69011      14061.899      1.3615355      0.6839983    
    387700  -9086.041      -9175.6392      89.598242      14243.959      361.21009      13989.104      1.3686205      0.6839983    
    387800  -9085.6595     -9175.4854      89.825984      13895.257      362.12822      13910.905      1.3763141      0.6839983    
    387900  -9088.0541     -9177.9115      89.857454      18193.531      362.25509      13844.457      1.3829198      0.6839983    
    388000  -9085.985      -9176.467       90.481998      18829.957      364.7729       13801.977      1.3871762      0.70435665   
    388100  -9085.4093     -9176.3568      90.947464      16353.127      366.6494       13795.834      1.3877939      0.70435665   
    388200  -9087.1432     -9176.4425      89.299326      15991.768      360.00503      13825.169      1.3848493      0.70435665   
    388300  -9086.5943     -9177.1566      90.562379      15367.803      365.09695      13879.794      1.379399       0.70435665   
    388400  -9086.6166     -9177.0804      90.463771      12492.852      364.69942      13948.162      1.3726378      0.70435665   
    388500  -9087.3977     -9175.9233      88.525559      13332.152      356.88563      14012.746      1.3663114      0.70435665   
    388600  -9088.2702     -9176.2989      88.028769      9436.7268      354.88285      14066.819      1.3610593      0.70435665   
    388700  -9087.7378     -9178.2933      90.555499      9393.429       365.06922      14095.81       1.35826        0.70435665   
    388800  -9088.2781     -9178.3723      90.094258      14392.747      363.20975      14095.151      1.3583235      0.70435665   
    388900  -9083.7975     -9175.0996      91.302094      11750.389      368.07907      14067.666      1.3609773      0.70435665   
    389000  -9082.7084     -9173.85        91.141577      10496.537      367.43196      14023.693      1.3652448      0.63572771   
    389100  -9081.7281     -9173.8523      92.124259      12227.309      371.39358      13977.456      1.369761       0.63572771   
    389200  -9083.7344     -9176.6474      92.912959      16929.995      374.57318      13936.434      1.3737929      0.63572771   
    389300  -9085.718      -9177.5546      91.836588      14763.271      370.23385      13902.427      1.3771534      0.63572771   
    389400  -9085.7484     -9177.3948      91.646392      15547.098      369.46709      13884.63       1.3789186      0.63572771   
    389500  -9084.9168     -9175.1626      90.245889      14825.927      363.82104      13884.757      1.378906       0.63572771   
    389600  -9086.0525     -9176.2282      90.175723      13874.404      363.53817      13901.554      1.3772399      0.63572771   
    389700  -9087.9588     -9177.5599      89.601103      14889.758      361.22163      13928.893      1.3745367      0.63572771   
    389800  -9089.1112     -9177.7372      88.625998      15556.419      357.29055      13955.929      1.3718739      0.63572771   
    389900  -9092.0603     -9180.4689      88.408591      11354.648      356.41408      13976.413      1.3698633      0.63572771   
    390000  -9090.9199     -9178.651       87.731135      16038.364      353.68296      13987.894      1.3687389      0.67003734   
    390100  -9089.3519     -9178.8909      89.538987      17652.311      360.97121      13987.252      1.3688017      0.67003734   
    390200  -9087.2328     -9175.9485      88.715626      12288.373      357.65188      13979.753      1.369536       0.67003734   
    390300  -9086.163      -9175.6219      89.458832      14986.599      360.64807      13967.733      1.3707146      0.67003734   
    390400  -9085.9266     -9177.7911      91.864449      16300.292      370.34617      13951.192      1.3723397      0.67003734   
    390500  -9085.9323     -9175.0056      89.073289      16284.493      359.09377      13938.423      1.3735969      0.67003734   
    390600  -9084.8193     -9175.2518      90.432494      15002.538      364.57333      13938.459      1.3735933      0.67003734   
    390700  -9087.5303     -9178.7331      91.202767      13929.732      367.67864      13946.291      1.372822       0.67003734   
    390800  -9089.3928     -9178.7326      89.339835      14257.877      360.16834      13948.89       1.3725662      0.67003734   
    390900  -9089.1374     -9178.5401      89.402749      12164.171      360.42197      13953.539      1.3721088      0.67003734   
    391000  -9093.6539     -9179.5081      85.854243      16702.253      346.11638      13960.532      1.3714216      0.72637008   
    391100  -9093.3937     -9180.8469      87.453197      14829.568      352.56247      13962.519      1.3712264      0.72637008   
    391200  -9093.2301     -9181.6096      88.379551      13831.73       356.29701      13953.063      1.3721557      0.72637008   
    391300  -9093.1011     -9181.1676      88.066523      13184.229      355.03505      13939.095      1.3735307      0.72637008   
    391400  -9090.5812     -9180.9506      90.369394      15685.259      364.31895      13924.748      1.3749458      0.72637008   
    391500  -9090.1902     -9178.3441      88.153817      13661.162      355.38697      13910.268      1.3763771      0.72637008   
    391600  -9088.3317     -9176.3391      88.007436      14093.216      354.79685      13906.566      1.3767435      0.72637008   
    391700  -9087.2561     -9177.1625      89.90642       12294.611      362.45249      13915.873      1.3758227      0.72637008   
    391800  -9087.0225     -9178.0953      91.072797      16906.995      367.15467      13936.15       1.3738209      0.72637008   
    391900  -9088.1945     -9180.5861      92.391566      14808.451      372.47121      13968.399      1.3706492      0.72637008   
    392000  -9087.6004     -9178.1111      90.510723      14333.169      364.88871      14000.187      1.3675371      0.67594462   
    392100  -9085.0978     -9176.6453      91.547537      13914.239      369.06856      14026.811      1.3649414      0.67594462   
    392200  -9087.4279     -9178.2844      90.856456      14581.799      366.28251      14048.452      1.3628387      0.67594462   
    392300  -9086.7453     -9176.9069      90.161607      14567.319      363.48126      14056.838      1.3620257      0.67594462   
    392400  -9086.5682     -9177.028       90.459713      12931.176      364.68306      14048.388      1.3628449      0.67594462   
    392500  -9086.3221     -9177.731       91.40892       14972.403      368.50974      14027.009      1.3649221      0.67594462   
    392600  -9088.4342     -9177.4589      89.024691      14247.327      358.89785      13999.233      1.3676303      0.67594462   
    392700  -9087.927      -9178.7249      90.797889      13911.218      366.0464       13967.109      1.3707757      0.67594462   
    392800  -9085.6578     -9177.0758      91.417932      16211.894      368.54607      13935.154      1.3739191      0.67594462   
    392900  -9087.1647     -9175.0808      87.916098      16424.486      354.42863      13912.016      1.3762042      0.67594462   
    393000  -9089.0069     -9177.8565      88.849622      18489.59       358.19207      13897.555      1.3776362      0.7785629    
    393100  -9089.5301     -9178.7428      89.212632      17337.38       359.65553      13890.58       1.3783279      0.7785629    
    393200  -9087.8213     -9177.8081      89.986813      16466.202      362.77659      13891.351      1.3782514      0.7785629    
    393300  -9088.1762     -9176.6164      88.440185      14250.22       356.54145      13899.194      1.3774737      0.7785629    
    393400  -9087.9986     -9178.016       90.017429      14322.761      362.90002      13913.841      1.3760237      0.7785629    
    393500  -9088.9488     -9177.7825      88.833682      16290.256      358.12781      13931.894      1.3742406      0.7785629    
    393600  -9090.4328     -9180.7315      90.298767      15698.502      364.03422      13950.583      1.3723996      0.7785629    
    393700  -9090.594      -9180.8553      90.2613        15422.148      363.88317      13963.271      1.3711526      0.7785629    
    393800  -9089.0763     -9178.8572      89.780959      13108.388      361.94671      13966.84       1.3708022      0.7785629    
    393900  -9088.8898     -9179.9291      91.039361      13282.749      367.01988      13965.927      1.3708918      0.7785629    
    394000  -9088.3005     -9177.0906      88.790131      15881.105      357.95224      13960.532      1.3714216      0.7091734    
    394100  -9086.6577     -9177.7071      91.049401      13716.697      367.06035      13952.848      1.3721768      0.7091734    
    394200  -9086.6629     -9177.8131      91.150276      13380.624      367.46703      13943.075      1.3731386      0.7091734    
    394300  -9086.5759     -9177.7744      91.198481      16402.424      367.66136      13930.467      1.3743814      0.7091734    
    394400  -9087.92       -9178.1861      90.266148      13773.108      363.90271      13920.572      1.3753583      0.7091734    
    394500  -9086.2506     -9178.0901      91.839536      16953.175      370.24574      13916.457      1.375765       0.7091734    
    394600  -9084.9413     -9175.2966      90.355284      16767.874      364.26206      13921.993      1.375218       0.7091734    
    394700  -9083.9727     -9177.8575      93.884761      17333.188      378.49094      13936.996      1.3737375      0.7091734    
    394800  -9086.4187     -9177.546       91.127255      16782.573      367.37422      13959.008      1.3715713      0.7091734    
    394900  -9086.1933     -9177.4476      91.254206      14230.907      367.88601      13983.661      1.3691532      0.7091734    
    395000  -9086.9244     -9176.1108      89.18638       13540.241      359.54969      13999.235      1.3676301      0.81142948   
    395100  -9088.4144     -9176.81        88.395653      16460.375      356.36192      14004.857      1.367081       0.81142948   
    395200  -9089.1513     -9178.4484      89.297153      14727.006      359.99627      14001.37       1.3674215      0.81142948   
    395300  -9087.1409     -9179.1163      91.97538       14360.275      370.79339      13989.945      1.3685383      0.81142948   
    395400  -9087.1016     -9178.158       91.056396      13422.322      367.08855      13968.014      1.3706869      0.81142948   
    395500  -9087.4502     -9178.4001      90.949946      14600.013      366.65941      13942.183      1.3732265      0.81142948   
    395600  -9086.0853     -9177.2757      91.190402      12532.41       367.62879      13920.784      1.3753374      0.81142948   
    395700  -9090.719      -9178.6645      87.945447      18605.174      354.54694      13910.164      1.3763874      0.81142948   
    395800  -9087.1244     -9176.155       89.030669      18926.444      358.92195      13906.756      1.3767247      0.81142948   
    395900  -9088.5642     -9178.9383      90.374017      15799.683      364.33758      13911.038      1.3763009      0.81142948   
    396000  -9090.865      -9181.1613      90.296239      13842.98       364.02403      13924.224      1.3749976      0.76707343   
    396100  -9092.1836     -9179.7746      87.590995      15552.602      353.11799      13939.519      1.3734889      0.76707343   
    396200  -9089.0586     -9178.9599      89.901314      12164.289      362.43191      13953.326      1.3721299      0.76707343   
    396300  -9087.9676     -9179.0282      91.060639      14637.435      367.10566      13959.727      1.3715006      0.76707343   
    396400  -9085.4511     -9176.6498      91.198687      14569.829      367.66219      13964.494      1.3710324      0.76707343   
    396500  -9086.8388     -9177.6214      90.782566      14056.611      365.98462      13971.852      1.3703104      0.76707343   
    396600  -9085.0355     -9176.1734      91.137919      16148.903      367.41721      13980.209      1.3694913      0.76707343   
    396700  -9085.902      -9176.8434      90.941359      12468.612      366.62479      13990.297      1.3685038      0.76707343   
    396800  -9084.3458     -9175.7694      91.423588      15175.356      368.56887      13999.933      1.3675619      0.76707343   
    396900  -9086.0883     -9177.5562      91.467879      14945.732      368.74742      14005.611      1.3670074      0.76707343   
    397000  -9085.7456     -9175.5922      89.846647      14453.041      362.21152      14000.922      1.3674653      0.67189314   
    397100  -9087.7128     -9178.5515      90.83867       17872.336      366.2108       13993.135      1.3682262      0.67189314   
    397200  -9088.1393     -9177.4748      89.335418      16118.839      360.15053      13979.41       1.3695696      0.67189314   
    397300  -9088.867      -9179.3357      90.468729      16618.184      364.71941      13961.758      1.3713011      0.67189314   
    397400  -9085.9825     -9176.7223      90.739754      18952.125      365.81203      13948.817      1.3725733      0.67189314   
    397500  -9085.8105     -9176.5161      90.705565      14081.266      365.6742       13944.38       1.3730101      0.67189314   
    397600  -9083.5836     -9176.8539      93.27031       15321.544      376.01382      13949.06       1.3725495      0.67189314   
    397700  -9084.7602     -9175.172       90.411784      16243.849      364.48984      13961.835      1.3712936      0.67189314   
    397800  -9084.9001     -9175.1929      90.292859      15788.423      364.0104       13978.391      1.3696694      0.67189314   
    397900  -9087.6382     -9176.8432      89.204954      14200.947      359.62457      13996.922      1.3678561      0.67189314   
    398000  -9087.8842     -9179.5541      91.669863      14433.613      369.56171      14011.545      1.3664285      0.63335      
    398100  -9086.4506     -9177.3283      90.877676      15082.42       366.36806      14017.718      1.3658268      0.63335      
    398200  -9086.8929     -9176.2149      89.322036      12253.731      360.09658      14015.271      1.3660652      0.63335      
    398300  -9085.5133     -9176.7853      91.272043      11548.023      367.95792      14009.565      1.3666216      0.63335      
    398400  -9088.5425     -9178.0834      89.540879      16129.539      360.97884      13999.218      1.3676317      0.63335      
    398500  -9085.1291     -9176.6381      91.508965      17634.058      368.91306      13987.085      1.3688181      0.63335      
    398600  -9082.4707     -9175.3123      92.841537      18572.052      374.28524      13979.073      1.3696026      0.63335      
    398700  -9081.1621     -9170.8926      89.730529      19363.963      361.7434       13979.573      1.3695536      0.63335      
    398800  -9082.0785     -9174.6636      92.585073      16255.643      373.25133      13993.532      1.3681874      0.63335      
    398900  -9082.8653     -9173.0824      90.217064      13192.859      363.70483      14013.161      1.366271       0.63335      
    399000  -9084.7737     -9178.1318      93.358116      14405.212      376.3678       14027.62       1.3648626      0.67931514   
    399100  -9086.7973     -9175.7386      88.941327      16118.786      358.56178      14032.326      1.3644049      0.67931514   
    399200  -9086.3636     -9177.3059      90.942316      13271.452      366.62865      14028.897      1.3647384      0.67931514   
    399300  -9082.4536     -9174.3868      91.933203      14064.433      370.62335      14013.637      1.3662246      0.67931514   
    399400  -9084.613      -9173.7284      89.115364      16375.606      359.2634       13999.829      1.367572       0.67931514   
    399500  -9085.2697     -9178.2751      93.005376      15644.839      374.94576      13990.835      1.3684512      0.67931514   
    399600  -9085.5965     -9175.0967      89.500187      14434.662      360.81479      13982.606      1.3692566      0.67931514   
    399700  -9084.4222     -9173.5807      89.158583      12418.148      359.43763      13976.162      1.3698879      0.67931514   
    399800  -9084.194      -9177.6181      93.424095      13389.569      376.63379      13971.529      1.3703422      0.67931514   
    399900  -9084.9848     -9176.5855      91.600709      16418.963      369.28292      13967.618      1.3707258      0.67931514   
    400000  -9084.5114     -9175.654       91.142587      13450.912      367.43603      13967.077      1.370779       0.64001024   
    400100  -9085.1759     -9176.3097      91.13382       9731.6122      367.40069      13971.467      1.3703482      0.64001024   
    400200  -9086.8049     -9176.6058      89.800924      13813.355      362.02719      13980.145      1.3694975      0.64001024   
    400300  -9090.453      -9178.6748      88.221773      13628.025      355.66094      13990.052      1.3685278      0.64001024   
    400330  -9089.6548     -9179.3644      89.709576      15032.326      361.65893      13991.821      1.3683547      0.64001024   
Loop time of 553.214 on 4 procs for 200000 steps with 1920 atoms

Performance: 15.618 ns/day, 1.537 hours/ns, 361.524 timesteps/s, 694.126 katom-step/s
99.5% CPU use with 4 MPI tasks x 1 OpenMP threads

MPI task timing breakdown:
Section |  min time  |  avg time  |  max time  |%varavg| %total
---------------------------------------------------------------
Pair    | 275.46     | 278.82     | 284.74     |  21.4 | 50.40
Neigh   | 7.8583     | 8.0246     | 8.1702     |   4.2 |  1.45
Comm    | 66.649     | 74.051     | 79.718     |  56.4 | 13.39
Output  | 0.30945    | 0.31583    | 0.32338    |   0.9 |  0.06
Modify  | 187.4      | 189.59     | 190.97     |  10.6 | 34.27
Other   |            | 2.41       |            |       |  0.44

Nlocal:            480 ave         481 max         477 min
Histogram: 1 0 0 0 0 0 0 0 0 3
Nghost:         2691.5 ave        2703 max        2682 min
Histogram: 1 0 1 0 0 1 0 0 0 1
Neighs:              0 ave           0 max           0 min
Histogram: 4 0 0 0 0 0 0 0 0 0
FullNghs:      76996.5 ave       77494 max       76578 min
Histogram: 1 0 0 1 0 1 0 0 0 1

Total # of neighbors = 307986
Ave neighs/atom = 160.40938
Neighbor list builds = 20000
Dangerous builds = 20000

unfix		3
unfix		4
Total wall time: 0:18:29
