ITEM: TIMESTEP
21000
ITEM: NUMBER OF ATOMS
384
ITEM: BOX BOUNDS pp pp pp
-3.2794649157486422e-02 1.3142839189157590e+01
-2.2544797736822106e-01 1.3335492477368257e+01
-1.3344608802962873e-01 1.3226868068029338e+01
ITEM: ATOMS id type element x y z
2 1 H 0.570498 0.275916 0.416544
3 1 H 3.01346 2.3354 0.682824
9 1 H 1.21215 2.07616 1.95781
10 1 H 2.44702 0.944914 1.91611
261 2 O 1.77299 1.4684 1.43222
369 2 O 13.1133 13.2563 -0.00761662
260 2 O 0.105442 3.37921 3.1091
259 2 O 3.20365 -0.171109 3.12059
17 1 H 3.77439 0.337286 0.542983
20 1 H 5.83246 2.69595 0.397298
25 1 H 4.49784 1.95998 2.28147
26 1 H 5.66851 0.983648 2.20467
269 2 O 5.11411 1.53497 1.61135
130 1 H 7.02004 0.13358 0.392426
131 1 H 9.05439 2.47477 0.551953
137 1 H 7.59974 2.11391 2.02124
138 1 H 8.59131 0.870158 1.8734
325 2 O 7.90215 1.3348 1.36668
145 1 H 10.6157 0.451533 0.271656
148 1 H 12.4157 2.45487 0.650159
153 1 H 10.9214 2.07354 2.13568
154 1 H 12.0587 1.00171 2.40353
333 2 O 11.6091 1.61785 1.72222
323 2 O 9.68992 -0.207767 2.98486
22 1 H 0.94186 6.20251 2.81324
24 1 H 2.7466 3.55313 2.4757
27 1 H 2.26889 5.35439 0.844211
28 1 H 0.998096 4.37614 0.998617
270 2 O 1.69966 4.83788 1.48205
268 2 O 3.23742 3.13596 3.24503
5 1 H 3.56604 5.9901 2.43312
7 1 H 5.89282 3.81926 2.76594
11 1 H 5.41278 5.75285 1.24065
12 1 H 4.52747 4.51327 0.802897
262 2 O 4.76212 5.02738 1.58697
273 2 O 6.46886 6.69371 13.1603
338 2 O 9.68121 3.05089 -0.0403404
150 1 H 7.19915 6.30811 2.36055
155 1 H 8.74681 5.46478 1.18134
156 1 H 7.64737 4.46357 1.04964
334 2 O 8.07522 4.99294 1.68811
152 1 H 9.06708 3.66434 2.81188
266 2 O 6.52598 3.322 0.0307609
133 1 H 10.4516 6.06762 2.62352
135 1 H 12.6687 3.87022 2.45777
139 1 H 11.7204 5.36671 1.016
140 1 H 10.6167 4.28438 1.23771
326 2 O 11.257 4.83355 1.67137
330 2 O 12.7805 3.18364 0.0683164
329 2 O 9.69225 6.55987 -0.0109404
66 1 H 0.45485 6.71282 0.713533
67 1 H 2.8254 9.4293 0.50998
73 1 H 1.14721 8.73361 2.12193
74 1 H 2.41149 7.82937 2.0976
293 2 O 1.8162 8.37679 1.51282
300 2 O 3.308 9.87924 3.29405
81 1 H 4.03951 7.27426 0.201942
84 1 H 6.01467 9.31411 0.0124531
89 1 H 4.33094 8.74762 2.00927
90 1 H 5.68048 7.76734 1.99472
301 2 O 4.90445 8.09242 1.46546
355 2 O 9.88212 6.47015 3.24443
194 1 H 7.38325 7.11787 -0.0296291
195 1 H 9.37025 9.56346 0.504783
201 1 H 7.53502 8.63442 2.12332
202 1 H 8.94447 7.90286 2.43903
357 2 O 8.39375 8.34557 1.77783
298 2 O 6.6952 9.96446 13.0865
209 1 H 10.2432 7.13947 0.585584
212 1 H 12.4513 9.54165 0.0915559
217 1 H 11.0231 8.98876 2.27168
218 1 H 12.0236 7.69216 2.1171
365 2 O 11.4457 8.349 1.64676
299 2 O 0.0871514 6.60078 3.20497
292 2 O 0.198429 9.86252 3.12199
86 1 H 0.570085 13.1872 2.54497
88 1 H 2.64542 10.4345 2.79016
91 1 H 2.12004 12.171 1.09389
92 1 H 0.974564 11.1435 1.1609
302 2 O 1.52136 11.7639 1.72517
297 2 O 3.24737 -0.137701 13.1967
69 1 H 3.71342 12.6707 2.6633
71 1 H 5.921 10.2831 2.38838
75 1 H 5.4782 12.1464 0.654196
76 1 H 4.3954 11.0125 0.527607
294 2 O 4.94588 11.5227 1.19615
214 1 H 6.96821 12.6221 2.70427
216 1 H 9.42908 10.3375 2.77989
219 1 H 8.74103 11.9404 1.10999
220 1 H 7.59147 10.7825 1.12692
366 2 O 8.25717 11.3336 1.68733
197 1 H 10.4262 12.8229 2.50735
199 1 H 12.7399 10.4196 2.65723
203 1 H 12.18 12.2689 1.0787
204 1 H 11.0589 11.3199 1.09507
358 2 O 11.5381 11.9139 1.70951
18 1 H 2.65856 0.431763 5.73075
19 1 H 0.811532 2.62485 6.15556
29 1 H 2.18554 2.07661 4.4229
30 1 H 1.13197 0.879961 4.16364
271 2 O 1.66841 1.38663 4.89252
324 2 O 6.55847 3.41974 3.31849
6 1 H 3.78199 0.511577 3.55147
8 1 H 6.07793 2.70871 3.73965
13 1 H 4.42309 2.16898 5.25278
14 1 H 5.47169 0.984191 5.15312
263 2 O 4.88539 1.57347 4.63004
146 1 H 9.38246 0.220086 5.8532
147 1 H 7.06675 2.68038 5.90761
157 1 H 8.68869 2.15225 4.28716
158 1 H 7.90225 0.869705 4.03301
335 2 O 8.14947 1.46933 4.73527
332 2 O 9.73515 3.14915 3.38235
267 2 O 13.0786 0.0276653 3.15699
136 1 H 12.6446 2.80657 3.57268
134 1 H 10.3369 0.391513 3.49062
141 1 H 11.0471 2.15384 5.47783
142 1 H 12.1586 1.10908 5.22592
327 2 O 11.4728 1.51611 4.71488
1 1 H 0.750579 6.14545 6.04724
4 1 H 2.68142 3.71659 6.07585
15 1 H 1.13314 4.29704 4.31422
16 1 H 2.14956 5.37779 4.29048
264 2 O 1.64116 4.85307 4.94762
291 2 O 3.11987 6.42342 3.26126
21 1 H 6.15809 6.01464 3.5469
23 1 H 3.76375 3.92924 3.60574
31 1 H 4.70732 5.55823 5.38493
32 1 H 5.48605 4.25063 5.31912
272 2 O 4.93832 4.87783 4.76377
282 2 O 6.55508 3.35535 6.48467
129 1 H 6.77317 6.07285 5.90384
132 1 H 9.55304 3.88213 5.89345
143 1 H 7.37803 4.28051 4.33259
144 1 H 8.60429 5.29057 4.48399
328 2 O 8.00581 4.74301 4.96291
149 1 H 12.8237 5.82271 3.57709
151 1 H 10.2873 3.93137 3.72202
159 1 H 11.0354 5.27865 5.51764
160 1 H 12.0601 4.05741 5.36663
336 2 O 11.526 4.76691 4.88573
82 1 H 2.59392 7.37007 6.13632
93 1 H 2.36273 9.0157 4.51135
94 1 H 1.50753 7.82124 4.3849
303 2 O 1.75289 8.48985 5.0366
83 1 H 0.326166 9.43913 5.8675
356 2 O 6.39192 10.0224 3.19216
290 2 O 3.37471 9.90218 6.61117
363 2 O 6.78489 6.73179 3.16745
70 1 H 3.68687 6.94182 3.78333
72 1 H 5.86946 9.28787 3.58118
77 1 H 4.37195 8.77701 5.35143
78 1 H 5.3679 7.63593 5.14973
295 2 O 4.72331 8.23417 4.64935
210 1 H 9.55707 7.10685 5.86678
221 1 H 8.83404 8.98684 4.48284
222 1 H 7.80344 7.67849 4.36544
367 2 O 8.38036 8.20961 4.97791
345 2 O 9.84269 6.3918 6.52372
321 2 O 0.0462705 6.47004 6.65933
200 1 H 12.8978 9.10975 3.5541
198 1 H 10.4586 7.05375 3.79482
205 1 H 11.1763 8.62567 5.52437
206 1 H 12.1446 7.4349 5.40739
359 2 O 11.5036 7.96922 4.90387
364 2 O 10.1022 10.055 3.48882
353 2 O 0.0125387 13.0774 6.50349
68 1 H 2.70349 10.3664 6.01848
79 1 H 1.10784 10.8328 4.05567
80 1 H 1.97463 11.9403 4.07319
296 2 O 1.40422 11.501 4.74634
65 1 H 0.648479 12.6518 5.86265
85 1 H 5.94105 12.7627 3.84453
289 2 O 6.4269 -0.0725693 6.27005
87 1 H 3.84701 10.4979 3.77785
95 1 H 4.29283 12.0865 5.50889
96 1 H 5.36885 11.0352 5.3005
304 2 O 4.79325 11.6494 4.79878
331 2 O 6.36033 13.2401 3.12662
193 1 H 7.09324 13.0765 5.61768
196 1 H 9.57928 10.406 6.10891
207 1 H 7.53965 11.2587 4.23343
208 1 H 8.62391 12.4344 4.08192
360 2 O 8.10727 11.9092 4.74698
213 1 H 12.7708 12.8463 3.78011
215 1 H 10.5489 10.7975 3.96164
223 1 H 11.0036 12.3215 5.54299
224 1 H 12.1421 11.2436 5.22562
368 2 O 11.4467 11.8237 4.81875
354 2 O 10.0702 9.97636 6.82434
34 1 H 0.616305 0.186863 6.9658
35 1 H 2.97442 2.55151 7.09948
41 1 H 1.26394 1.91877 8.83013
42 1 H 2.39497 0.905588 8.5837
277 2 O 1.76533 1.47145 8.13471
284 2 O 3.44335 2.99157 10.0909
258 2 O 3.398 3.16671 6.46197
275 2 O 3.25153 -0.228303 9.83671
49 1 H 3.90111 0.340423 6.69979
52 1 H 5.96372 2.76433 7.00838
57 1 H 4.32769 1.91773 8.64284
58 1 H 5.51044 0.931425 8.55273
285 2 O 4.91451 1.45068 8.03419
163 1 H 9.33635 2.78399 6.96943
169 1 H 7.51087 2.12956 8.64915
170 1 H 8.56251 0.920818 8.63494
341 2 O 8.09631 1.55941 8.00415
346 2 O 0.0588525 3.16358 6.49781
177 1 H 10.3418 0.255511 7.019
180 1 H 12.8841 2.54809 7.16156
185 1 H 11.1172 1.80192 8.63205
186 1 H 12.1806 0.717187 8.75236
349 2 O 11.5279 1.13373 8.05874
322 2 O 10.0368 3.24706 6.49383
56 1 H 2.71338 3.41438 9.6205
54 1 H 0.455508 6.02932 9.27406
59 1 H 2.28187 5.26193 7.65749
60 1 H 1.09608 4.31082 7.55213
286 2 O 1.77297 4.67782 8.26324
281 2 O 3.16429 6.7421 6.69164
37 1 H 3.53931 5.85115 9.23834
39 1 H 5.78435 3.45528 9.1983
43 1 H 5.5506 5.21655 7.71121
44 1 H 4.31939 4.41889 7.41536
278 2 O 4.80328 4.78804 8.17957
182 1 H 7.27222 5.9869 9.07269
184 1 H 9.31477 3.61965 9.30023
187 1 H 8.75628 5.48243 7.42228
188 1 H 7.76948 4.25133 7.46515
350 2 O 8.28312 4.86219 8.02283
371 2 O 9.43771 6.46449 9.89028
165 1 H 9.9535 5.92638 9.26965
167 1 H 12.7522 3.65861 9.50092
171 1 H 12.2491 5.38161 7.71074
172 1 H 11.1623 4.17559 7.6848
342 2 O 11.6033 4.8531 8.21715
98 1 H 0.593076 7.20143 7.1114
99 1 H 2.86055 9.65111 7.44903
105 1 H 1.03847 8.74431 8.9582
106 1 H 2.1482 7.8145 8.51928
309 2 O 1.40852 8.35857 8.17318
315 2 O 13.0959 6.52949 9.92852
316 2 O 3.12928 9.9683 10.0715
257 2 O 6.24264 6.58724 6.53944
113 1 H 3.67174 7.28562 7.27279
116 1 H 6.35598 9.25069 7.0091
121 1 H 4.3489 9.09518 8.85904
122 1 H 5.37544 7.77707 8.81324
317 2 O 4.78571 8.39538 8.28487
372 2 O 6.59886 10.0741 9.8019
211 1 H 7.20868 9.18763 5.7955
226 1 H 6.98377 7.03552 7.14261
227 1 H 9.33177 9.54895 7.3797
233 1 H 7.53748 8.73131 8.85289
234 1 H 8.7062 7.73163 8.8761
373 2 O 8.21679 8.33727 8.28147
314 2 O 6.81089 9.87008 6.41295
241 1 H 10.3401 6.88825 7.21794
244 1 H 12.4373 9.42237 7.003
249 1 H 10.9757 8.76317 8.61175
250 1 H 11.8686 7.53329 9.08495
381 2 O 11.2491 7.84009 8.35756
378 2 O 13.0389 10.0007 6.4919
120 1 H 2.65878 10.6868 9.59561
123 1 H 2.03625 12.3514 8.04089
124 1 H 1.14781 11.1806 7.81016
318 2 O 1.56561 11.665 8.54858
118 1 H 0.522841 12.9342 9.19123
347 2 O 6.65808 13.2692 9.7681
313 2 O 3.19947 -0.202824 6.32714
103 1 H 6.03112 10.4968 9.11704
107 1 H 5.33265 11.8948 7.33616
108 1 H 4.12401 10.9131 7.63055
310 2 O 4.77433 11.5337 8.1094
101 1 H 3.88144 12.8781 9.2122
162 1 H 7.07777 0.496926 6.80047
246 1 H 7.25128 12.7474 9.22737
248 1 H 9.14106 10.1218 9.44703
251 1 H 9.01987 12.2568 7.61714
252 1 H 7.89997 11.3138 7.41268
382 2 O 8.30241 11.8495 8.13594
377 2 O 9.869 13.2022 6.45707
229 1 H 10.2898 12.9167 9.43278
235 1 H 12.2178 12.3456 7.65695
236 1 H 11.0038 11.2454 7.54965
374 2 O 11.5976 11.7521 8.19554
231 1 H 12.3769 10.423 9.48613
51 1 H 0.240301 2.74767 12.8275
61 1 H 1.96503 2.23435 11.1805
62 1 H 1.24076 0.840876 10.9579
287 2 O 1.70191 1.36897 11.6386
50 1 H 2.7894 0.657905 12.7462
38 1 H 3.83705 0.00233047 10.5385
40 1 H 5.83272 2.41671 10.372
45 1 H 4.49432 1.86411 12.2954
46 1 H 5.69936 0.785055 12.177
279 2 O 5.04715 1.28197 11.606
305 2 O 6.5738 13.0634 13.1623
179 1 H 7.0937 2.70522 12.9111
178 1 H 9.36268 0.447595 12.6166
189 1 H 8.67185 2.11561 10.9765
190 1 H 7.55666 0.979535 11.1198
351 2 O 8.09235 1.63924 11.6614
348 2 O 9.86523 2.89056 9.73615
339 2 O 9.63105 13.3228 9.98879
361 2 O 9.98749 -0.104184 13.0812
283 2 O 0.0458876 -0.00774938 9.81394
166 1 H 10.0863 0.597516 10.2492
168 1 H 12.9234 2.29621 10.4686
173 1 H 11.3826 1.9963 11.8353
174 1 H 12.3237 0.756594 11.9028
343 2 O 11.8696 1.42253 11.2884
276 2 O 0.182419 2.94639 9.84009
33 1 H 0.246666 5.68741 12.8693
36 1 H 2.87751 3.41709 12.9118
47 1 H 1.18739 4.32988 11.0993
48 1 H 2.23469 5.34166 11.3107
280 2 O 1.64886 4.79937 11.8845
274 2 O 3.54154 2.94469 0.0578799
55 1 H 3.9152 3.76952 10.3944
265 2 O 3.33712 6.65058 13.1358
63 1 H 4.34717 5.74438 12.0771
64 1 H 5.245 4.37026 12.3818
288 2 O 5.00234 5.06271 11.7298
53 1 H 6.13927 6.02531 10.1758
340 2 O 6.40165 2.97044 9.85905
161 1 H 6.84311 6.00453 12.5308
164 1 H 9.0676 3.49724 12.6933
175 1 H 7.31474 4.19042 11.2366
176 1 H 8.55409 5.0269 10.906
344 2 O 7.99383 4.73743 11.6255
337 2 O 13.0077 6.3382 0.0857581
181 1 H 12.6328 5.8035 10.4653
183 1 H 10.3774 3.35147 10.3742
191 1 H 10.7724 5.64079 12.2736
192 1 H 11.9492 4.57557 12.4085
352 2 O 11.3938 5.03609 11.6885
114 1 H 2.68414 7.25328 12.7142
115 1 H 0.564332 9.52302 12.6613
125 1 H 2.30548 8.71782 11.019
126 1 H 1.09775 7.69902 11.2704
319 2 O 1.6254 8.43386 11.671
307 2 O 3.25849 6.37814 9.99859
102 1 H 3.85678 7.07019 10.1799
104 1 H 5.92786 9.58237 10.3645
109 1 H 4.52411 8.51554 11.9904
110 1 H 5.84487 7.76971 11.8755
311 2 O 5.16616 8.21299 11.3136
379 2 O 6.70613 6.61889 9.64958
243 1 H 7.35102 9.38388 12.6569
242 1 H 9.14866 7.16388 12.6918
253 1 H 8.87561 9.01451 11.2443
254 1 H 7.68194 7.96352 10.8621
383 2 O 8.34938 8.26103 11.5885
230 1 H 10.1291 7.07687 10.2182
232 1 H 12.5075 9.2544 10.4201
237 1 H 10.8257 8.7217 12.0513
238 1 H 12.1543 7.88888 12.2616
375 2 O 11.4989 8.15625 11.5403
380 2 O 9.76107 9.81433 10.0911
97 1 H 0.473273 12.4425 13.0533
306 2 O 3.38272 10.0254 -0.084208
308 2 O 13.0209 9.91767 9.88999
100 1 H 2.78253 10.4136 12.5697
111 1 H 1.01559 11.181 10.9814
112 1 H 2.08753 12.2711 11.0288
312 2 O 1.46107 11.7158 11.6323
119 1 H 3.79084 10.3755 10.6867
117 1 H 6.11788 12.6103 10.2877
127 1 H 4.40534 12.2451 12.0102
128 1 H 5.49605 11.0518 12.028
320 2 O 4.87163 11.5283 11.4422
225 1 H 7.31973 12.5556 12.6589
228 1 H 9.34031 10.5986 12.7883
239 1 H 7.42988 11.0721 10.9725
240 1 H 8.50858 12.1604 11.1142
376 2 O 8.04231 11.5435 11.6704
370 2 O 9.9536 10.0301 -0.0601423
362 2 O 13.1352 10.1577 13.1496
245 1 H 12.6351 12.955 10.2865
247 1 H 10.2708 10.5301 10.5237
255 1 H 10.7752 12.2048 12.0599
256 1 H 12.0311 11.2672 12.1476
384 2 O 11.3065 11.5983 11.4941
ITEM: TIMESTEP
22000
ITEM: NUMBER OF ATOMS
384
ITEM: BOX BOUNDS pp pp pp
-1.6721444186313342e-01 1.3277258981863261e+01
-1.4162212576974598e-01 1.3251666625769756e+01
-1.8062258818546231e-01 1.3274044568185195e+01
ITEM: ATOMS id type element x y z
2 1 H 0.493673 0.387062 0.5827
3 1 H 2.90206 2.33206 0.36897
9 1 H 1.10724 2.22274 2.04042
10 1 H 1.99424 1.03128 2.16267
261 2 O 1.61079 1.60076 1.45558
259 2 O 3.24248 13.1639 3.05563
17 1 H 3.83828 0.267348 0.383887
20 1 H 5.81473 2.82985 0.366155
25 1 H 4.5138 1.60899 2.23216
26 1 H 5.65425 0.880327 1.84481
269 2 O 4.93752 1.36205 1.42024
274 2 O 3.28088 3.11664 13.2584
130 1 H 7.23386 0.190885 0.197139
131 1 H 8.95864 2.66883 0.416338
137 1 H 7.55468 2.27101 2.06446
138 1 H 8.68207 1.11535 1.94506
325 2 O 8.05124 1.71251 1.43636
323 2 O 9.62869 -0.100622 3.19536
338 2 O 9.75193 3.04688 13.2344
145 1 H 10.6202 0.0406789 0.354854
148 1 H 12.8331 2.69341 0.656182
153 1 H 11.1908 2.02255 1.96302
154 1 H 12.2057 0.908692 2.16037
333 2 O 11.5895 1.26552 1.47582
267 2 O 13.2536 -0.0919031 3.23271
260 2 O -0.0108202 3.17158 3.01698
22 1 H 0.650449 6.15533 2.84275
24 1 H 2.78163 3.62781 2.33074
27 1 H 2.3583 5.31883 1.08131
28 1 H 0.949397 4.37227 1.18572
270 2 O 1.56346 4.95188 1.65988
5 1 H 3.80839 5.90503 2.53125
7 1 H 5.713 3.84297 2.59838
11 1 H 5.32826 5.48255 0.935661
12 1 H 4.25538 4.2938 0.807862
262 2 O 4.73456 4.82473 1.49868
266 2 O 6.54157 3.35523 -0.0463221
150 1 H 6.91604 5.89809 3.11984
155 1 H 8.6788 5.42469 0.963234
156 1 H 7.5886 4.39631 0.982257
334 2 O 8.23352 4.86831 1.64689
152 1 H 9.48715 3.6973 2.38188
133 1 H 10.3177 5.92528 2.64232
135 1 H 12.846 3.90462 2.67799
139 1 H 12.1611 5.39484 0.834589
140 1 H 10.9895 4.38952 1.15016
326 2 O 11.6921 4.96208 1.59076
330 2 O -0.148045 3.32941 0.0711382
337 2 O -0.038774 6.45723 -0.127782
66 1 H 0.601123 6.88597 0.464911
67 1 H 2.66411 9.51735 0.569805
73 1 H 0.892093 8.85391 2.14522
74 1 H 2.09273 7.7804 2.03842
293 2 O 1.51187 8.39461 1.49345
299 2 O -0.0598287 6.78807 3.19846
292 2 O 13.1864 10.053 3.20599
81 1 H 3.71482 7.22327 0.62362
84 1 H 6.30345 9.59934 0.187621
89 1 H 4.19083 8.66379 2.29559
90 1 H 5.36107 7.69082 2.19399
301 2 O 4.84394 8.31837 1.65191
329 2 O 10.0183 6.45016 13.0444
194 1 H 7.11955 7.16803 0.247417
195 1 H 9.33391 9.35289 0.174175
201 1 H 7.43968 8.6679 2.21352
202 1 H 8.6367 7.50562 2.20952
357 2 O 8.03513 8.03435 1.71765
363 2 O 6.32091 6.62451 3.41468
209 1 H 10.5993 7.12808 -0.00587279
212 1 H 12.6465 9.49159 0.564089
217 1 H 10.9089 8.62727 2.32576
218 1 H 12.1974 7.73401 1.88301
365 2 O 11.4019 8.20236 1.52843
86 1 H 0.201558 12.6326 2.6202
88 1 H 2.76768 10.4697 2.76748
91 1 H 2.09521 11.906 1.34501
92 1 H 1.08573 10.7589 1.04817
302 2 O 1.48456 11.3313 1.78993
69 1 H 3.83854 12.6292 2.44512
71 1 H 5.99922 10.2787 2.64556
75 1 H 5.458 12.1475 1.07698
76 1 H 4.36419 10.9971 0.828387
294 2 O 4.85677 11.4656 1.58865
356 2 O 6.65814 9.84239 3.20569
331 2 O 6.55215 -0.090487 3.26184
306 2 O 3.34924 10.0266 -0.0243241
214 1 H 7.20724 12.6814 2.81036
216 1 H 9.39351 10.2517 2.56871
219 1 H 8.68661 12.1176 1.02378
220 1 H 7.84029 10.9216 1.11936
366 2 O 8.37305 11.5064 1.72591
369 2 O -0.0203579 13.1458 0.103604
197 1 H 10.1713 12.8962 2.52033
199 1 H 12.5616 10.3602 2.45206
203 1 H 12.2622 11.985 1.07105
204 1 H 11.0553 10.9285 1.00515
358 2 O 11.553 11.5522 1.65428
370 2 O 9.99828 9.95443 13.2964
268 2 O 3.21656 3.17205 3.08048
18 1 H 2.914 -0.015497 5.64118
19 1 H 0.390548 2.79488 5.93223
29 1 H 1.96491 2.21743 4.1519
30 1 H 0.959555 0.880012 4.24546
271 2 O 1.4926 1.58569 4.81641
346 2 O -0.00394737 3.47217 6.54468
313 2 O 3.22588 12.994 6.49588
6 1 H 3.84068 0.373109 3.5312
8 1 H 5.87166 2.69602 3.56497
13 1 H 4.21413 2.3011 5.24439
14 1 H 5.14715 1.04404 5.34896
263 2 O 4.79571 1.67663 4.7059
289 2 O 6.4617 0.18673 6.27529
146 1 H 9.58365 0.602733 5.69705
147 1 H 7.47772 2.82769 6.13811
157 1 H 9.12864 2.31728 4.32563
158 1 H 8.0215 1.20177 4.44839
335 2 O 8.50455 1.88068 4.91899
332 2 O 9.99885 3.12838 3.02198
136 1 H 12.9343 2.79481 3.87793
134 1 H 10.1152 0.769039 3.5095
141 1 H 11.504 2.40738 5.56357
142 1 H 12.2551 1.10913 5.37719
327 2 O 11.8095 1.86391 4.88385
1 1 H 0.205413 5.77754 6.05407
4 1 H 2.62793 3.62391 6.0317
15 1 H 1.12957 4.34164 4.27951
16 1 H 2.12845 5.63531 4.40275
264 2 O 1.60715 4.99105 4.90962
291 2 O 3.21337 6.55722 3.0535
21 1 H 5.72293 6.20249 4.11786
23 1 H 3.53682 3.94391 3.68485
31 1 H 4.58558 5.44513 5.84463
32 1 H 5.6861 4.39043 5.16135
272 2 O 4.88704 4.97512 4.99888
258 2 O 3.38267 3.24772 6.49376
324 2 O 6.35718 3.38729 3.12438
282 2 O 6.86832 3.30966 6.65567
129 1 H 6.9414 5.77759 6.10525
132 1 H 9.52234 4.03955 6.11626
143 1 H 7.7624 4.22169 4.20278
144 1 H 8.7726 5.46363 4.27426
328 2 O 8.27531 4.77296 4.8312
345 2 O 10.041 6.52554 6.41206
355 2 O 9.70111 6.27455 3.29848
149 1 H 12.7493 6.13444 3.64796
151 1 H 10.5286 3.73918 3.599
159 1 H 11.0017 5.58599 5.13511
160 1 H 12.1529 4.58446 5.48108
336 2 O 11.6824 5.02199 4.7485
322 2 O 10.0511 3.36865 6.65339
82 1 H 2.90632 7.17593 6.10767
93 1 H 2.07566 8.80832 4.41592
94 1 H 1.12818 7.61891 4.38601
303 2 O 1.57403 8.26439 5.03749
83 1 H 0.396845 9.34776 5.96821
300 2 O 3.14912 9.81934 3.45665
70 1 H 3.8887 6.93088 3.71827
72 1 H 6.03865 9.24429 3.75151
77 1 H 4.28385 8.81951 5.21996
78 1 H 5.30699 7.60282 5.44977
295 2 O 4.9034 8.18874 4.74924
257 2 O 6.43442 6.49192 6.59172
210 1 H 9.31517 7.10041 5.99738
221 1 H 8.5993 8.77248 4.28917
222 1 H 7.49966 7.79582 4.21599
367 2 O 8.08733 8.16972 4.87809
211 1 H 7.10725 9.29077 6.03524
314 2 O 6.5195 10.0621 6.34458
200 1 H 12.6955 9.56348 3.87222
198 1 H 10.187 7.04957 3.64635
205 1 H 10.8421 8.73542 5.1429
206 1 H 12.0927 7.74453 5.26587
359 2 O 11.4655 8.17192 4.65642
353 2 O 13.1881 -0.0692201 6.31212
68 1 H 2.56662 10.8403 6.20334
79 1 H 1.00366 10.9356 4.23711
80 1 H 2.15557 11.9591 4.19834
296 2 O 1.48695 11.5388 4.85065
65 1 H 0.263783 12.8358 5.69748
85 1 H 6.00593 12.5977 3.72924
87 1 H 3.73701 10.4313 3.93097
95 1 H 4.62689 11.9034 5.45763
96 1 H 5.75876 10.8465 5.08982
304 2 O 5.08428 11.508 4.71354
193 1 H 7.1738 13.0342 5.94385
196 1 H 9.41612 10.5987 5.8713
207 1 H 7.75558 11.1395 4.46804
208 1 H 8.75927 12.4044 4.43812
360 2 O 8.31641 11.762 5.02113
364 2 O 9.8329 9.75911 3.24678
213 1 H 12.7862 12.5946 3.7222
215 1 H 10.4334 10.3943 3.70037
223 1 H 11.0168 12.3375 5.35345
224 1 H 11.8863 10.993 5.50328
368 2 O 11.48 11.6246 4.87619
378 2 O 13.162 9.90366 6.53289
377 2 O 9.95522 0.0231469 6.4358
34 1 H 0.392536 0.505145 6.74115
35 1 H 3.01761 2.6876 7.15251
41 1 H 0.954077 2.10531 8.59683
42 1 H 1.98696 1.00674 8.39208
277 2 O 1.43017 1.64151 7.90476
283 2 O 13.1892 0.0565883 9.60374
276 2 O 13.1862 3.18046 9.92296
49 1 H 3.69666 0.270588 7.01284
52 1 H 6.21655 2.71236 7.03602
57 1 H 4.37942 2.34423 8.8117
58 1 H 5.24965 1.05164 9.09874
285 2 O 4.69109 1.46174 8.43437
340 2 O 6.44238 2.95879 9.90601
163 1 H 9.3919 2.77087 7.01642
169 1 H 7.87482 1.77816 8.98535
170 1 H 8.8715 0.651011 8.35045
341 2 O 8.16566 1.32174 8.09592
162 1 H 6.92556 0.697885 6.99677
177 1 H 10.4348 0.624601 7.09304
180 1 H 12.8993 2.95023 7.15147
185 1 H 10.9626 2.1787 8.70414
186 1 H 11.9 1.05983 8.64322
349 2 O 11.3578 1.56945 8.04263
348 2 O 9.9469 3.20708 9.92674
321 2 O 13.17 6.42203 6.70789
56 1 H 2.40575 3.67404 9.12601
54 1 H 0.291711 6.19751 8.9944
59 1 H 2.14036 5.39078 7.56877
60 1 H 0.956199 4.44954 7.65399
286 2 O 1.64969 4.85446 8.24635
37 1 H 4.00665 5.92246 9.46989
39 1 H 5.89415 3.46945 9.30196
43 1 H 5.41173 5.44698 7.77853
44 1 H 4.30616 4.28825 7.64106
278 2 O 4.9448 4.76077 8.30019
182 1 H 7.06086 5.90376 9.36244
184 1 H 9.35321 3.81606 9.34773
187 1 H 8.73654 5.60435 7.61906
188 1 H 7.69308 4.29902 7.58832
350 2 O 8.32385 4.86133 8.1464
165 1 H 10.4602 5.88406 9.4703
167 1 H 12.4766 3.89048 9.77257
171 1 H 11.8418 5.70512 7.89175
172 1 H 11.0178 4.4312 7.82033
342 2 O 11.5149 4.96527 8.43995
281 2 O 3.27215 6.45908 6.64407
98 1 H 0.341383 7.02889 7.13866
99 1 H 2.53171 9.46382 6.96105
105 1 H 1.27369 8.67084 8.71942
106 1 H 2.4841 7.75065 8.44336
309 2 O 1.80253 8.19869 7.98844
290 2 O 3.12349 10.1983 6.69709
113 1 H 3.8317 6.92635 7.34884
116 1 H 5.80467 9.57287 6.87522
121 1 H 4.53489 8.5994 8.86328
122 1 H 5.5482 7.50364 8.84713
317 2 O 4.92708 8.03127 8.18912
226 1 H 7.07189 7.17736 6.99749
227 1 H 9.29865 9.49589 6.95957
233 1 H 7.48484 8.65012 8.64092
234 1 H 8.37404 7.51666 8.6253
373 2 O 7.96604 8.10532 7.94923
379 2 O 6.65415 6.68847 9.90724
241 1 H 10.4825 7.11334 7.02014
244 1 H 12.55 9.38888 7.11122
249 1 H 10.7716 8.66346 8.71843
250 1 H 12.1017 7.90457 8.87309
381 2 O 11.3779 8.16893 8.22133
275 2 O 2.99136 13.214 10.0927
120 1 H 2.59855 10.4129 9.30764
123 1 H 1.72909 12.207 7.67977
124 1 H 0.584641 11.1848 7.49597
318 2 O 1.20419 11.5639 8.22309
118 1 H 0.307195 12.7698 9.16002
103 1 H 5.96656 10.6185 9.04747
107 1 H 5.20306 12.3764 7.80052
108 1 H 4.35948 11.0196 7.5903
310 2 O 4.8572 11.557 8.24509
101 1 H 3.62481 12.5742 9.63776
372 2 O 6.6045 9.97419 9.55861
347 2 O 6.45463 -0.120994 9.89844
246 1 H 7.1961 12.8051 9.45078
248 1 H 9.09199 10.1914 9.4978
251 1 H 8.75815 12.1718 7.63558
252 1 H 7.80722 10.8846 7.71077
382 2 O 8.41371 11.4622 8.23843
354 2 O 9.94284 9.92816 6.35574
229 1 H 10.6311 12.6429 9.39398
235 1 H 11.7916 12.2753 7.70818
236 1 H 10.6337 11.1728 7.6498
374 2 O 11.2581 11.6436 8.29114
231 1 H 12.8514 10.2726 9.45557
297 2 O 3.28496 13.0488 -0.10052
51 1 H 0.0974712 2.77318 12.773
61 1 H 2.07873 2.28749 11.0975
62 1 H 0.999812 1.21832 10.8725
287 2 O 1.57297 1.63889 11.6211
50 1 H 2.76047 0.243652 12.745
284 2 O 3.04207 3.15885 9.73577
38 1 H 3.62882 0.490911 10.4941
40 1 H 5.87074 2.52764 10.5977
45 1 H 4.23182 2.26264 12.1434
46 1 H 5.29642 1.11838 12.3612
279 2 O 4.83728 1.6513 11.699
179 1 H 7.07792 2.65357 12.9366
178 1 H 9.57166 0.617386 12.8802
189 1 H 8.47343 2.00918 11.1367
190 1 H 7.64148 0.750209 11.3072
351 2 O 8.09882 1.4187 11.8469
361 2 O 9.8828 13.14 13.1727
166 1 H 10.3879 0.40589 10.3648
168 1 H 12.7435 2.43456 10.4115
173 1 H 11.043 2.17404 12.1221
174 1 H 12.134 1.11304 12.4372
343 2 O 11.6492 1.50911 11.7281
33 1 H 0.419072 5.86633 12.6894
36 1 H 2.58878 3.5851 12.8177
47 1 H 0.887389 4.35915 11.2048
48 1 H 2.2766 5.26573 11.1159
280 2 O 1.62296 4.73966 11.6729
307 2 O 3.25222 6.47226 9.79475
55 1 H 3.47364 3.80262 10.2547
63 1 H 4.45866 5.63077 12.1101
64 1 H 5.34812 4.33391 12.0673
288 2 O 4.7411 4.88459 11.4999
53 1 H 6.14076 6.24474 10.6251
371 2 O 9.98701 6.4055 10.1432
161 1 H 7.03585 5.78636 12.7722
164 1 H 9.34997 3.68364 12.5566
175 1 H 7.68575 4.30216 10.8743
176 1 H 8.69881 5.47335 10.9349
344 2 O 8.18665 4.85023 11.5186
315 2 O -0.0478577 6.87808 9.66632
181 1 H 12.989 6.42322 10.3666
183 1 H 10.5023 3.86348 10.5341
191 1 H 10.8444 5.30007 12.2682
192 1 H 12.0914 4.33614 12.293
352 2 O 11.4367 4.70664 11.6463
114 1 H 2.5443 7.28048 12.8797
115 1 H 0.312148 9.47562 12.6909
125 1 H 2.21922 8.81256 10.8716
126 1 H 1.22189 7.74905 10.8178
319 2 O 1.71054 8.20864 11.5463
273 2 O 6.50477 6.5588 13.1519
265 2 O 3.1694 6.70819 -0.0330239
102 1 H 3.7323 7.07596 10.438
104 1 H 6.0993 9.53195 10.284
109 1 H 4.21827 8.86771 12.0009
110 1 H 5.48155 7.98813 12.1497
311 2 O 4.89055 8.36997 11.4692
243 1 H 7.52693 9.32784 12.6869
242 1 H 9.31609 6.96002 12.5301
253 1 H 8.91893 8.83602 11.107
254 1 H 7.81089 7.65535 11.0922
383 2 O 8.39641 8.21723 11.7407
380 2 O 9.74794 9.77657 10.0336
230 1 H 10.631 6.71013 10.8265
232 1 H 13.0638 9.14353 10.4795
237 1 H 11.3757 8.68533 12.1203
238 1 H 12.5777 7.49685 12.2583
375 2 O 11.9365 8.00888 11.6682
308 2 O 0.0815098 9.72602 9.93233
316 2 O 3.10325 9.89257 9.99988
97 1 H 0.558506 12.6416 12.905
100 1 H 2.78753 10.5373 12.8175
111 1 H 1.05229 10.9427 11.0728
112 1 H 1.99636 12.2461 11.2012
312 2 O 1.41809 11.5727 11.6951
119 1 H 3.86327 10.4668 10.3508
117 1 H 6.22924 12.7065 10.6908
127 1 H 4.30579 11.7419 11.9469
128 1 H 5.64013 10.9054 11.9591
320 2 O 4.94969 11.3176 11.3427
298 2 O 6.82556 9.9847 12.9104
305 2 O 6.63695 12.884 -0.0220393
339 2 O 9.8421 -0.15494 9.75216
225 1 H 7.1048 12.2876 12.8012
228 1 H 9.66094 10.567 12.5306
239 1 H 7.55446 11.0808 10.8952
240 1 H 8.847 12.2064 10.9326
376 2 O 8.19253 11.5804 11.4276
362 2 O -0.155984 9.98053 0.00731593
245 1 H 12.7354 12.9148 10.2971
247 1 H 10.0813 10.4976 10.5702
255 1 H 11.0789 12.4741 12.0839
256 1 H 12.2227 11.2735 12.1689
384 2 O 11.6571 11.7778 11.5677
ITEM: TIMESTEP
23000
ITEM: NUMBER OF ATOMS
384
ITEM: BOX BOUNDS pp pp pp
-1.9529909264483170e-01 1.3305343632644927e+01
-1.4440685397097425e-01 1.3254451353970975e+01
-1.8191658535155741e-01 1.3275338565351316e+01
ITEM: ATOMS id type element x y z
2 1 H 0.196282 0.352631 0.731893
3 1 H 2.44171 2.69557 0.313761
9 1 H 0.849662 2.37766 1.9717
10 1 H 1.77067 1.17774 2.10482
261 2 O 1.35132 1.68642 1.41825
260 2 O 13.3167 3.31169 3.06877
17 1 H 3.83228 0.411851 0.258123
20 1 H 5.81904 2.96588 0.407305
25 1 H 4.12289 1.97448 1.92405
26 1 H 5.31344 0.931624 1.89846
269 2 O 4.76334 1.43667 1.36772
268 2 O 3.15168 3.21116 3.25823
130 1 H 7.12876 0.187899 0.558942
131 1 H 9.29469 2.66116 0.312148
137 1 H 7.6438 1.93627 2.10879
138 1 H 8.82898 1.02039 1.9839
325 2 O 8.09248 1.42155 1.4472
145 1 H 10.437 0.335967 0.441663
148 1 H 12.9112 2.6232 0.226151
153 1 H 10.9616 2.03737 2.21445
154 1 H 11.9997 0.971034 1.67051
333 2 O 11.3875 1.71181 1.40375
332 2 O 10.0638 3.20135 3.17222
22 1 H 0.310869 6.13638 2.43068
24 1 H 2.80594 3.75275 2.54192
27 1 H 1.90848 5.64615 0.789138
28 1 H 0.8845 4.45778 0.835073
270 2 O 1.35855 5.08614 1.42002
330 2 O 13.2756 3.35189 13.1506
337 2 O -0.178561 6.53942 13.1016
5 1 H 3.8086 5.99246 2.66534
7 1 H 6.04433 3.8512 2.57949
11 1 H 5.20323 5.41558 0.828793
12 1 H 4.21757 4.25814 0.885729
262 2 O 4.66589 4.88182 1.51647
266 2 O 6.36467 3.4788 13.1951
324 2 O 6.56925 3.17717 3.06313
150 1 H 7.17949 6.00086 2.62367
155 1 H 8.72887 5.44638 0.756996
156 1 H 7.65374 4.32007 0.866175
334 2 O 8.32057 4.78225 1.46685
152 1 H 9.41925 3.64715 2.64823
133 1 H 10.5 5.93903 2.61882
135 1 H 12.7885 3.82931 2.39091
139 1 H 12.2025 5.34783 0.712447
140 1 H 11.0603 4.22404 0.86624
326 2 O 11.7298 4.7526 1.34814
66 1 H 0.40015 6.9523 0.308452
67 1 H 2.86726 9.36369 0.407409
73 1 H 0.95372 8.75351 1.63782
74 1 H 2.2143 7.93992 2.05996
293 2 O 1.70862 8.24735 1.29888
265 2 O 3.08993 6.31005 13.0852
81 1 H 3.60754 7.00924 0.111551
84 1 H 5.92842 9.27879 0.171714
89 1 H 4.60486 8.83992 2.19335
90 1 H 5.51442 7.64441 2.08271
301 2 O 4.84302 8.12481 1.57957
291 2 O 3.07152 6.52033 3.2171
194 1 H 6.81971 7.09269 0.301075
195 1 H 9.3793 9.35782 0.406294
201 1 H 7.73067 8.70592 2.30264
202 1 H 8.66186 7.5864 1.73476
357 2 O 8.02628 8.29021 1.4654
209 1 H 10.6822 7.16967 0.298244
212 1 H 12.6263 9.41696 0.502848
217 1 H 10.944 8.70766 2.08542
218 1 H 12.2178 7.67162 2.06824
365 2 O 11.776 8.41681 1.59289
86 1 H 0.492822 12.7275 2.78314
88 1 H 2.6511 10.3378 2.89495
91 1 H 2.03647 12.1923 0.904189
92 1 H 0.845356 11.2774 1.14835
302 2 O 1.63878 11.6067 1.605
369 2 O 13.2108 -0.111032 0.0417917
362 2 O 13.1027 10.1312 -0.0402178
259 2 O 3.12663 -0.11094 3.31513
69 1 H 3.62934 12.6436 2.70325
71 1 H 5.98006 10.411 2.55363
75 1 H 5.76578 12.098 1.08175
76 1 H 4.57255 11.1352 1.11954
294 2 O 5.22052 11.5547 1.7064
306 2 O 3.34434 9.95019 13.238
297 2 O 3.16375 13.1673 -0.129773
214 1 H 7.36429 12.7315 2.69735
216 1 H 9.35184 10.4434 2.76579
219 1 H 8.80995 12.0507 1.11642
220 1 H 7.86727 11.0056 1.06531
366 2 O 8.18394 11.5876 1.7758
305 2 O 6.51066 -0.104458 -0.156423
197 1 H 10.4227 12.7596 2.87483
199 1 H 13.036 10.6003 2.77357
203 1 H 12.0427 12.0624 1.01651
204 1 H 10.9476 11.0617 1.40616
358 2 O 11.6223 11.6585 1.91619
370 2 O 9.94279 10.0849 -0.0255644
18 1 H 2.62342 0.0689218 6.03807
19 1 H 0.410869 2.6109 6.11672
29 1 H 2.05606 1.88845 4.67106
30 1 H 0.989729 0.739964 4.78836
271 2 O 1.52591 1.4149 5.36372
331 2 O 6.78115 -0.0750424 3.28204
6 1 H 3.8162 0.428107 3.74952
8 1 H 5.84645 2.54382 3.55136
13 1 H 4.58513 2.191 5.24542
14 1 H 5.55326 1.0019 5.28136
263 2 O 4.98855 1.52132 4.66643
289 2 O 6.54387 0.0773698 6.36899
323 2 O 9.78444 0.0390626 3.27725
146 1 H 9.38074 0.137231 6.1475
147 1 H 7.13646 2.82088 6.03893
157 1 H 8.93724 2.30383 4.31601
158 1 H 7.87954 1.02955 4.41581
335 2 O 8.32737 1.72859 4.93544
267 2 O -0.0289673 -0.150154 3.43868
136 1 H 12.7542 2.63112 3.54227
134 1 H 10.5511 0.600815 3.52282
141 1 H 10.9621 2.07858 5.30172
142 1 H 12.0588 1.01126 5.43235
327 2 O 11.6991 1.64499 4.82627
353 2 O 13.1918 13.2338 6.78207
377 2 O 10.0126 13.036 6.84487
346 2 O 13.2421 3.18176 6.57164
1 1 H 0.145728 5.89578 5.80844
4 1 H 2.76902 3.8707 5.98476
15 1 H 0.984553 4.2176 4.24738
16 1 H 2.07153 5.3477 4.27024
264 2 O 1.34091 4.93503 4.80516
21 1 H 6.01667 5.79667 3.80283
23 1 H 3.92161 3.73988 3.60427
31 1 H 4.17379 5.29878 5.60454
32 1 H 5.31745 4.18133 5.54245
272 2 O 4.74453 4.74509 4.99241
258 2 O 3.15545 3.27484 6.69604
129 1 H 7.113 5.75371 6.05023
132 1 H 9.46541 3.8853 6.03645
143 1 H 7.77895 4.22539 4.09652
144 1 H 8.67204 5.5155 4.15069
328 2 O 8.29089 4.77803 4.76479
355 2 O 9.83965 6.55348 3.0052
345 2 O 10.0183 6.63385 6.50227
149 1 H 12.6634 6.10019 3.55757
151 1 H 10.5964 3.91582 3.67715
159 1 H 11.0658 5.48727 5.31066
160 1 H 12.1591 4.31105 5.18601
336 2 O 11.6323 4.92764 4.64949
299 2 O 13.162 6.6336 2.91176
82 1 H 2.53896 7.02151 6.02914
93 1 H 2.07858 8.70423 4.28971
94 1 H 0.791743 7.77334 4.05695
303 2 O 1.47344 8.07383 4.73678
83 1 H 0.489376 9.18145 5.97337
300 2 O 3.2489 9.94246 3.53416