LAMMPS (27 Jun 2024)
KOKKOS mode with Kokkos version 4.3.1 is enabled (src/KOKKOS/kokkos.cpp:72)
  will use up to 1 GPU(s) per node
WARNING: When using a single thread, the Kokkos Serial backend (i.e. Makefile.kokkos_mpi_only) gives better performance than the OpenMP backend (src/KOKKOS/kokkos.cpp:202)
  using 1 OpenMP thread(s) per MPI task
Reading data file ...
  triclinic box = (0 0 0) to (23.34 21.468634 16.394175) with tilt (-9.157148 -9.15715 7.607424)
WARNING: Triclinic box skew is large. LAMMPS will run inefficiently. (src/domain.cpp:221)
  1 by 1 by 1 MPI processor grid
  reading atoms ...
  972 atoms
  read_data CPU = 0.014 seconds
ACE/AL version: 2023.11.25
Loading /pc2/users/a/acepdw01/work/phase_diagram/pot_dir/interim_potential_ladder_step_1.yaml
Total number of basis functions
	H: 23 (r=1) 664 (r>1)
	O: 23 (r=1) 664 (r>1)
Mapping LAMMPS atom type #1(H) -> ACE species type #0
Mapping LAMMPS atom type #2(O) -> ACE species type #1
Loading ASI /pc2/users/a/acepdw01/work/phase_diagram/pot_dir/interim_potential_ladder_step_1.asi
LINEAR ASI is loaded

CITE-CITE-CITE-CITE-CITE-CITE-CITE-CITE-CITE-CITE-CITE-CITE-CITE

Your simulation uses code contributions which should be cited:
- Type Label Framework: https://doi.org/10.1021/acs.jpcb.3c08419
The log file lists these citations in BibTeX format.

CITE-CITE-CITE-CITE-CITE-CITE-CITE-CITE-CITE-CITE-CITE-CITE-CITE

Switching to 'neigh_modify every 1 delay 0 check yes' setting during minimization
Neighbor list info ...
  update: every = 1 steps, delay = 0 steps, check = yes
  max neighbors/atom: 2000, page size: 100000
  master list distance cutoff = 6.5
  ghost atom cutoff = 6.5
  binsize = 6.5, bins = 7 5 3
  1 neighbor lists, perpetual/occasional/extra = 1 0 0
  (1) pair pace/extrapolation/kk, perpetual
      attributes: full, newton on, kokkos_device
      pair build: full/bin/kk/device
      stencil: full/bin/3d
      bin: kk/device
Setting up cg/kk style minimization ...
  Unit style    : metal
  Current step  : 0
WARNING: Fix with atom-based arrays not compatible with sending data in Kokkos communication, switching to classic exchange/border communication (src/KOKKOS/comm_kokkos.cpp:754)
WARNING: Fix with atom-based arrays not compatible with Kokkos sorting on device, switching to classic host sorting (src/KOKKOS/atom_kokkos.cpp:216)
Per MPI rank memory allocation (min/avg/max) = 777.8 | 777.8 | 777.8 Mbytes
   Step         TotEng         PotEng         KinEng         Press           Temp          Volume        Density     c_max_pace_gamma
         0  -4629.8845     -4629.8845      0              19281.688      0              8214.7591      1.1798944      7.700355     
       100  -4698.3625     -4698.3625      0             -7998.3441      0              8214.7591      1.1798944      7.700355     
       200  -4698.384      -4698.384       0             -8095.8802      0              8214.7591      1.1798944      7.700355     
       211  -4698.384      -4698.384       0             -8095.9653      0              8214.7591      1.1798944      7.700355     
Loop time of 1.12868 on 1 procs for 211 steps with 972 atoms

99.1% CPU use with 1 MPI tasks x 1 OpenMP threads

Minimization stats:
  Stopping criterion = force tolerance
  Energy initial, next-to-last, final = 
     -4629.88450587203  -4698.38398317787  -4698.38398318377
  Force two-norm initial, final = 81.896981 0.00036013325
  Force max component initial, final = 12.801874 1.992882e-05
  Final line search alpha, max atom move = 1 1.992882e-05
  Iterations, force evaluations = 211 419

MPI task timing breakdown:
Section |  min time  |  avg time  |  max time  |%varavg| %total
---------------------------------------------------------------
Pair    | 0.96264    | 0.96264    | 0.96264    |   0.0 | 85.29
Neigh   | 0.0023923  | 0.0023923  | 0.0023923  |   0.0 |  0.21
Comm    | 0.012645   | 0.012645   | 0.012645   |   0.0 |  1.12
Output  | 0.00025145 | 0.00025145 | 0.00025145 |   0.0 |  0.02
Modify  | 0.088917   | 0.088917   | 0.088917   |   0.0 |  7.88
Other   |            | 0.06184    |            |       |  5.48

Nlocal:            972 ave         972 max         972 min
Histogram: 1 0 0 0 0 0 0 0 0 0
Nghost:           3683 ave        3683 max        3683 min
Histogram: 1 0 0 0 0 0 0 0 0 0
Neighs:              0 ave           0 max           0 min
Histogram: 1 0 0 0 0 0 0 0 0 0
FullNghs:       131994 ave      131994 max      131994 min
Histogram: 1 0 0 0 0 0 0 0 0 0

Total # of neighbors = 131994
Ave neighs/atom = 135.7963
Neighbor list builds = 6
Dangerous builds = 0
Setting up Verlet run ...
  Unit style    : metal
  Current step  : 211
  Time step     : 0.0005
WARNING: Fix with atom-based arrays not compatible with Kokkos sorting on device, switching to classic host sorting (src/KOKKOS/atom_kokkos.cpp:216)
Per MPI rank memory allocation (min/avg/max) = 779.6 | 779.6 | 779.6 Mbytes
   Step         TotEng         PotEng         KinEng         Press           Temp          Volume        Density     c_max_pace_gamma
       211  -4663.8683     -4698.384       34.51569      -3608.0895      275            8214.7591      1.1798944      7.700355     
       300  -4657.8994     -4673.9294      16.029949     -3172.1148      127.71688      8169.1402      1.1864833      7.700355     
       400  -4650.6643     -4673.4448      22.780532     -1031.8868      181.50141      8046.0038      1.2046413      7.700355     
       500  -4643.5746     -4670.0479      26.473301      3019.9574      210.92314      7899.6818      1.2269543      7.700355     
       600  -4639.0206     -4669.7257      30.705135      10946.687      244.63982      7793.0174      1.2437478      7.700355     
       700  -4635.6292     -4668.1787      32.549569      12182.935      259.33514      7750.5832      1.2505573      7.700355     
       800  -4635.1869     -4665.7724      30.585547      9513.0421      243.68701      7768.2092      1.2477198      7.700355     
       900  -4633.1153     -4665.885       32.769768      7199.6695      261.08955      7832.6203      1.2374592      7.700355     
      1000  -4632.8124     -4665.7309      32.918499      5451.2892      262.27455      7920.7878      1.2236849      0.65735135   
      1100  -4632.4835     -4665.697       33.21355       3311.9423      264.62534      8007.102       1.2104939      0.65735135   
      1200  -4631.7468     -4665.5741      33.827292      4026.2426      269.51526      8070.4485      1.2009925      0.65735135   
      1300  -4630.9226     -4664.4112      33.488588      2762.1487      266.81668      8102.7828      1.1962         0.65735135   
      1400  -4630.6043     -4664.2672      33.662956      2040.7088      268.20593      8105.2695      1.195833       0.65735135   
      1500  -4628.8399     -4663.7668      34.926876      3809.8879      278.27608      8084.9679      1.1988357      0.65735135   
      1600  -4627.0745     -4662.1435      35.069051      4987.4092      279.40884      8052.166       1.2037194      0.65735135   
      1700  -4626.9573     -4663.341       36.383659      4025.8124      289.88284      8022.3309      1.208196       0.65735135   
      1800  -4628.3838     -4663.535       35.151238      3918.1686      280.06366      7999.5615      1.211635       0.65735135   
      1900  -4629.458      -4663.1605      33.702498      6241.4541      268.52098      7985.6319      1.2137485      0.65735135   
      2000  -4628.684      -4662.5925      33.90841       4845.3903      270.16156      7981.9743      1.2143046      0.61560215   
      2100  -4628.1813     -4661.9677      33.786419      6086.7453      269.18961      7988.066       1.2133786      0.61560215   
      2200  -4630.4675     -4664.0883      33.620876      8088.2978      267.87066      8003.0925      1.2111004      0.61560215   
      2300  -4630.1521     -4664.6266      34.474426      6032.7652      274.67123      8020.0775      1.2085355      0.61560215   
      2400  -4630.5395     -4663.7228      33.183357      6682.0749      264.38478      8034.4251      1.2063773      0.61560215   
      2500  -4630.4418     -4664.6381      34.196292      2653.2688      272.45523      8044.7248      1.2048328      0.61560215   
      2600  -4630.6345     -4664.0609      33.42645       1909.7838      266.32159      8047.1134      1.2044752      0.61560215   
      2700  -4631.1616     -4664.0408      32.879187      5769.5696      261.96134      8039.0347      1.2056856      0.61560215   
      2800  -4630.7226     -4664.3597      33.637095      5821.3229      267.99989      8023.606       1.208004       0.61560215   
      2900  -4631.2944     -4664.0495      32.755117      6794.3736      260.97282      8008.2346      1.2103227      0.61560215   
      3000  -4630.951      -4663.8544      32.903394      5555.7754      262.15421      7995.63        1.2122307      0.6168855    
      3100  -4631.3322     -4663.9347      32.602475      4413.0249      259.75667      7988.1167      1.2133709      0.6168855    
      3200  -4631.1313     -4663.5196      32.388316      4370.1123      258.05037      7988.034       1.2133835      0.6168855    
      3300  -4630.3211     -4663.9802      33.659169      5284.0929      268.17576      7994.8691      1.2123461      0.6168855    
      3400  -4630.5126     -4663.8001      33.287447      6242.7004      265.2141       8009.4665      1.2101366      0.6168855    
      3500  -4630.5768     -4664.5532      33.976459      7200.4948      270.70374      8030.9595      1.2068979      0.6168855    
      3600  -4630.7832     -4664.0915      33.308307      3767.0208      265.38031      8053.2424      1.2035585      0.6168855    
      3700  -4630.905      -4664.0574      33.152406      3572.305       264.13818      8068.591       1.201269       0.6168855    
      3800  -4630.293      -4663.6787      33.385748      3183.8262      265.99731      8070.9079      1.2009242      0.6168855    
      3900  -4628.9301     -4662.9045      33.974384      5616.3702      270.6872       8057.9961      1.2028485      0.6168855    
      4000  -4628.8014     -4664.3867      35.585324      8047.2461      283.52219      8033.9378      1.2064505      0.61096679   
      4100  -4630.055      -4664.9452      34.890225      5528.8347      277.98406      8004.5189      1.2108846      0.61096679   
      4200  -4629.5161     -4662.6417      33.125553      6653.2903      263.92423      7974.1666      1.2154936      0.61096679   
      4300  -4630.6375     -4664.3711      33.7336        6919.9705      268.76878      7950.1102      1.2191716      0.61096679   
      4400  -4630.2429     -4664.0027      33.759781      8283.5999      268.97738      7936.4413      1.2212714      0.61096679   
      4500  -4630.5642     -4665.2343      34.670058      7408.8722      276.22991      7940.7602      1.2206071      0.61096679   
      4600  -4632.0802     -4664.3683      32.288065      6174.2285      257.25164      7961.0792      1.2174918      0.61096679   
      4700  -4631.7981     -4666.3146      34.516447      6712.1005      275.00603      7992.2788      1.212739       0.61096679   
      4800  -4631.9591     -4665.9388      33.979704      4165.4104      270.72959      8028.324       1.2072941      0.61096679   
      4900  -4633.7073     -4664.4191      30.711861      3456.4475      244.69341      8056.9597      1.2030032      0.61096679   
      5000  -4632.0479     -4665.526       33.478151      5871.8354      266.73352      8071.6397      1.2008153      0.63628721   
      5100  -4631.2575     -4663.53        32.272497      432.84435      257.1276       8069.8472      1.201082       0.63628721   
      5200  -4628.9023     -4662.5563      33.653956      714.8407       268.13423      8047.2007      1.2044621      0.63628721   
      5300  -4627.6967     -4662.0242      34.327493      6332.6684      273.50056      8009.1618      1.2101826      0.63628721   
      5400  -4628.1515     -4662.6885      34.536918      7045.6365      275.16913      7969.9773      1.2161325      0.63628721   
      5500  -4626.3079     -4660.8821      34.574223      4201.5027      275.46636      7942.9295      1.2202738      0.63628721   
      5600  -4626.7487     -4661.9487      35.20005       5568.9185      280.45256      7935.6177      1.2213981      0.63628721   
      5700  -4626.1098     -4662.6707      36.560965      8732.6334      291.2955       7950.7903      1.2190673      0.63628721   
      5800  -4626.6815     -4662.7386      36.057152      8617.982       287.28143      7986.0526      1.2136845      0.63628721   
      5900  -4626.1108     -4659.8937      33.782898      6515.0199      269.16156      8030.5288      1.2069627      0.63628721   
      6000  -4627.3706     -4661.8848      34.514254     -918.7051       274.98856      8077.8526      1.1998917      0.64818715   
      6100  -4627.7118     -4661.2758      33.563966      2193.7226      267.41724      8109.046       1.195276       0.64818715   
      6200  -4628.3067     -4662.2283      33.921655      25.308096      270.26709      8116.8601      1.1941254      0.64818715   
      6300  -4626.5189     -4662.3189      35.79998       648.73917      285.23244      8101.2012      1.1964335      0.64818715   
      6400  -4627.1931     -4660.9792      33.786057      3952.6187      269.18673      8066.7082      1.2015494      0.64818715   
      6500  -4627.357      -4662.6055      35.248548      5060.3522      280.83896      8022.1259      1.2082269      0.64818715   
      6600  -4628.5056     -4662.0028      33.49722       7288.3755      266.88545      7975.7695      1.2152493      0.64818715   
      6700  -4628.4977     -4662.8981      34.400367      8772.8487      274.08117      7940.5284      1.2206428      0.64818715   
      6800  -4628.3214     -4663.6072      35.285842      5905.9693      281.1361       7921.4638      1.2235805      0.64818715   
      6900  -4627.8313     -4662.7813      34.949979      5362.7009      278.46015      7923.586       1.2232528      0.64818715   
      7000  -4628.9572     -4664.0063      35.049087      4306.5821      279.24978      7948.7928      1.2193736      0.64297092   
      7100  -4629.5708     -4664.0173      34.446485      8506.366       274.44862      7987.666       1.2134394      0.64297092   
      7200  -4630.0877     -4664.568       34.48022       7145.8146      274.7174       8027.5826      1.2074056      0.64297092   
      7300  -4630.5742     -4663.5625      32.988309      2557.5418      262.83076      8057.3019      1.2029521      0.64297092   
      7400  -4629.2786     -4663.8865      34.607895      4272.7811      275.73463      8075.2539      1.2002779      0.64297092   
      7500  -4629.6829     -4663.9905      34.307626      4848.9732      273.34227      8078.4061      1.1998095      0.64297092   
      7600  -4629.8475     -4664.1333      34.285817      3667.8929      273.16851      8065.0931      1.20179        0.64297092   
      7700  -4631.3832     -4663.4216      32.038333      6129.235       255.26193      8042.5425      1.2051597      0.64297092   
      7800  -4630.7954     -4665.6753      34.879883      5387.7741      277.90166      8014.3389      1.2094009      0.64297092   
      7900  -4630.0143     -4661.8188      31.804558      1151.3887      253.39935      7985.2871      1.2138009      0.64297092   
      8000  -4629.8831     -4662.924       33.040889      3613.6079      263.24968      7965.7926      1.2167714      0.65567221   
      8100  -4628.9174     -4664.2103      35.292912      4416.191       281.19243      7960.3365      1.2176054      0.65567221   
      8200  -4629.496      -4663.6196      34.123588      5703.2805      271.87597      7967.2311      1.2165517      0.65567221   
      8300  -4628.7935     -4664.2695      35.476         8080.5439      282.65117      7988.599       1.2132977      0.65567221   
      8400  -4628.2319     -4663.7882      35.556224      3621.4586      283.29034      8017.8404      1.2088727      0.65567221   
      8500  -4628.7521     -4664.2433      35.491189      993.18419      282.77218      8045.3518      1.2047389      0.65567221   
      8600  -4628.779      -4662.4108      33.631852      5513.0766      267.95812      8062.5737      1.2021656      0.65567221   
      8700  -4629.7228     -4664.9771      35.254277      2855.9458      280.88461      8066.6069      1.2015645      0.65567221   
      8800  -4628.9411     -4664.2217      35.28062       1457.8703      281.09449      8054.9738      1.2032998      0.65567221   
      8900  -4629.1149     -4664.1621      35.047149      3351.0819      279.23434      8031.5461      1.2068098      0.65567221   
      9000  -4628.9382     -4662.9503      34.012096      7515.7185      270.98767      8002.4102      1.2112037      0.64336169   
      9100  -4628.673      -4662.9473      34.27428       5721.7447      273.07659      7974.4071      1.2154569      0.64336169   
      9200  -4628.7701     -4662.8992      34.129078      8081.0574      271.91971      7955.2132      1.2183895      0.64336169   
      9300  -4627.6856     -4661.5979      33.912241      7087.162       270.19208      7948.638       1.2193974      0.64336169   
      9400  -4629.206      -4663.9816      34.775599      5175.7506      277.0708       7959.2212      1.217776       0.64336169   
      9500  -4630.034      -4664.238       34.204025      5944.9658      272.51684      7984.6979      1.2138904      0.64336169   
      9600  -4630.8034     -4664.1508      33.347465      7060.4773      265.69229      8014.1901      1.2094233      0.64336169   
      9700  -4630.9794     -4664.5137      33.534298      1964.6639      267.18087      8041.736       1.2052806      0.64336169   
      9800  -4631.4068     -4664.5243      33.117508      2756.3154      263.86014      8058.6178      1.2027557      0.64336169   
      9900  -4629.8177     -4664.1911      34.373345      6583.7112      273.86588      8060.2406      1.2025135      0.64336169   
     10000  -4627.8094     -4662.5466      34.737262      6071.6943      276.76535      8049.0553      1.2041846      0.7195098    
     10100  -4629.0192     -4662.0784      33.059257      6954.0685      263.39603      8030.2268      1.207008       0.7195098    
     10200  -4630.1681     -4664.9196      34.75153       4567.306       276.87903      8008.0325      1.2103533      0.7195098    
     10300  -4629.6089     -4663.9367      34.327757      4077.0357      273.50266      7983.9613      1.2140024      0.7195098    
     10400  -4627.9086     -4663.0221      35.113473      7194.7515      279.76277      7968.6642      1.2163329      0.7195098    
     10500  -4628.7392     -4663.0314      34.292208      8156.0997      273.21943      7967.5411      1.2165044      0.7195098    
     10600  -4631.2071     -4664.6068      33.399648      7463.1519      266.10805      7984.0769      1.2139849      0.7195098    
     10700  -4630.9643     -4664.1505      33.186133      4005.372       264.4069       8009.3134      1.2101597      0.7195098    
     10800  -4630.6316     -4664.4013      33.769678      736.31052      269.05623      8034.9836      1.2062935      0.7195098    
     10900  -4630.8497     -4665.521       34.671359      4159.6133      276.24028      8054.3262      1.2033966      0.7195098    
     11000  -4630.2856     -4663.892       33.606442      4372.8291      267.75566      8065.3493      1.2017518      0.64376062   
     11100  -4630.5125     -4663.7956      33.283089      5310.347       265.17939      8065.2011      1.2017739      0.64376062   
     11200  -4628.2425     -4663.3709      35.128405      3489.6158      279.88174      8052.0924      1.2037304      0.64376062   
     11300  -4627.9888     -4662.5481      34.559221      8006.1272      275.34683      8031.1188      1.206874       0.64376062   
     11400  -4628.3535     -4662.006       33.652453      1641.5634      268.12226      8014.1086      1.2094356      0.64376062   
     11500  -4627.3178     -4661.8599      34.542071      3399.1792      275.21018      7999.9248      1.2115799      0.64376062   
     11600  -4627.2684     -4664.0473      36.778841      4634.9465      293.0314       7994.8924      1.2123426      0.64376062   
     11700  -4627.7309     -4663.7737      36.042789      5582.8527      287.16699      7997.1156      1.2120055      0.64376062   
     11800  -4628.4959     -4662.392       33.896081      6737.7739      270.06333      8007.496       1.2104344      0.64376062   
     11900  -4629.767      -4664.4705      34.703459      3882.06        276.49603      8025.2068      1.2077631      0.64376062   
     12000  -4629.2733     -4662.6293      33.35604       2767.7613      265.76061      8040.9928      1.205392       0.61543742   
     12100  -4629.3404     -4664.5061      35.165663      4712.7847      280.17859      8049.6914      1.2040894      0.61543742   
     12200  -4629.5454     -4664.2616      34.716226      6807.5285      276.59775      8049.0394      1.204187       0.61543742   
     12300  -4629.4784     -4662.8902      33.411788      6662.8744      266.20478      8037.1911      1.2059622      0.61543742   
     12400  -4628.9423     -4662.502       33.559658      5712.1553      267.38292      8019.9935      1.2085482      0.61543742   
     12500  -4629.0275     -4663.4599      34.432373      5039.6576      274.33618      8004.3836      1.210905       0.61543742   
     12600  -4629.228      -4663.2047      33.976652      6113.2304      270.70528      7994.6713      1.2123761      0.61543742   
     12700  -4629.7099     -4663.7141      34.004257      5940.2519      270.92521      7995.5748      1.2122391      0.61543742   
     12800  -4630.5752     -4663.2773      32.702126      7915.6056      260.55062      8003.3827      1.2110565      0.61543742   
     12900  -4629.8951     -4663.7422      33.847099      6782.4166      269.67307      8016.3932      1.2090909      0.61543742   
     13000  -4629.0594     -4664.0767      35.017255      5143.1181      278.99617      8031.0854      1.206879       0.71768167   
     13100  -4629.1234     -4664.5517      35.428345      5526.1437      282.27148      8045.0393      1.2047857      0.71768167   
     13200  -4629.4069     -4663.1103      33.703443      2939.3761      268.52851      8050.0373      1.2040377      0.71768167   
     13300  -4627.9813     -4663.3712      35.389837      2714.3152      281.96467      8045.7331      1.2046818      0.71768167   
     13400  -4627.3871     -4662.1546      34.767583      5971.0959      277.00693      8036.7047      1.2060352      0.71768167   
     13500  -4626.8488     -4661.1616      34.312801      5766.0649      273.3835       8031.4935      1.2068177      0.71768167   
     13600  -4628.5597     -4663.2755      34.715799      8310.7432      276.59435      8030.2184      1.2070093      0.71768167   
     13700  -4628.0296     -4662.4408      34.411209      8150.3233      274.16756      8029.3115      1.2071457      0.71768167   
     13800  -4628.1943     -4663.1843      34.990047      3858.8266      278.77939      8026.1434      1.2076221      0.71768167   
     13900  -4628.5936     -4662.2287      33.635032      2551.3725      267.98345      8020.8716      1.2084159      0.71768167   
     14000  -4629.6597     -4663.183       33.523295      2011.0636      267.0932       8016.8708      1.2090189      0.68787862   
     14100  -4629.3369     -4663.7657      34.428764      4935.0977      274.30742      8012.1401      1.2097328      0.68787862   
     14200  -4629.2957     -4662.8374      33.541761      7547.2733      267.24033      8007.0972      1.2104947      0.68787862   
     14300  -4629.1204     -4664.1672      35.046716      7137.4737      279.23089      8007.1934      1.2104801      0.68787862   
     14400  -4629.5162     -4664.5764      35.060267      4520.901       279.33885      8006.705       1.210554       0.68787862   
     14500  -4628.5883     -4662.2623      33.673963      2690.855       268.29363      8007.8124      1.2103865      0.68787862   
     14600  -4629.063      -4663.0632      34.00019       4653.8519      270.89281      8008.4626      1.2102883      0.68787862   
     14700  -4629.4138     -4663.3533      33.939462      5705.5442      270.40897      8008.0136      1.2103561      0.68787862   
     14800  -4629.1234     -4664.5395      35.416051      2307.4389      282.17352      8007.5355      1.2104284      0.68787862   
     14900  -4628.7475     -4663.1727      34.425144      5002.1784      274.27858      8007.6174      1.210416       0.68787862   
     15000  -4628.8687     -4664.1687      35.299987      7621.5858      281.2488       8009.6315      1.2101116      0.64078555   
     15100  -4628.8005     -4663.7836      34.983099      4646.9733      278.72403      8014.8095      1.2093299      0.64078555   
     15200  -4630.5552     -4664.8838      34.328522      5120.5265      273.50876      8020.4955      1.2084725      0.64078555   
     15300  -4628.7087     -4662.5791      33.870332      6960.3376      269.85818      8025.1988      1.2077643      0.64078555   
     15400  -4628.6404     -4662.6728      34.032329      5769.1164      271.14887      8029.7112      1.2070856      0.64078555   
     15500  -4628.6562     -4663.702       35.045854      2234.1065      279.22402      8038.3641      1.2057862      0.64078555   
     15600  -4628.8364     -4664.3667      35.530327      3382.0651      283.08401      8045.0909      1.204778       0.64078555   
     15700  -4628.4075     -4663.8358      35.428316      7122.679       282.27124      8046.7755      1.2045258      0.64078555   
     15800  -4628.4486     -4662.378       33.929368      5267.9046      270.32855      8046.5714      1.2045563      0.64078555   
     15900  -4628.4331     -4663.333       34.8999        5885.9294      278.06115      8041.2         1.205361       0.64078555   
     16000  -4629.4289     -4663.3609      33.932035      6632.9575      270.34979      8029.3923      1.2071335      0.68408432   
     16100  -4631.3484     -4665.2617      33.913315      6834.2957      270.20064      8015.2096      1.2092695      0.68408432   
     16200  -4630.8415     -4664.0191      33.177581      3123.9973      264.33876      7997.7956      1.2119025      0.68408432   
     16300  -4629.0261     -4662.8224      33.796291      4924.6257      269.26826      7980.4374      1.2145385      0.68408432   
     16400  -4628.5742     -4660.9857      32.411465      6537.8052      258.23482      7968.093       1.2164201      0.68408432   
     16500  -4627.9851     -4662.3189      34.333776      3404.6678      273.55062      7967.5391      1.2165047      0.68408432   
     16600  -4627.4383     -4662.6117      35.173368      5860.656       280.23997      7981.2017      1.2144222      0.68408432   
     16700  -4627.8904     -4663.242       35.351655      5771.1231      281.66046      8007.1424      1.2104878      0.68408432   
     16800  -4629.15       -4662.7413      33.591338      6274.8915      267.63533      8035.9124      1.2061541      0.68408432   
     16900  -4630.4068     -4664.2842      33.877404      2948.2017      269.91453      8060.7826      1.2024327      0.68408432   
     17000  -4629.3747     -4663.7715      34.396741      3386.2059      274.05229      8072.7363      1.2006522      0.63717951   
     17100  -4628.9857     -4662.0683      33.082671      8114.4763      263.58258      8067.2365      1.2014707      0.63717951   
     17200  -4628.7472     -4663.5315      34.784234      4437.7275      277.13959      8047.6707      1.2043918      0.63717951   
     17300  -4630.0633     -4664.1439      34.08065       5869.2516      271.53387      8017.1349      1.2089791      0.63717951   
     17400  -4630.1114     -4664.6282      34.516766      5168.2406      275.00857      7981.3819      1.2143948      0.63717951   
     17500  -4629.9958     -4664.1783      34.18258       1813.4141      272.34598      7949.4433      1.2192739      0.63717951   
     17600  -4629.8069     -4664.4878      34.680934      5892.7999      276.31656      7934.0709      1.2216362      0.63717951   
     17700  -4628.7161     -4663.6852      34.969085      8638.8232      278.61237      7937.4565      1.2211152      0.63717951   
     17800  -4627.9934     -4662.6077      34.614361      4905.4809      275.78615      7960.3109      1.2176093      0.63717951   
     17900  -4629.1845     -4663.8306      34.646144      1650.8566      276.03938      7995.7356      1.2122147      0.63717951   
     18000  -4629.9775     -4662.7589      32.78138       2496.6288      261.18207      8031.7447      1.20678        0.69342143   
     18100  -4629.3779     -4662.5629      33.184909      4166.4251      264.39715      8061.845       1.2022742      0.69342143   
     18200  -4629.013      -4662.4549      33.441917      2652.0359      266.44483      8080.8976      1.1994396      0.69342143   
     18300  -4627.569      -4662.6172      35.0482        3637.2664      279.24272      8085.4424      1.1987654      0.69342143   
     18400  -4627.8804     -4662.5861      34.705729      1261.8116      276.51411      8077.0483      1.2000112      0.69342143   
     18500  -4627.5023     -4661.5954      34.093086      6044.2474      271.63295      8058.6634      1.2027489      0.69342143   
     18600  -4627.6105     -4662.3318      34.72124       5719.1581      276.63769      8037.9713      1.2058451      0.69342143   
     18700  -4626.4812     -4662.3742      35.892956      5441.7484      285.97322      8021.8078      1.2082748      0.69342143   
     18800  -4627.0401     -4662.0614      35.021294      1594.0108      279.02834      8013.4975      1.2095279      0.69342143   
     18900  -4626.9822     -4661.6019      34.619701      3181.9394      275.82869      8011.8925      1.2097702      0.69342143   
     19000  -4626.5724     -4662.2401      35.667724      3695.7473      284.1787       8017.5822      1.2089116      0.68377989   
     19100  -4626.1173     -4661.9806      35.863231      4094.6836      285.73638      8029.5905      1.2071037      0.68377989   
     19200  -4624.8796     -4663.2775      38.397922      5038.5703      305.93126      8046.257       1.2046034      0.68377989   
     19300  -4625.1162     -4661.9583      36.842105      2432.3397      293.53546      8066.9892      1.2015075      0.68377989   
     19400  -4625.3309     -4660.987       35.656177      2138.2997      284.08671      8086.0609      1.1986737      0.68377989   
     19500  -4627.0096     -4662.2462      35.236602      3436.2366      280.74378      8098.093       1.1968927      0.68377989   
     19600  -4626.5468     -4661.3557      34.80894       4574.1768      277.33644      8093.868       1.1975175      0.68377989   
     19700  -4625.7502     -4661.2915      35.541308      6389.1743      283.1715       8077.0119      1.2000166      0.68377989   
     19800  -4625.4244     -4661.7745      36.350129      5209.3994      289.61569      8054.4483      1.2033783      0.68377989   
     19900  -4625.3341     -4661.3537      36.019549      4776.0734      286.98183      8034.0691      1.2064308      0.68377989   
     20000  -4626.1327     -4662.0018      35.869081      4761.7334      285.78299      8018.0232      1.2088451      0.80097068   
     20100  -4626.8161     -4663.6151      36.798942      5731.8169      293.19156      8008.1806      1.2103309      0.80097068   
     20200  -4627.9598     -4662.6362      34.676434      6603.1576      276.28071      8007.3715      1.2104532      0.80097068   
     20300  -4628.9792     -4664.0594      35.080215      7691.6762      279.49779      8011.5023      1.2098291      0.80097068   
     20400  -4628.681      -4662.6848      34.003842      5512.677       270.9219       8016.426       1.209086       0.80097068   
     20500  -4628.5791     -4663.0731      34.494015      4373.4098      274.8273       8027.3079      1.207447       0.80097068   
     20600  -4628.2154     -4662.0786      33.863179      4575.921       269.80119      8042.8218      1.2051179      0.80097068   
     20700  -4628.4425     -4662.4709      34.02846       4083.3981      271.11805      8056.9925      1.2029983      0.80097068   
     20800  -4628.2072     -4663.2311      35.023941      3028.0744      279.04943      8063.7093      1.2019963      0.80097068   
     20900  -4627.6009     -4661.7936      34.192684      4115.2524      272.42648      8057.8238      1.2028742      0.80097068   
     21000  -4628.1809     -4662.9249      34.743955      1324.8383      276.81867      8042.2052      1.2052103      0.72358227   
     21100  -4627.7816     -4662.017       34.235406      4516.9126      272.76687      8018.1478      1.2088264      0.72358227   
     21200  -4628.0437     -4662.93        34.886289      4693.2442      277.95271      7995.375       1.2122694      0.72358227   
     21300  -4628.1734     -4662.4601      34.286638      4781.6041      273.17505      7979.5909      1.2146673      0.72358227   
     21400  -4628.2574     -4662.7051      34.447701      6531.924       274.4583       7974.908       1.2153806      0.72358227   
     21500  -4629.7202     -4663.5684      33.848247      3844.3974      269.68222      7977.9613      1.2149154      0.72358227   
     21600  -4629.6122     -4663.8022      34.190004      5347.6356      272.40513      7990.0821      1.2130724      0.72358227   
     21700  -4630.1249     -4664.6518      34.526903      1559.3688      275.08934      8008.3621      1.2103035      0.72358227   
     21800  -4629.6028     -4664.7388      35.135978      3616.6963      279.94207      8025.5719      1.2077081      0.72358227   
     21900  -4630.5498     -4663.1818      32.631937      4355.8084      259.9914       8038.7458      1.2057289      0.72358227   
     22000  -4630.4025     -4663.5785      33.17598       840.77439      264.326        8044.7358      1.2048312      0.71805996   
     22100  -4629.4928     -4663.7539      34.261077      3836.3549      272.9714       8043.3484      1.205039       0.71805996   
     22200  -4628.6269     -4662.6197      33.992805      7633.5532      270.83397      8037.1298      1.2059714      0.71805996   
     22300  -4629.1679     -4663.4353      34.267446      8509.0597      273.02214      8029.5665      1.2071073      0.71805996   
     22400  -4628.1135     -4662.8842      34.770725      3692.6297      277.03196      8024.8028      1.2078239      0.71805996   
     22500  -4627.5451     -4662.6386      35.093493      4169.6356      279.60358      8024.0323      1.2079399      0.71805996   
     22600  -4627.4378     -4663.04        35.602262      7074.0257      283.65715      8030.6744      1.2069408      0.71805996   
     22700  -4626.6064     -4662.6765      36.070067      8861.3335      287.38433      8041.3242      1.2053423      0.71805996   
     22800  -4627.4395     -4662.5599      35.12038       4785.462       279.8178       8057.0951      1.202983       0.71805996   
     22900  -4627.4002     -4660.8483      33.448132      3131.57        266.49435      8072.8152      1.2006404      0.71805996   
     23000  -4627.5078     -4664.1564      36.648562      5326.8826      291.99342      8085.8173      1.1987098      0.62499415   
     23100  -4629.0609     -4662.9383      33.87736       2710.3071      269.91417      8089.5531      1.1981562      0.62499415   
     23200  -4628.1861     -4663.7794      35.593276      4791.7105      283.58555      8080.2547      1.199535       0.62499415   
     23300  -4628.9611     -4663.0675      34.106387      3698.0279      271.73892      8061.6058      1.2023099      0.62499415   
     23400  -4630.0503     -4663.5663      33.515996      3759.5054      267.03505      8039.6021      1.2056005      0.62499415   
     23500  -4630.0872     -4662.8044      32.71718       8869.0032      260.67056      8012.0928      1.2097399      0.62499415   
     23600  -4629.0507     -4664.4377      35.387011      7448.0878      281.94216      7984.1202      1.2139783      0.62499415   
     23700  -4628.5859     -4663.9933      35.407395      5395.2652      282.10456      7963.5527      1.2171136      0.62499415   
     23800  -4627.6864     -4661.8267      34.140253      7534.334       272.00875      7958.8087      1.2178391      0.62499415   
     23900  -4628.0798     -4663.0632      34.983413      10746.396      278.72653      7971.1014      1.215961       0.62499415   
     24000  -4628.8899     -4663.4535      34.563566      8567.3143      275.38144      7999.8214      1.2115956      0.65890827   
     24100  -4628.6048     -4663.5723      34.967459      4066.0593      278.59942      8033.3401      1.2065403      0.65890827   
     24200  -4628.148      -4661.9279      33.779884      3328.7277      269.13755      8062.4849      1.2021788      0.65890827   
     24300  -4628.6902     -4662.5279      33.837698      733.50032      269.59817      8080.7249      1.1994652      0.65890827   
     24400  -4629.2152     -4663.0813      33.866097     -1001.6601      269.82444      8078.9934      1.1997223      0.65890827   
     24500  -4628.5781     -4662.4702      33.892068      4073.286       270.03136      8059.6534      1.2026011      0.65890827   
     24600  -4627.7516     -4661.9829      34.231318      6368.3406      272.7343       8030.9027      1.2069065      0.65890827   
     24700  -4627.4502     -4662.6174      35.167189      6458.7909      280.19075      8005.9834      1.2106631      0.65890827   
     24800  -4628.5886     -4663.6991      35.11058       4699.8034      279.73972      7989.9032      1.2130996      0.65890827   
     24900  -4630.1216     -4664.6722      34.55063       7205.7194      275.27838      7979.029       1.2147529      0.65890827   
     25000  -4630.6862     -4664.1913      33.505096      5073.1012      266.9482       7974.8332      1.215392       0.65059351   
     25100  -4630.2019     -4664.2147      34.012875      6037.8492      270.99387      7976.4652      1.2151433      0.65059351   
     25200  -4629.194      -4664.5486      35.354591      7095.7303      281.68385      7985.9899      1.213694       0.65059351   
     25300  -4629.1527     -4664.1853      35.032552      5170.6404      279.11804      8002.6286      1.2111706      0.65059351   
     25400  -4627.488      -4661.7642      34.276177      6319.9363      273.09171      8027.8715      1.2073622      0.65059351   
     25500  -4627.8801     -4663.469       35.588966      7184.8538      283.55121      8057.2089      1.202966       0.65059351   
     25600  -4627.6688     -4662.8945      35.22574       3132.1517      280.65725      8079.1733      1.1996956      0.65059351   
     25700  -4628.3408     -4663.5918      35.251015      5201.6559      280.85862      8092.082       1.1977818      0.65059351   
     25800  -4629.0219     -4663.0623      34.040397      3910.9002      271.21315      8091.6217      1.1978499      0.65059351   
     25900  -4627.6009     -4661.9663      34.365343      5343.8008      273.80212      8076.145       1.2001454      0.65059351   
     26000  -4628.8977     -4662.757       33.859289      2822.3672      269.7702       8052.2088      1.203713       0.70681416   
     26100  -4629.9549     -4664.3918      34.436926      5360.6457      274.37246      8021.1193      1.2083785      0.70681416   
     26200  -4630.4807     -4664.9283      34.447671      3661.2487      274.45806      7988.0805      1.2133764      0.70681416   
     26300  -4630.616      -4663.149       32.532957      1848.0791      259.20279      7959.9913      1.2176582      0.70681416   
     26400  -4630.5982     -4663.9155      33.317278      6483.608       265.45178      7945.751       1.2198404      0.70681416   
     26500  -4629.1218     -4664.3885      35.266674      3813.34        280.98338      7946.947       1.2196569      0.70681416   
     26600  -4629.7247     -4663.9801      34.255419      5297.7615      272.92632      7963.1903      1.217169       0.70681416   
     26700  -4629.3554     -4663.0453      33.689897      5992.5428      268.42059      7994.9724      1.2123304      0.70681416   
     26800  -4629.1517     -4663.4811      34.329438      4337.8343      273.51606      8035.7915      1.2061722      0.70681416   
     26900  -4628.4159     -4663.5096      35.093678      3531.973       279.60506      8073.9992      1.2004644      0.70681416   
     27000  -4627.9434     -4662.4948      34.551326      3978.7862      275.28393      8099.2923      1.1967155      0.66936554   
     27100  -4628.6199     -4662.9585      34.338637      6585.3072      273.58935      8107.3584      1.1955249      0.66936554   
     27200  -4628.09       -4662.9793      34.889355     -318.8402       277.97713      8094.5112      1.1974223      0.66936554   
     27300  -4628.8925     -4662.6447      33.752149      2310.3235      268.91656      8061.3133      1.2023535      0.66936554   
     27400  -4627.893      -4661.8874      33.994419      5158.997       270.84683      8013.9143      1.2094649      0.66936554   
     27500  -4627.4775     -4662.846       35.368503      5673.1179      281.7947       7964.8767      1.2169113      0.66936554   
     27600  -4626.955      -4662.5694      35.614309      7852.8975      283.75313      7927.7751      1.2226064      0.66936554   
     27700  -4625.9373     -4662.2566      36.319365      8092.6712      289.37059      7910.3719      1.2252962      0.66936554   
     27800  -4626.1258     -4661.8401      35.714312      5517.2507      284.54989      7924.5383      1.2231058      0.66936554   
     27900  -4627.0112     -4663.0446      36.033382      4905.5818      287.09204      7972.1292      1.2158042      0.66936554   
     28000  -4627.2932     -4662.6483      35.355128      7520.8927      281.68813      8038.0559      1.2058324      0.66813996   
     28100  -4627.4557     -4663.1706      35.714965      2745.136       284.55509      8103.1306      1.1961486      0.66813996   
     28200  -4628.5073     -4662.6804      34.173075      2304.0977      272.27025      8148.8365      1.1894395      0.66813996   
     28300  -4628.9643     -4664.0763      35.112029      93.458155      279.75126      8164.3035      1.1871862      0.66813996   
     28400  -4628.3369     -4662.8953      34.558383      2323.1364      275.34015      8144.7413      1.1900376      0.66813996   
     28500  -4629.0572     -4662.727       33.669826      7403.0228      268.26067      8098.4284      1.1968431      0.66813996   
     28600  -4628.8448     -4664.0555      35.210753      3910.0936      280.53783      8036.8673      1.2060108      0.66813996   
     28700  -4629.5916     -4662.5373      32.945748      5558.0048      262.49166      7973.4567      1.2156018      0.66813996   
     28800  -4628.5322     -4663.5587      35.026479      5341.2622      279.06965      7923.621       1.2232474      0.66813996   
     28900  -4628.8965     -4664.0778      35.181306      5275.7731      280.30322      7900.4065      1.2268417      0.66813996   
     29000  -4627.5481     -4662.9003      35.352188      8520.4077      281.66471      7908.0867      1.2256502      0.70510913   
     29100  -4628.093      -4663.9341      35.841096      4680.7172      285.56003      7945.138       1.2199346      0.70510913   
     29200  -4626.9149     -4664.1255      37.210604      6808.5136      296.47143      7999.2378      1.211684       0.70510913   
     29300  -4628.8146     -4663.3318      34.517185      4939.2989      275.01191      8054.3758      1.2033891      0.70510913   
     29400  -4629.1818     -4662.2712      33.089443      4612.9971      263.63653      8092.4525      1.197727       0.70510913   
     29500  -4629.3032     -4662.1931      32.889909      4172.4523      262.04677      8105.7916      1.1957559      0.70510913   
     29600  -4630.8476     -4664.7402      33.892659      3814.2855      270.03606      8095.8939      1.1972178      0.70510913   
     29700  -4630.0804     -4663.5795      33.499054      3789.3039      266.90006      8064.6823      1.2018512      0.70510913   
     29800  -4630.8589     -4664.7665      33.907576      4426.0437      270.15491      8025.3112      1.2077474      0.70510913   
     29900  -4629.648      -4663.5173      33.869348      3560.0592      269.85034      7989.5948      1.2131464      0.70510913   
     30000  -4629.8442     -4665.2389      35.394637      3234.2669      282.00291      7965.2154      1.2168595      0.64145323   
     30100  -4629.6945     -4663.4574      33.762883      8535.0069      269.00209      7952.1079      1.2188653      0.64145323   
     30200  -4628.6829     -4663.8224      35.139439      9051.8104      279.96965      7957.7032      1.2180083      0.64145323   
     30300  -4630.1073     -4663.3358      33.228561      5702.4792      264.74494      7979.8743      1.2146242      0.64145323   
     30400  -4630.6786     -4664.5451      33.866535      6473.3483      269.82793      8009.7781      1.2100895      0.64145323   
     30500  -4632.8282     -4666.0451      33.216908      2774.1551      264.65209      8035.5761      1.2062045      0.64145323   
     30600  -4632.4893     -4664.7985      32.309202      3286.7938      257.42004      8049.265       1.2041532      0.64145323   
     30700  -4632.588      -4665.1726      32.584536      4548.1408      259.61374      8047.3524      1.2044394      0.64145323   
     30800  -4632.4381     -4663.4821      31.043948      2306.0917      247.33927      8030.2836      1.2069995      0.64145323   
     30900  -4631.5296     -4665.5056      33.976085      3153.2642      270.70076      8004.4497      1.210895       0.64145323   
     31000  -4630.9797     -4663.7705      32.790797      4911.2912      261.2571       7974.7796      1.2154002      0.70507377   
     31100  -4631.5246     -4665.0839      33.559329      7655.3612      267.3803       7951.3109      1.2189875      0.70507377   
     31200  -4630.4634     -4663.5195      33.056069      4780.0879      263.37063      7935.6362      1.2213953      0.70507377   
     31300  -4630.8735     -4664.3842      33.51071       6145.3754      266.99293      7937.5185      1.2211056      0.70507377   
     31400  -4631.3558     -4664.1134      32.757555      6402.2356      260.99225      7955.9253      1.2182805      0.70507377   
     31500  -4631.919      -4665.1837      33.264715      5453.2746      265.03299      7986.3857      1.2136339      0.70507377   
     31600  -4631.6169     -4665.2231      33.606176      2087.8674      267.75355      8021.9488      1.2082536      0.70507377   
     31700  -4630.1256     -4663.9599      33.834315      3350.2138      269.57121      8051.9905      1.2037456      0.70507377   
     31800  -4630.7197     -4663.4512      32.731477      3540.9351      260.78448      8072.907       1.2006268      0.70507377   
     31900  -4630.5831     -4664.6847      34.101586      5489.7709      271.70067      8076.9253      1.2000295      0.70507377   
     32000  -4630.1003     -4663.38        33.279734      7451.4889      265.15265      8059.0255      1.2026948      0.6596168    
     32100  -4629.9286     -4664.2046      34.275984      6792.3913      273.09016      8027.1098      1.2074767      0.6596168    
     32200  -4630.0697     -4663.7705      33.700765      5811.1048      268.50718      7991.5105      1.2128556      0.6596168    
     32300  -4630.4884     -4664.0796      33.591206      3003.1939      267.63427      7961.8957      1.2173669      0.6596168    
     32400  -4631.8472     -4665.6333      33.786115      7364.3821      269.18719      7946.2627      1.2197619      0.6596168    
     32500  -4630.0446     -4664.9015      34.856871      8540.2715      277.71832      7942.6988      1.2203092      0.6596168    
     32600  -4628.1528     -4663.3713      35.218455      4629.925       280.5992       7957.815       1.2179912      0.6596168    
     32700  -4628.5901     -4662.8738      34.283655      3499.767       273.15128      7991.6435      1.2128354      0.6596168    
     32800  -4628.3974     -4663.4507      35.053273      5820.2825      279.28313      8036.8498      1.2060134      0.6596168    
     32900  -4628.484      -4662.7933      34.309286      6152.9968      273.3555       8081.8989      1.199291       0.6596168    
     33000  -4628.0088     -4662.9786      34.969822      4202.5656      278.61825      8117.1147      1.1940879      0.61621029   
     33100  -4627.7222     -4662.027       34.30486       4850.9261      273.32023      8136.4473      1.1912507      0.61621029   
     33200  -4627.2395     -4661.683       34.443495      4301.3548      274.42479      8137.0696      1.1911596      0.61621029   
     33300  -4625.8922     -4661.9549      36.062768      3992.1455      287.32617      8120.2938      1.1936204      0.61621029   
     33400  -4624.8024     -4661.3285      36.526012      9093.736       291.01702      8089.0344      1.1982331      0.61621029   
     33500  -4625.4427     -4661.6595      36.216813      7080.77        288.55351      8052.3241      1.2036958      0.61621029   
     33600  -4625.8827     -4660.5163      34.633651      5017.963       275.93984      8015.3715      1.2092451      0.61621029   
     33700  -4626.0312     -4662.338       36.30676       6382.0091      289.27016      7990.9964      1.2129336      0.61621029   
     33800  -4626.3118     -4662.7656      36.453795      9198.5874      290.44164      7986.6284      1.213597       0.61621029   
     33900  -4626.9977     -4662.2379      35.240247      5809.369       280.77283      8001.1966      1.2113874      0.61621029   
     34000  -4627.1199     -4661.961       34.841033      4499.5703      277.59213      8027.0415      1.207487       0.64879153   
     34100  -4627.9737     -4664.0012      36.027492      4397.2333      287.04512      8055.8766      1.203165       0.64879153   
     34200  -4627.9855     -4662.1637      34.178198      5959.0066      272.31107      8077.8548      1.1998914      0.64879153   
     34300  -4627.6342     -4662.7191      35.084906      1721.4191      279.53517      8090.4743      1.1980198      0.64879153   
     34400  -4627.3586     -4661.6024      34.243801      6621.0414      272.83375      8089.3651      1.1981841      0.64879153   
     34500  -4627.1178     -4662.1722      35.054381      6423.043       279.29196      8076.8249      1.2000444      0.64879153   
     34600  -4626.3464     -4662.4836      36.137224      2874.6562      287.9194       8054.5925      1.2033568      0.64879153   
     34700  -4625.7618     -4660.7435      34.981641      4642.5099      278.71241      8028.7312      1.2072329      0.64879153   
     34800  -4626.6753     -4662.5426      35.867281      6824.3895      285.76865      8004.2067      1.2109318      0.64879153   
     34900  -4627.9726     -4662.5224      34.549794      5303.5192      275.27172      7988.8065      1.2132661      0.64879153   
     35000  -4628.7001     -4664.5393      35.839142      1542.0987      285.54446      7982.259       1.2142613      0.66256257   
     35100  -4628.8461     -4663.5865      34.740393      3906.7465      276.79029      7984.7936      1.2138759      0.66256257   
     35200  -4628.0093     -4663.3052      35.295907      3816.777       281.21629      7993.5394      1.2125478      0.66256257   
     35300  -4627.7526     -4661.2247      33.472043      6419.3481      266.68486      8008.9825      1.2102097      0.66256257   
     35400  -4627.9487     -4663.0889      35.140172      7894.9314      279.97549      8029.9867      1.2070441      0.66256257   
     35500  -4628.3569     -4663.7716      35.414677      2263.4114      282.16258      8051.8292      1.2037698      0.66256257   
     35600  -4629.4088     -4663.7531      34.344337      3397.7686      273.63476      8071.8088      1.2007901      0.66256257   
     35700  -4629.0947     -4662.4957      33.40098       2803.0295      266.11867      8084.2591      1.1989408      0.66256257   
     35800  -4629.3863     -4663.7141      34.327827      5955.0264      273.50322      8084.6499      1.1988829      0.66256257   
     35900  -4630.0345     -4664.5646      34.530038      6002.8521      275.11431      8072.499       1.2006875      0.66256257   
     36000  -4630.5736     -4665.4249      34.851288      4603.5355      277.67384      8052.0696      1.2037338      0.71334862   
     36100  -4629.7455     -4663.6702      33.924703      3721.1687      270.29138      8026.0095      1.2076423      0.71334862   
     36200  -4630.0674     -4663.622       33.554637      1715.9576      267.34291      7999.6273      1.211625       0.71334862   
     36300  -4629.8825     -4664.0173      34.134783      6157.7308      271.96516      7982.5996      1.2142095      0.71334862   
     36400  -4629.6376     -4663.6027      33.96512       6805.721       270.61339      7979.1263      1.2147381      0.71334862   
     36500  -4631.0942     -4664.8051      33.710901      4357.887       268.58793      7988.5958      1.2132981      0.71334862   
     36600  -4630.3112     -4663.5117      33.200451      5866.4578      264.52097      8008.5474      1.2102755      0.71334862   
     36700  -4629.6311     -4664.3871      34.756065      5523.2818      276.91516      8034.4429      1.2063747      0.71334862   
     36800  -4629.2134     -4663.725       34.511587      6851.3147      274.96731      8055.2047      1.2032653      0.71334862   
     36900  -4630.9898     -4664.8942      33.904484      3854.7591      270.13028      8069.0485      1.2012009      0.71334862   
     37000  -4631.3162     -4664.6431      33.326915      3162.8295      265.52856      8067.9231      1.2013685      0.62340133   
     37100  -4630.1666     -4664.0773      33.910662      2469.0444      270.17951      8051.8363      1.2037687      0.62340133   
     37200  -4629.1599     -4663.1158      33.955961      4521.2923      270.54041      8026.7918      1.2075246      0.62340133   
     37300  -4629.6002     -4663.7947      34.194468      8432.5226      272.44069      7998.9883      1.2117218      0.62340133   
     37400  -4630.0159     -4664.0354      34.019424      5269.8204      271.04606      7975.1042      1.2153507      0.62340133   
     37500  -4629.8699     -4663.4238      33.553847      4485.3626      267.33662      7959.5448      1.2177265      0.62340133   
     37600  -4629.8778     -4663.354       33.476195      6666.2164      266.71793      7957.4152      1.2180524      0.62340133   
     37700  -4630.6822     -4664.085       33.402853      2772.0432      266.13359      7968.2073      1.2164026      0.62340133   
     37800  -4630.3158     -4664.3504      34.034571      1574.338       271.16674      7988.3733      1.2133319      0.62340133   
     37900  -4628.7335     -4663.6534      34.919836      4240.9271      278.21999      8011.4192      1.2098416      0.62340133   
     38000  -4626.7239     -4662.0904      35.366449      7150.4839      281.77833      8036.0462      1.206134       0.67623306   
     38100  -4627.7543     -4662.5384      34.78411       6489.7457      277.13861      8063.7675      1.2019876      0.67623306   
     38200  -4627.9814     -4663.9816      36.000157      6872.3455      286.82732      8087.8928      1.1984022      0.67623306   
     38300  -4627.4686     -4663.6144      36.145706      2911.4721      287.98697      8096.5298      1.1971238      0.67623306   
     38400  -4625.9307     -4661.7598      35.829063      3414.4839      285.46415      8087.2945      1.1984908      0.67623306   
     38500  -4625.977      -4661.6747      35.697678      3431.2246      284.41736      8064.1275      1.2019339      0.67623306   
     38600  -4624.3559     -4659.9996      35.643744      5029.1583      283.98765      8035.5903      1.2062024      0.67623306   
     38700  -4624.6863     -4661.8907      37.204449      6013.1671      296.4224       8011.3442      1.2098529      0.67623306   
     38800  -4626.1486     -4661.8389      35.690349      7885.6347      284.35897      7996.5685      1.2120885      0.67623306   
     38900  -4626.0517     -4662.0854      36.033726      4449.179       287.09478      7992.7334      1.2126701      0.67623306   
     39000  -4627.6658     -4661.5107      33.844935      5851.4052      269.65583      8002.3441      1.2112137      0.63566044   
     39100  -4629.5988     -4663.7792      34.180394      4587.8544      272.32856      8022.7087      1.2081391      0.63566044   
     39200  -4628.9622     -4663.7451      34.782855      4548.6195      277.1286       8043.1389      1.2050704      0.63566044   
     39300  -4628.2651     -4662.3299      34.064829      3996.276       271.40781      8057.4407      1.2029314      0.63566044   
     39400  -4628.4635     -4663.3041      34.840624      4899.5523      277.58887      8068.6391      1.2012619      0.63566044   
     39500  -4629.4171     -4663.5366      34.119443      1093.0836      271.84294      8069.4884      1.2011354      0.63566044   
     39600  -4629.102      -4662.654       33.55202       1614.2182      267.32206      8057.719       1.2028898      0.63566044   
     39700  -4629.126      -4663.0689      33.942915      4148.9165      270.43647      8034.041       1.206435       0.63566044   
     39800  -4629.3056     -4663.842       34.536424      8800.9692      275.16519      8003.2034      1.2110836      0.63566044   
     39900  -4629.1445     -4663.6799      34.53537       7377.2646      275.1568       7975.8608      1.2152354      0.63566044   
     40000  -4628.4311     -4663.8686      35.437485      6714.3003      282.3443       7958.4244      1.2178979      0.65255495   
     40100  -4628.5239     -4662.5608      34.036859      8212.9726      271.18496      7956.6846      1.2181642      0.65255495   
     40200  -4627.5588     -4661.7421      34.18329       6151.3225      272.35164      7975.7612      1.2152506      0.65255495   
     40300  -4627.5578     -4662.557       34.999155      3635.167       278.85195      8011.8405      1.209778       0.65255495   
     40400  -4628.8506     -4663.861       35.010473      5989.5677      278.94213      8047.6905      1.2043888      0.65255495   
     40500  -4629.1181     -4663.5398      34.42171       7029.9555      274.25122      8074.9268      1.2003265      0.65255495   
     40600  -4629.6554     -4663.4234      33.767962      5382.5255      269.04255      8088.8827      1.1982555      0.65255495   
     40700  -4629.5496     -4662.4134      32.863724      2723.395       261.83814      8089.6195      1.1981464      0.65255495   
     40800  -4630.4733     -4663.7297      33.256387      6190.8877      264.96664      8077.2024      1.1999883      0.65255495   
     40900  -4630.4137     -4664.4681      34.054387      6190.2648      271.32462      8056.5572      1.2030633      0.65255495   
     41000  -4630.8795     -4663.292       32.41259       4530.7647      258.24378      8031.6555      1.2067933      0.66301725   
     41100  -4629.9173     -4663.0812      33.16393       2056.6203      264.23         8008.0527      1.2103502      0.66301725   
     41200  -4627.9695     -4663.0409      35.071389      5233.3322      279.42747      7990.8802      1.2129513      0.66301725   
     41300  -4628.2441     -4662.835       34.59087       6720.6763      275.59899      7984.8153      1.2138726      0.66301725   
     41400  -4628.2326     -4661.6382      33.405596      6164.9299      266.15544      7995.5225      1.212247       0.66301725   
     41500  -4629.5231     -4662.8661      33.343003      7381.8651      265.65674      8016.199       1.2091202      0.66301725   
     41600  -4629.546      -4664.2364      34.690381      3989.4812      276.39183      8038.2029      1.2058104      0.66301725   
     41700  -4628.5287     -4663.289       34.760298      3402.1187      276.94889      8055.4304      1.2032316      0.66301725   
     41800  -4629.5209     -4663.5674      34.046469      1189.9969      271.26153      8065.1266      1.201785       0.66301725   
     41900  -4629.2529     -4663.4191      34.166138      2653.1593      272.21498      8063.4785      1.2020307      0.66301725   
     42000  -4629.0947     -4662.8443      33.749567      3274.409       268.896        8053.4575      1.2035264      0.68598549   
     42100  -4628.9004     -4663.6279      34.727501      5973.0906      276.68758      8033.58        1.2065043      0.68598549   
     42200  -4629.475      -4664.1087      34.63375       6444.9491      275.94062      8010.3934      1.2099966      0.68598549   
     42300  -4629.076      -4663.4262      34.35017       7884.0312      273.68123      7991.2703      1.2128921      0.68598549   
     42400  -4627.9812     -4662.2848      34.303638      5211.4003      273.31049      7981.2569      1.2144138      0.68598549   
     42500  -4629.4542     -4662.4806      33.026472      5781.0307      263.13482      7981.3107      1.2144056      0.68598549   
     42600  -4630.6738     -4663.499       32.825227      4759.706       261.53142      7988.2083      1.213357       0.68598549   
     42700  -4629.6655     -4663.8489      34.183438      6017.6299      272.35282      8000.4145      1.2115058      0.68598549   
     42800  -4629.4203     -4663.0569      33.636557      3220.2946      267.9956       8014.8685      1.209321       0.68598549   
     42900  -4630.1244     -4662.9774      32.85302       5400.2742      261.75286      8029.2443      1.2071558      0.68598549   
     43000  -4630.6531     -4664.9974      34.344245      3402.9061      273.63403      8039.901       1.2055557      0.63193284   
     43100  -4629.5952     -4663.6223      34.027121      4141.1977      271.10738      8043.2858      1.2050484      0.63193284   
     43200  -4630.4752     -4665.0197      34.544538      4523.8481      275.22984      8040.5212      1.2054627      0.63193284   
     43300  -4630.9622     -4664.8042      33.841979      6126.2208      269.63228      8032.7729      1.2066255      0.63193284   
     43400  -4629.6895     -4665.1725      35.483055      4470.4197      282.70737      8022.4078      1.2081845      0.63193284   
     43500  -4630.5766     -4663.4802      32.903653      4908.1878      262.15627      8009.9912      1.2100573      0.63193284   
     43600  -4629.1997     -4664.2255      35.025796      9061.3503      279.06421      7998.5249      1.211792       0.63193284   
     43700  -4628.8338     -4663.6436      34.80984       7388.1855      277.34361      7991.5476      1.21285        0.63193284   
     43800  -4628.9579     -4664.1819      35.223981      5553.4981      280.64323      7991.6545      1.2128338      0.63193284   
     43900  -4628.9925     -4662.9295      33.937045      10631.711      270.38971      7998.6022      1.2117803      0.63193284   
     44000  -4629.2616     -4664.208       34.946393      5247.5002      278.43157      8011.2102      1.2098732      0.6362834    
     44100  -4628.3086     -4663.3313      35.022742      5067.4065      279.03988      8025.0353      1.2077889      0.6362834    
     44200  -4627.4518     -4663.4905      36.038689      3351.0038      287.13432      8036.4519      1.2060731      0.6362834    
     44300  -4627.1217     -4662.9563      35.83455       5364.7632      285.50787      8043.8848      1.2049586      0.6362834    
     44400  -4627.3527     -4663.0071      35.654328      6222.3477      284.07198      8048.8597      1.2042139      0.6362834    
     44500  -4629.0513     -4662.6925      33.641129      5695.428       268.03203      8047.3176      1.2044446      0.6362834    
     44600  -4628.1963     -4662.9886      34.792305      7853.3592      277.2039       8036.1737      1.2061149      0.6362834    
     44700  -4628.9496     -4663.633       34.683347      5179.2545      276.33579      8018.3142      1.2088013      0.6362834    
     44800  -4628.9381     -4663.8917      34.953564      7115.82        278.48871      7996.3891      1.2121156      0.6362834    
     44900  -4629.4262     -4662.9916      33.565411      4701.2959      267.42876      7976.4083      1.215152       0.6362834    
     45000  -4629.163      -4663.1324      33.969398      6347.4456      270.64748      7961.0122      1.217502       0.67241286   
     45100  -4628.8453     -4663.5911      34.745847      6694.5071      276.83375      7956.9334      1.2181261      0.67241286   
     45200  -4628.1685     -4663.1454      34.976907      3943.7376      278.67469      7966.3393      1.2166879      0.67241286   
     45300  -4628.9702     -4664.4026      35.432464      2464.769       282.30429      7986.1076      1.2136762      0.67241286   
     45400  -4630.3815     -4664.5467      34.16517       2928.0302      272.20727      8011.1508      1.2098822      0.67241286   
     45500  -4630.5802     -4664.345       33.764831      5029.9717      269.01761      8036.0934      1.2061269      0.67241286   
     45600  -4629.6324     -4663.9245      34.292117      2200.2996      273.2187       8054.9914      1.2032972      0.67241286   
     45700  -4629.006      -4663.0944      34.088354      3826.2098      271.59524      8059.9983      1.2025497      0.67241286   
     45800  -4629.4579     -4663.462       34.0041        6228.3231      270.92396      8052.1921      1.2037155      0.67241286   
     45900  -4629.3979     -4663.5752      34.177291      4016.1789      272.30384      8034.4229      1.2063777      0.67241286   
     46000  -4628.71       -4663.8135      35.103502      6677.6137      279.68332      8010.2997      1.2100107      0.64265171   
     46100  -4629.0596     -4663.0903      34.030718      4560.004       271.13604      7988.4128      1.2133259      0.64265171   
     46200  -4629.3084     -4662.6684      33.360007      1582.0735      265.79222      7978.2428      1.2148726      0.64265171   
     46300  -4628.8893     -4663.7753      34.886007      4183.5549      277.95046      7978.7856      1.2147899      0.64265171   
     46400  -4630.8481     -4664.6357      33.7876        8320.8928      269.19902      7987.674       1.2134382      0.64265171   
     46500  -4631.5032     -4665.0167      33.513417      2673.993       267.0145       7997.9631      1.2118771      0.64265171   
     46600  -4631.7154     -4665.3426      33.627253      2598.2423      267.92147      8006.9047      1.2105238      0.64265171   
     46700  -4630.8458     -4663.6687      32.822881      4270.7033      261.51272      8011.7417      1.2097929      0.64265171   
     46800  -4631.0192     -4663.8433      32.824051      7319.3678      261.52205      8015.4976      1.209226       0.64265171   
     46900  -4630.5809     -4663.1286      32.547715      7132.4777      259.32037      8013.6171      1.2095098      0.64265171   
     47000  -4629.0642     -4664.221       35.156819      5067.9784      280.10813      8009.0056      1.2102062      0.67549727   
     47100  -4629.1654     -4662.8655      33.700126      3552.7001      268.50208      8005.1789      1.2107847      0.67549727   
     47200  -4628.9533     -4662.6868      33.733512      5580.5272      268.76808      8003.0836      1.2111017      0.67549727   
     47300  -4628.468      -4662.9822      34.514249      5415.3798      274.98851      8001.7216      1.2113079      0.67549727   
     47400  -4628.1468     -4663.2891      35.142252      1795.9238      279.99206      8004.6582      1.2108635      0.67549727   
     47500  -4629.0378     -4662.1498      33.112049      5540.6616      263.81664      8011.8217      1.2097808      0.67549727   
     47600  -4629.4446     -4662.5539      33.10938       6345.4851      263.79538      8023.0028      1.2080949      0.67549727   
     47700  -4629.6674     -4663.4209      33.753505      5830.3886      268.92737      8034.4395      1.2063752      0.67549727   
     47800  -4628.723      -4664.0475      35.32443       922.5689       281.44355      8043.2591      1.2050524      0.67549727   
     47900  -4629.8351     -4663.9602      34.125135      1777.7746      271.8883       8048.1285      1.2043233      0.67549727   
     48000  -4629.4704     -4663.6866      34.21624       4045.1243      272.61417      8047.3944      1.2044331      0.61607097   
     48100  -4629.4046     -4663.8996      34.494928      6563.8574      274.83458      8037.1614      1.2059666      0.61607097   
     48200  -4630.4416     -4663.5537      33.112125      5414.1034      263.81725      8020.5055      1.208471       0.61607097   
     48300  -4630.1594     -4663.2641      33.104702      4081.6184      263.75811      7995.56        1.2122413      0.61607097   
     48400  -4630.0305     -4663.8387      33.808212      6791.3787      269.36325      7974.1571      1.215495       0.61607097   
     48500  -4629.2549     -4664.1452      34.890296      4405.9711      277.98463      7965.3641      1.2168368      0.61607097   
     48600  -4629.3906     -4664.7678      35.377212      7075.4508      281.86408      7967.881       1.2164525      0.61607097   
     48700  -4629.7572     -4664.0113      34.25413       5015.0483      272.91604      7980.2498      1.214567       0.61607097   
     48800  -4630.1306     -4663.8574      33.726816      4669.8365      268.71473      8001.2591      1.2113779      0.61607097   
     48900  -4629.4635     -4663.8245      34.361022      4500.304       273.7677       8025.4456      1.2077271      0.61607097   
     49000  -4629.1156     -4661.5864      32.470864      4897.3923      258.70807      8046.4974      1.2045674      0.65433291   
     49100  -4628.2626     -4662.5712      34.308629      6329.7341      273.35026      8060.3771      1.2024932      0.65433291   
     49200  -4627.6491     -4663.1844      35.53533       1103.7313      283.12387      8067.8925      1.201373       0.65433291   
     49300  -4627.2909     -4662.3841      35.093218      4375.1279      279.60139      8066.6399      1.2015596      0.65433291   
     49400  -4627.9303     -4662.0762      34.145874      6613.6545      272.05353      8054.976       1.2032995      0.65433291   
     49500  -4628.7367     -4662.3852      33.648507      5600.1025      268.09081      8037.4969      1.2059163      0.65433291   
     49600  -4629.5416     -4664.2705      34.728932      4183.1786      276.69898      8018.7165      1.2087406      0.65433291   
     49700  -4630.0879     -4664.5878      34.499911      3615.0212      274.87428      8004.1533      1.2109399      0.65433291   
     49800  -4632.0056     -4666.0515      34.045877      5909.3903      271.25681      7991.2767      1.2128911      0.65433291   
     49900  -4631.783      -4666.0832      34.30022       6710.1998      273.28326      7981.5154      1.2143745      0.65433291   
     50000  -4630.4073     -4663.6998      33.29245       6796.1431      265.25396      7976.4922      1.2151392      0.63699095   
     50100  -4630.3759     -4664.6698      34.293942      6653.6574      273.23325      7981.1281      1.2144334      0.63699095   
     50200  -4630.6014     -4664.8641      34.262671      3219.9308      272.98409      7993.1392      1.2126085      0.63699095   
     50300  -4631.4877     -4664.1909      32.703215      7455.7726      260.5593       8010.6236      1.2099618      0.63699095   
     50400  -4629.5253     -4663.6548      34.129533      7115.4216      271.92334      8029.4289      1.207128       0.63699095   
     50500  -4631.3772     -4665.7204      34.343228      2234.4139      273.62593      8046.6287      1.2045477      0.63699095   
     50600  -4631.0594     -4664.3765      33.317086      2909.3085      265.45025      8055.3097      1.2032496      0.63699095   
     50700  -4630.4461     -4664.5765      34.13042       5047.369       271.9304       8051.3156      1.2038465      0.63699095   
     50800  -4629.9866     -4664.8759      34.88925       8880.7284      277.9763       8036.4267      1.2060769      0.63699095   
     50900  -4630.4333     -4664.5653      34.132009      5706.1079      271.94307      8011.3798      1.2098476      0.63699095   
     51000  -4630.3269     -4663.1478      32.820926      811.64336      261.49715      7982.6823      1.2141969      0.64462575   
     51100  -4628.9117     -4663.6188      34.707083      7307.4955      276.5249       7958.0178      1.2179601      0.64462575   
     51200  -4629.7947     -4665.2188      35.42415       7420.7199      282.23805      7944.9241      1.2199674      0.64462575   
     51300  -4629.6343     -4662.9955      33.361174      4518.6863      265.80151      7948.2703      1.2194538      0.64462575   
     51400  -4629.2183     -4663.2236      34.005354      7408.8432      270.93395      7966.9588      1.2165933      0.64462575   
     51500  -4629.2708     -4663.1343      33.863472      9719.7858      269.80352      7995.9262      1.2121858      0.64462575   
     51600  -4628.9828     -4663.3928      34.410005      2998.5824      274.15796      8027.0861      1.2074803      0.64462575   
     51700  -4627.8638     -4661.8005      33.936651      5079.0261      270.38657      8053.3957      1.2035356      0.64462575   
     51800  -4628.0874     -4663.8925      35.805126      6245.1477      285.27344      8072.8554      1.2006345      0.64462575   
     51900  -4628.828      -4662.3996      33.571617      7178.7983      267.4782       8078.7685      1.1997557      0.64462575   
     52000  -4629.7092     -4663.4859      33.776693      6387.3249      269.11212      8071.4756      1.2008397      0.61726429   
     52100  -4627.3744     -4661.8083      34.433902      6182.1109      274.34836      8055.5166      1.2032187      0.61726429   
     52200  -4626.9681     -4664.1729      37.20483       3542.352       296.42543      8037.4027      1.2059304      0.61726429   
     52300  -4626.984      -4663.2536      36.269591      7270.957       288.97401      8017.4571      1.2089305      0.61726429   
     52400  -4626.6805     -4661.8517      35.171219      10563.727      280.22286      8003.2837      1.2110714      0.61726429   
     52500  -4627.0471     -4662.6735      35.626376      10734.553      283.84927      8001.6053      1.2113255      0.61726429   
     52600  -4627.0311     -4663.0008      35.969748      6703.1683      286.58505      8012.1474      1.2097317      0.61726429   
     52700  -4627.2853     -4660.9168      33.631458      5505.1684      267.95497      8029.3866      1.2071344      0.61726429   
     52800  -4626.7915     -4662.218       35.426504      5956.9884      282.25681      8052.3893      1.203686       0.61726429   
     52900  -4626.9022     -4661.2955      34.393226      1423.6784      274.02428      8075.3757      1.2002597      0.61726429   
     53000  -4627.2369     -4661.247       34.010053      2177.3989      270.97139      8085.7422      1.1987209      0.62864465   
     53100  -4626.6808     -4661.7181      35.037281      3391.1224      279.15572      8082.4109      1.199215       0.62864465   
     53200  -4626.8459     -4662.0478      35.201918      580.2246       280.46744      8071.2467      1.2008738      0.62864465   
     53300  -4626.776      -4662.8252      36.049248      4829.8777      287.21845      8053.6005      1.203505       0.62864465   
     53400  -4627.2947     -4662.6689      35.374223      1214.0306      281.84027      8030.453       1.2069741      0.62864465   
     53500  -4627.1832     -4663.2103      36.027072      4928.4459      287.04177      8002.8435      1.2111381      0.62864465   
     53600  -4628.1737     -4663.4003      35.226577      8733.616       280.66391      7976.799       1.2150925      0.62864465   
     53700  -4627.5581     -4662.7079      35.149821      7426.0183      280.05236      7958.9497      1.2178175      0.62864465   
     53800  -4627.7599     -4662.4692      34.709317      7224.5987      276.5427       7954.3671      1.2185191      0.62864465   
     53900  -4627.3696     -4662.1536      34.783994      4136.6503      277.13768      7964.9732      1.2168965      0.62864465   
     54000  -4628.3304     -4661.5459      33.215479      5608.1143      264.64071      7988.7855      1.2132693      0.65472333   
     54100  -4628.7225     -4663.7807      35.058192      1892.6382      279.32232      8020.7095      1.2084403      0.65472333   
     54200  -4628.588      -4663.0139      34.425867      5856.6186      274.28434      8051.0075      1.2038926      0.65472333   
     54300  -4629.3        -4664.3796      35.079671      4329.0774      279.49345      8070.5727      1.200974       0.65472333   
     54400  -4629.4378     -4662.923       33.485243      4922.8253      266.79003      8070.734       1.20095        0.65472333   
     54500  -4629.1552     -4663.0648      33.909631      5502.5909      270.17129      8053.9853      1.2034475      0.65472333   
     54600  -4628.3404     -4662.3154      33.974925      4722.479       270.69151      8027.6239      1.2073994      0.65472333   
     54700  -4629.732      -4664.6985      34.966453      8160.3061      278.5914       8003.5044      1.2110381      0.65472333   
     54800  -4629.631      -4663.5426      33.911572      5932.5397      270.18676      7979.3502      1.214704       0.65472333   
     54900  -4630.588      -4664.3764      33.788394      7102.4733      269.20535      7963.2132      1.2171655      0.65472333   
     55000  -4629.7015     -4663.6569      33.955414      7053.8526      270.53606      7958.1469      1.2179404      0.78594657   
     55100  -4630.0806     -4663.2249      33.144304      6592.5848      264.07363      7970.0144      1.2161268      0.78594657   
     55200  -4630.1052     -4663.7795      33.674309      5517.3139      268.29638      7995.9976      1.212175       0.78594657   
     55300  -4630.1148     -4662.7443      32.629486      4476.4475      259.97188      8024.3174      1.2078969      0.78594657   
     55400  -4629.9534     -4662.9464      32.992983      4674.3237      262.868        8053.2856      1.203552       0.78594657   
     55500  -4629.0095     -4663.1938      34.184368      3669.6092      272.36023      8072.9419      1.2006216      0.78594657   
     55600  -4627.3697     -4661.8477      34.477995      5154.0019      274.69966      8079.304       1.1996762      0.78594657   
     55700  -4627.5864     -4661.857       34.270622      5719.8159      273.04745      8071.7932      1.2007925      0.78594657   
     55800  -4628.2193     -4663.0082      34.788884      5938.3497      277.17664      8053.6836      1.2034926      0.78594657   
     55900  -4628.1954     -4663.9293      35.733886      3527.3414      284.70584      8030.0842      1.2070295      0.78594657   
     56000  -4627.4748     -4661.525       34.050152      3441.1649      271.29087      8005.7763      1.2106944      0.67400013   
     56100  -4628.4817     -4662.6975      34.215788      4636.2775      272.61056      7984.5497      1.213913       0.67400013   
     56200  -4628.3209     -4664.8581      36.537178      10082.018      291.10598      7971.2839      1.2159332      0.67400013   
     56300  -4628.1819     -4662.5617      34.379844      5371.9707      273.91766      7966.5534      1.2166552      0.67400013   
     56400  -4627.6008     -4661.5186      33.917802      4586.7323      270.23639      7977.8135      1.214938       0.67400013   
     56500  -4627.2301     -4663.2534      36.023306      4939.212       287.01177      8003.8676      1.2109831      0.67400013   
     56600  -4627.0075     -4659.9414      32.933886      9112.5241      262.39715      8035.5922      1.2062021      0.67400013   
     56700  -4626.737      -4661.6243      34.887323      5972.4842      277.96095      8070.089       1.201046       0.67400013   
     56800  -4627.0376     -4662.4866      35.449004      4136.9731      282.43608      8096.1882      1.1971743      0.67400013   
     56900  -4627.3512     -4661.4772      34.126075      4681.9536      271.89578      8105.3961      1.1958143      0.67400013   
[...]
   2186200  -4629.3133     -4664.0995      34.78628       3060.0873      277.15589      8086.2413      1.1986469      0.70634192   
   2186300  -4629.3395     -4663.4663      34.126862      2460.9897      271.90206      8042.2935      1.2051971      0.70634192   
   2186400  -4630.7341     -4665.6243      34.890247      6574.607       277.98424      7988           1.2133886      0.70634192   
   2186500  -4630.028      -4663.1976      33.169526      8385.2334      264.27459      7936.5039      1.2212617      0.70634192   
   2186600  -4629.8902     -4664.876       34.985769      8007.1872      278.7453       7905.2942      1.2260832      0.70634192   
   2186700  -4629.4565     -4665.4457      35.989254      8043.0689      286.74046      7899.7198      1.2269484      0.70634192   
   2186800  -4629.3101     -4664.4568      35.146728      3013.7071      280.02772      7920.2798      1.2237634      0.70634192   
   2186900  -4629.413      -4663.0418      33.628744      2151.018       267.93335      7961.6394      1.2174061      0.70634192   
   2187000  -4629.3994     -4663.5091      34.109656      3385.34        271.76497      8011.7537      1.2097911      0.67323777   
   2187100  -4630.909      -4664.4671      33.558082      3464.1209      267.37036      8062.1022      1.2022359      0.67323777   
   2187200  -4629.5339     -4663.6612      34.127229      2276.6231      271.90498      8097.8385      1.1969303      0.67323777   
   2187300  -4630.8304     -4663.4041      32.573672      2951.9668      259.52718      8110.1801      1.1951089      0.67323777   
   2187400  -4630.1358     -4663.3208      33.184984      2786.8318      264.39775      8094.5996      1.1974092      0.67323777   
   2187500  -4628.6036     -4663.5002      34.896649      2691.7763      278.03525      8056.8172      1.2030245      0.67323777   
   2187600  -4628.362      -4662.4006      34.038588      7386.6475      271.19874      8012.0189      1.2097511      0.67323777   
   2187700  -4627.1471     -4662.6949      35.54777       6976.1592      283.22298      7977.4609      1.2149917      0.67323777   
   2187800  -4626.34       -4661.6927      35.352705      9430.3239      281.66883      7962.3389      1.2172992      0.67323777   
   2187900  -4626.5504     -4662.2802      35.729801      6444.4953      284.67329      7970.2511      1.2160907      0.67323777   
   2188000  -4626.2294     -4661.1971      34.967723      4025.7931      278.60152      7993.0163      1.2126271      0.7238109    
   2188100  -4628.2925     -4663.1493      34.856834      4102.2628      277.71803      8027.0389      1.2074874      0.7238109    
   2188200  -4627.0693     -4662.364       35.29473       7181.7471      281.20692      8060.9044      1.2024145      0.7238109    
   2188300  -4628.2585     -4662.8134      34.554914      4575.7971      275.31251      8091.7044      1.1978377      0.7238109    
   2188400  -4628.0519     -4663.3698      35.3179        343.35884      281.39152      8110.7256      1.1950285      0.7238109    
   2188500  -4630.1059     -4661.7821      31.676205      5417.989       252.37671      8111.2434      1.1949522      0.7238109    
   2188600  -4628.2242     -4663.7795      35.5553        4047.8217      283.28298      8090.794       1.1979725      0.7238109    
   2188700  -4627.7429     -4662.8204      35.07742       4342.6186      279.47552      8055.0382      1.2032902      0.7238109    
   2188800  -4626.9979     -4662.476       35.478083      4629.2169      282.66776      8013.4961      1.2095281      0.7238109    
   2188900  -4627.1283     -4662.2937      35.165434      5161.7704      280.17677      7981.5701      1.2143661      0.7238109    
   2189000  -4626.6569     -4661.6895      35.032545      7065.0064      279.11799      7966.5378      1.2166576      0.71176348   
   2189100  -4627.3725     -4662.0801      34.707671      7493.1711      276.52958      7967.7897      1.2164664      0.71176348   
   2189200  -4628.5314     -4662.5203      33.988819      8971.642       270.80221      7981.9704      1.2143052      0.71176348   
   2189300  -4627.6081     -4663.351       35.742871      5494.7333      284.77743      8005.3069      1.2107654      0.71176348   
   2189400  -4627.755      -4662.5981      34.843102      3915.9688      277.60862      8033.87        1.2064607      0.71176348   
   2189500  -4627.5766     -4661.2799      33.70328       1891.8163      268.52721      8063.5212      1.2020243      0.71176348   
   2189600  -4627.2615     -4661.8067      34.545104      1487.4163      275.23435      8087.6041      1.198445       0.71176348   
   2189700  -4629.1901     -4663.1697      33.979533      2260.8326      270.72822      8096.6993      1.1970987      0.71176348   
   2189800  -4629.8251     -4662.8502      33.025169      3360.006       263.12443      8082.1795      1.1992493      0.71176348   
   2189900  -4628.9224     -4663.5314      34.608975      5610.4832      275.74323      8047.9127      1.2043556      0.71176348   
   2190000  -4629.2507     -4662.8467      33.595967      3484.3177      267.6722       8000.6279      1.2114735      0.65118726   
   2190100  -4628.8386     -4663.4904      34.6518        1390.4857      276.08444      7954.5776      1.2184869      0.65118726   
   2190200  -4629.5361     -4665.3088      35.772673      4773.8667      285.01487      7919.4472      1.223892       0.65118726   
   2190300  -4628.4301     -4663.1218      34.691703      8844.0867      276.40236      7903.2101      1.2264065      0.65118726   
   2190400  -4628.122      -4662.731       34.609045      4671.9136      275.74379      7913.101       1.2248736      0.65118726   
   2190500  -4627.7711     -4662.1808      34.409689      4102.8142      274.15544      7947.5269      1.2195679      0.65118726   
   2190600  -4627.789      -4662.9477      35.158725      7209.567       280.12331      8000.2108      1.2115366      0.65118726   
   2190700  -4626.81       -4660.693       33.883014      5245.6544      269.95922      8058.4493      1.2027808      0.65118726   
   2190800  -4627.1294     -4661.845       34.715553      1450.8778      276.59239      8112.2382      1.1948057      0.65118726   
   2190900  -4627.3498     -4663.047       35.697164      3470.6974      284.41326      8142.8487      1.1903142      0.65118726   
   2191000  -4626.209      -4661.8115      35.602418      3115.5369      283.65839      8144.2404      1.1901108      0.61129171   
   2191100  -4626.5733     -4661.1549      34.581558      4085.1788      275.5248       8115.6385      1.1943051      0.61129171   
   2191200  -4625.1498     -4660.8551      35.705312      1861.4279      284.47818      8061.1536      1.2023773      0.61129171   
   2191300  -4624.2102     -4660.4848      36.274628      5034.0605      289.01414      8000.779       1.2114506      0.61129171   
   2191400  -4623.8258     -4660.5199      36.694144      6366.8084      292.35659      7952.8915      1.2187452      0.61129171   
   2191500  -4624.356      -4661.0123      36.656286      3888.0926      292.05496      7927.4691      1.2226536      0.61129171   
   2191600  -4624.7118     -4661.4185      36.706633      5508.992       292.4561       7928.0597      1.2225625      0.61129171   
   2191700  -4625.386      -4659.9833      34.59732       5373.1049      275.65037      7950.9684      1.21904        0.61129171   
   2191800  -4625.6759     -4661.1214      35.445563      9392.5338      282.40866      7989.9417      1.2130938      0.61129171   
   2191900  -4626.3117     -4661.9656      35.653937      6039.8536      284.06886      8039.0545      1.2056826      0.61129171   
   2192000  -4625.9438     -4661.3062      35.362398      6054.0357      281.74605      8086.8261      1.1985603      0.67350907   
   2192100  -4626.7776     -4662.2156      35.437943      5775.3153      282.34795      8124.1143      1.1930591      0.67350907   
   2192200  -4627.9155     -4662.7086      34.793058      5467.6541      277.2099       8137.8967      1.1910385      0.67350907   
   2192300  -4628.5137     -4664.2699      35.75621       1646.9283      284.8837       8122.4904      1.1932976      0.67350907   
   2192400  -4628.0416     -4661.1908      33.149183      8958.858       264.1125       8079.6198      1.1996293      0.67350907   
   2192500  -4627.4425     -4662.5274      35.084974      6717.4465      279.53571      8024.0375      1.2079391      0.67350907   
   2192600  -4626.2888     -4661.1564      34.867632      5648.8639      277.80406      7973.483       1.2155978      0.67350907   
   2192700  -4625.2077     -4662.4615      37.253727      10472.092      296.81501      7947.4095      1.2195859      0.67350907   
   2192800  -4624.2989     -4660.353       36.054163      9805.0052      287.25762      7950.6993      1.2190812      0.67350907   
   2192900  -4624.9577     -4661.524       36.566263      9222.6815      291.33771      7979.467       1.2146862      0.67350907   
   2193000  -4626.3013     -4661.4686      35.167298      3181.4271      280.19161      8025.3414      1.2077428      0.63852514   
   2193100  -4627.2763     -4662.5464      35.270066      1545.0894      281.01041      8073.245       1.2005765      0.63852514   
   2193200  -4628.4456     -4662.5123      34.066701      2327.847       271.42273      8110.235       1.1951008      0.63852514   
   2193300  -4628.8876     -4663.3511      34.463511      2852.174       274.58427      8123.5476      1.1931423      0.63852514   
   2193400  -4628.5889     -4662.2567      33.667746     -453.78325      268.24409      8112.294       1.1947975      0.63852514   
   2193500  -4627.9738     -4663.0442      35.070404      3055.7832      279.41962      8084.1494      1.1989571      0.63852514   
   2193600  -4627.783      -4663.4514      35.668446      5090.9509      284.18446      8043.8253      1.2049675      0.63852514   
   2193700  -4626.5372     -4662.6289      36.091706      6429.3846      287.55674      8001.7727      1.2113001      0.63852514   
   2193800  -4624.7712     -4661.0508      36.279674      6581.2153      289.05435      7971.4191      1.2159125      0.63852514   
   2193900  -4626.1031     -4662.3888      36.285774      6108.3097      289.10295      7959.5828      1.2177207      0.63852514   
   2194000  -4627.7715     -4663.4346      35.663166      7677.7521      284.14239      7968.7688      1.2163169      0.73865502   
   2194100  -4626.8499     -4662.3814      35.531506      8299.5776      283.0934       7987.4612      1.2134705      0.73865502   
   2194200  -4626.461      -4663.2147      36.753739      5567.1681      292.83141      8013.3688      1.2095473      0.73865502   
   2194300  -4626.0496     -4661.4366      35.386998      1034.3213      281.94205      8040.2466      1.2055039      0.73865502   
   2194400  -4627.1497     -4661.8559      34.706155      3451.0258      276.5175       8060.3163      1.2025022      0.73865502   
   2194500  -4628.6176     -4662.4853      33.86771       3437.0598      269.83729      8070.9395      1.2009195      0.73865502   
   2194600  -4627.627      -4662.8837      35.256723      5974.1904      280.9041       8067.29        1.2014627      0.73865502   
   2194700  -4627.1268     -4663.9832      36.856439      4244.4767      293.64966      8053.5539      1.203512       0.73865502   
   2194800  -4628.2516     -4662.8211      34.569493      5963.6209      275.42867      8032.0853      1.2067288      0.73865502   
   2194900  -4627.0884     -4662.0967      35.008283      9877.4782      278.92468      8011.0579      1.2098962      0.73865502   
   2195000  -4626.51       -4661.0361      34.526159      6693.4098      275.08341      7995.3938      1.2122665      0.71596289   
   2195100  -4626.3213     -4661.9358      35.614557      4636.5891      283.7551       7987.606       1.2134485      0.71596289   
   2195200  -4627.2073     -4662.6983      35.490976      5649.6457      282.77049      7993.5109      1.2125521      0.71596289   
   2195300  -4627.8165     -4663.1271      35.310616      4472.4365      281.33348      8010.963       1.2099105      0.71596289   
   2195400  -4629.4388     -4663.9059      34.467147      5395.4266      274.61324      8037.4178      1.2059282      0.71596289   
   2195500  -4627.3375     -4663.5256      36.188119      5392.3751      288.32489      8064.9256      1.201815       0.71596289   
   2195600  -4627.7169     -4662.3624      34.645571      5175.6306      276.03481      8086.5982      1.198594       0.71596289   
   2195700  -4627.1004     -4662.6547      35.554283      3551.4224      283.27487      8095.406       1.19729        0.71596289   
   2195800  -4627.3038     -4663.4657      36.161893      6302.5462      288.11594      8089.1637      1.1982139      0.71596289   
   2195900  -4627.3097     -4662.5231      35.21336       5086.889       280.55861      8067.7808      1.2013897      0.71596289   
   2196000  -4627.2928     -4662.6108      35.318011      6024.5715      281.3924       8033.8089      1.2064699      0.67132586   
   2196100  -4627.4119     -4662.9058      35.493836      8352.906       282.79327      7996.7021      1.2120682      0.67132586   
   2196200  -4627.7325     -4661.571       33.838442      7746.1991      269.6041       7963.0406      1.2171919      0.67132586   
   2196300  -4627.7873     -4662.7912      35.003961      8152.3675      278.89024      7939.3153      1.2208293      0.67132586   
   2196400  -4627.8246     -4663.7299      35.905291      7581.7537      286.07149      7933.2045      1.2217696      0.67132586   
   2196500  -4630.6535     -4665.2889      34.635416      4214.3368      275.9539       7947.7275      1.2195371      0.67132586   
   2196600  -4629.362      -4661.7955      32.43353       4944.2404      258.41062      7977.6944      1.2149561      0.67132586   
   2196700  -4629.0766     -4662.8095      33.73285       4754.4768      268.76281      8016.5753      1.2090635      0.67132586   
   2196800  -4630.7857     -4664.7047      33.918971      1572.1946      270.24571      8051.1899      1.2038653      0.67132586   
   2196900  -4630.7452     -4663.0627      32.317507      566.86023      257.48622      8072.686       1.2006597      0.67132586   
   2197000  -4628.9909     -4663.8964      34.905532      4060.8314      278.10602      8079.5172      1.1996445      0.63604745   
   2197100  -4628.931      -4663.7144      34.7834        7124.8287      277.13295      8070.7511      1.2009475      0.63604745   
   2197200  -4628.8075     -4663.1986      34.391064      5777.2729      274.00705      8049.1801      1.2041659      0.63604745   
   2197300  -4628.6995     -4661.8537      33.154191      4230.8453      264.1524       8018.1831      1.208821       0.63604745   
   2197400  -4628.6922     -4663.6586      34.96643       6030.2251      278.59122      7986.6185      1.2135985      0.63604745   
   2197500  -4629.4472     -4664.0167      34.569534      7749.1423      275.429        7960.5926      1.2175662      0.63604745   
   2197600  -4629.5317     -4664.2491      34.717444      8163.0262      276.60745      7949.991       1.2191899      0.63604745   
   2197700  -4630.0461     -4664.1985      34.152342      5804.7103      272.10507      7956.5879      1.218179       0.63604745   
   2197800  -4630.3624     -4662.9909      32.628472      6185.6088      259.9638       7975.7023      1.2152596      0.63604745   
   2197900  -4629.9947     -4664.6594      34.664675      4841.5886      276.18702      8001.9634      1.2112713      0.63604745   
   2198000  -4628.9324     -4663.8693      34.936909      4392.3865      278.35602      8027.0807      1.2074811      0.64111326   
   2198100  -4628.3044     -4662.5974      34.293023      5048.8366      273.22592      8045.2041      1.204761       0.64111326   
   2198200  -4628.9148     -4662.5614      33.646619     -101.71803      268.07577      8058.3799      1.2027912      0.64111326   
   2198300  -4627.5565     -4664.0631      36.50656       4964.1186      290.86204      8064.842       1.2018274      0.64111326   
   2198400  -4628.1805     -4663.1993      35.018792      3426.9659      279.00841      8067.3283      1.201457       0.64111326   
   2198500  -4629.4192     -4663.9927      34.573436      3252.1094      275.46009      8060.2103      1.2025181      0.64111326   
   2198600  -4628.3585     -4662.1967      33.838251      4830.195       269.60257      8042.5305      1.2051615      0.64111326   
   2198700  -4629.3122     -4663.7269      34.414693      5517.4793      274.19531      8021.035       1.2083912      0.64111326   
   2198800  -4630.5172     -4665.7758      35.258572      6399.3275      280.91883      8000.3782      1.2115113      0.64111326   
   2198900  -4630.5983     -4664.3644      33.766183      4148.2315      269.02838      7982.5277      1.2142205      0.64111326   
   2199000  -4631.0188     -4664.9237      33.90482       1922.2409      270.13296      7973.0334      1.2156663      0.62927375   
   2199100  -4630.2844     -4663.7465      33.462072      7546.8138      266.60541      7974.8321      1.2153922      0.62927375   
   2199200  -4629.8418     -4663.7366      33.8948        5700.1462      270.05313      7988.1371      1.2133678      0.62927375   
   2199300  -4630.9038     -4664.8279      33.924069      7364.0503      270.28632      8007.9871      1.2103601      0.62927375   
   2199400  -4630.0107     -4663.4741      33.463335      4894.1667      266.61547      8022.8948      1.2081111      0.62927375   
   2199500  -4629.0168     -4662.5574      33.54065       2909.6251      267.23148      8037.5386      1.20591        0.62927375   
   2199600  -4628.8147     -4661.9296      33.114879      2041.422       263.83919      8051.4006      1.2038338      0.62927375   
   2199700  -4629.0214     -4663.6718      34.650385      3901.3354      276.07317      8061.5453      1.2023189      0.62927375   
   2199800  -4628.1658     -4662.613       34.44718       6356.6764      274.45415      8063.3138      1.2020552      0.62927375   
   2199900  -4628.1103     -4662.4317      34.321486      5548.0318      273.4527       8055.7258      1.2031875      0.62927375   
   2200000  -4628.1427     -4662.7802      34.637537      4455.4584      275.9708       8038.4819      1.2057685      0.6193744    
   2200100  -4628.6401     -4662.0761      33.435993      5194.3867      266.39763      8020.6507      1.2084491      0.6193744    
   2200200  -4629.3881     -4663.2218      33.833721      3358.0541      269.56649      8006.2747      1.210619       0.6193744    
   2200211  -4628.8869     -4663.4716      34.584679      6672.884       275.54966      8004.7176      1.2108545      0.6193744    
Loop time of 7023.14 on 1 procs for 2000000 steps with 972 atoms

Performance: 12.302 ns/day, 1.951 hours/ns, 284.773 timesteps/s, 276.799 katom-step/s
99.8% CPU use with 1 MPI tasks x 1 OpenMP threads

MPI task timing breakdown:
Section |  min time  |  avg time  |  max time  |%varavg| %total
---------------------------------------------------------------
Pair    | 4947.6     | 4947.6     | 4947.6     |   0.0 | 70.45
Neigh   | 78.395     | 78.395     | 78.395     |   0.0 |  1.12
Comm    | 94.958     | 94.958     | 94.958     |   0.0 |  1.35
Output  | 4.6428     | 4.6428     | 4.6428     |   0.0 |  0.07
Modify  | 1850.3     | 1850.3     | 1850.3     |   0.0 | 26.35
Other   |            | 47.27      |            |       |  0.67

Nlocal:            972 ave         972 max         972 min
Histogram: 1 0 0 0 0 0 0 0 0 0
Nghost:           3870 ave        3870 max        3870 min
Histogram: 1 0 0 0 0 0 0 0 0 0
Neighs:              0 ave           0 max           0 min
Histogram: 1 0 0 0 0 0 0 0 0 0
FullNghs:       134954 ave      134954 max      134954 min
Histogram: 1 0 0 0 0 0 0 0 0 0

Total # of neighbors = 134954
Ave neighs/atom = 138.84156
Neighbor list builds = 198599
Dangerous builds = 191595
Total wall time: 2:08:43
