LAMMPS (27 Jun 2024)
KOKKOS mode with Kokkos version 4.3.1 is enabled (src/KOKKOS/kokkos.cpp:72)
  will use up to 1 GPU(s) per node
WARNING: When using a single thread, the Kokkos Serial backend (i.e. Makefile.kokkos_mpi_only) gives better performance than the OpenMP backend (src/KOKKOS/kokkos.cpp:202)
  using 1 OpenMP thread(s) per MPI task
Reading data file ...
  orthogonal box = (0 0 0) to (20.13213 20.132272 35.107669)
  1 by 1 by 1 MPI processor grid
  reading atoms ...
  2160 atoms
  read_data CPU = 0.010 seconds
ACE/AL version: 2023.11.25
Loading /pc2/users/a/acepdw01/work/phase_diagram/pot_dir/interim_potential_ladder_step_1.yaml
Total number of basis functions
	H: 23 (r=1) 664 (r>1)
	O: 23 (r=1) 664 (r>1)
Mapping LAMMPS atom type #1(H) -> ACE species type #0
Mapping LAMMPS atom type #2(O) -> ACE species type #1
Loading ASI /pc2/users/a/acepdw01/work/phase_diagram/pot_dir/interim_potential_ladder_step_1.asi
LINEAR ASI is loaded

CITE-CITE-CITE-CITE-CITE-CITE-CITE-CITE-CITE-CITE-CITE-CITE-CITE

Your simulation uses code contributions which should be cited:
- Type Label Framework: https://doi.org/10.1021/acs.jpcb.3c08419
The log file lists these citations in BibTeX format.

CITE-CITE-CITE-CITE-CITE-CITE-CITE-CITE-CITE-CITE-CITE-CITE-CITE

Switching to 'neigh_modify every 1 delay 0 check yes' setting during minimization
Neighbor list info ...
  update: every = 1 steps, delay = 0 steps, check = yes
  max neighbors/atom: 2000, page size: 100000
  master list distance cutoff = 6.5
  ghost atom cutoff = 6.5
  binsize = 6.5, bins = 4 4 6
  1 neighbor lists, perpetual/occasional/extra = 1 0 0
  (1) pair pace/extrapolation/kk, perpetual
      attributes: full, newton on, kokkos_device
      pair build: full/bin/kk/device
      stencil: full/bin/3d
      bin: kk/device
Setting up cg/kk style minimization ...
  Unit style    : metal
  Current step  : 0
WARNING: Fix with atom-based arrays not compatible with sending data in Kokkos communication, switching to classic exchange/border communication (src/KOKKOS/comm_kokkos.cpp:754)
WARNING: Fix with atom-based arrays not compatible with Kokkos sorting on device, switching to classic host sorting (src/KOKKOS/atom_kokkos.cpp:216)
Per MPI rank memory allocation (min/avg/max) = 1808 | 1808 | 1808 Mbytes
   Step         TotEng         PotEng         KinEng         Press           Temp          Volume        Density     c_max_pace_gamma
         0  -10394.812     -10394.812      0              10356.492      0              14229.332      1.513704       0.94301683   
       100  -10405.399     -10405.399      0              6153.7788      0              14229.332      1.513704       0.94301683   
       200  -10407.585     -10407.585      0              6517.8061      0              14229.332      1.513704       0.94301683   
       300  -10408.546     -10408.546      0              6308.0665      0              14229.332      1.513704       0.94301683   
       400  -10408.808     -10408.808      0              6401.0168      0              14229.332      1.513704       0.94301683   
       500  -10408.847     -10408.847      0              6349.7798      0              14229.332      1.513704       0.94301683   
       600  -10408.847     -10408.847      0              6348.2079      0              14229.332      1.513704       0.94301683   
       700  -10408.848     -10408.848      0              6350.9083      0              14229.332      1.513704       0.94301683   
       800  -10408.849     -10408.849      0              6350.2091      0              14229.332      1.513704       0.94301683   
       900  -10408.849     -10408.849      0              6351.0275      0              14229.332      1.513704       0.94301683   
       930  -10408.849     -10408.849      0              6350.906       0              14229.332      1.513704       0.94301683   
Loop time of 9.03677 on 1 procs for 930 steps with 2160 atoms

99.7% CPU use with 1 MPI tasks x 1 OpenMP threads

Minimization stats:
  Stopping criterion = force tolerance
  Energy initial, next-to-last, final = 
     -10394.8116753497  -10408.8486803053  -10408.8486803148
  Force two-norm initial, final = 17.431636 0.0004728612
  Force max component initial, final = 3.1552255 0.00015272705
  Final line search alpha, max atom move = 1 0.00015272705
  Iterations, force evaluations = 930 1856

MPI task timing breakdown:
Section |  min time  |  avg time  |  max time  |%varavg| %total
---------------------------------------------------------------
Pair    | 8.3282     | 8.3282     | 8.3282     |   0.0 | 92.16
Neigh   | 0.022594   | 0.022594   | 0.022594   |   0.0 |  0.25
Comm    | 0.05771    | 0.05771    | 0.05771    |   0.0 |  0.64
Output  | 0.0012716  | 0.0012716  | 0.0012716  |   0.0 |  0.01
Modify  | 0.38531    | 0.38531    | 0.38531    |   0.0 |  4.26
Other   |            | 0.2417     |            |       |  2.67

Nlocal:           2160 ave        2160 max        2160 min
Histogram: 1 0 0 0 0 0 0 0 0 0
Nghost:           5971 ave        5971 max        5971 min
Histogram: 1 0 0 0 0 0 0 0 0 0
Neighs:              0 ave           0 max           0 min
Histogram: 1 0 0 0 0 0 0 0 0 0
FullNghs:       373390 ave      373390 max      373390 min
Histogram: 1 0 0 0 0 0 0 0 0 0

Total # of neighbors = 373390
Ave neighs/atom = 172.86574
Neighbor list builds = 51
Dangerous builds = 0
Setting up Verlet run ...
  Unit style    : metal
  Current step  : 930
  Time step     : 0.0005
WARNING: Fix with atom-based arrays not compatible with Kokkos sorting on device, switching to classic host sorting (src/KOKKOS/atom_kokkos.cpp:216)
Per MPI rank memory allocation (min/avg/max) = 1810 | 1810 | 1810 Mbytes
   Step         TotEng         PotEng         KinEng         Press           Temp          Volume        Density     c_max_pace_gamma
       930  -10283.266     -10408.849      125.58269      15777.708      450            14229.332      1.513704       0.94301683   
      1000  -10263.845     -10320.859      57.014424      15759.433      204.29957      14192.775      1.5176029      0.73781864   
      1100  -10234.363     -10317.606      83.242509      24527.374      298.28257      14091.767      1.5284809      0.73781864   
      1200  -10214.291     -10309.035      94.744364      33187.995      339.49713      13970.483      1.5417503      0.73781864   
      1300  -10200.206     -10300.869      100.66357      39741.876      360.70739      13864.223      1.5535668      0.73781864   
      1400  -10186.27      -10293.158      106.8876       37477.399      383.00992      13810.855      1.5595701      0.73781864   
      1500  -10179.149     -10286.008      106.85898      37773.733      382.90737      13828.325      1.5575998      0.73781864   
      1600  -10175.014     -10291.597      116.58334      35061.504      417.75266      13913.204      1.5480975      0.73781864   
      1700  -10172.331     -10283.882      111.55135      30062.634      399.72154      14038.515      1.5342788      0.73781864   
      1800  -10168.477     -10281.92       113.4435       30345.16       406.50165      14174.774      1.5195302      0.73781864   
      1900  -10164.965     -10283.59       118.62559      29230.399      425.07065      14294.799      1.5067716      0.73781864   
      2000  -10163.207     -10283.48       120.27263      30180.376      430.97246      14383.2        1.4975107      0.81271132   
      2100  -10161.236     -10280.491      119.2546       26902.089      427.32455      14434.95       1.4921421      0.81271132   
      2200  -10160.145     -10280.392      120.24689      28050.693      430.88023      14452.558      1.4903242      0.81271132   
      2300  -10159.208     -10279.742      120.53365      28084.767      431.90778      14444.493      1.4911563      0.81271132   
      2400  -10156.835     -10280.369      123.53344      26982.31       442.65693      14414.969      1.4942104      0.81271132   
      2500  -10157.662     -10277.692      120.02981      26712.625      430.10235      14366.323      1.49927        0.81271132   
      2600  -10154.311     -10278.148      123.83752      28778.679      443.74653      14314.743      1.5046722      0.81271132   
      2700  -10152.998     -10276.565      123.56773      32612.359      442.7798       14272.039      1.5091745      0.81271132   
      2800  -10150.213     -10276.316      126.10342      29430.841      451.86591      14245.713      1.5119634      0.81271132   
      2900  -10152.884     -10277.69       124.80587      33609.985      447.21642      14235.997      1.5129953      0.81271132   
      3000  -10147.64      -10277.406      129.76629      32295.855      464.99105      14239.796      1.5125916      0.85839527   
      3100  -10147.882     -10272.689      124.80651      34854.321      447.2187       14256.694      1.5107988      0.85839527   
      3200  -10145.185     -10276.319      131.13374      32272.18       469.89103      14286.073      1.5076919      0.85839527   
      3300  -10146.627     -10275.971      129.34396      30636.759      463.47774      14318.545      1.5042727      0.85839527   
      3400  -10150.53      -10272.254      121.72444      30981.529      436.17474      14350.093      1.5009656      0.85839527   
      3500  -10148.153     -10275.243      127.0904       30078.162      455.40257      14373.381      1.4985338      0.85839527   
      3600  -10150.57      -10276.88       126.31013      27518.173      452.60663      14381.578      1.4976796      0.85839527   
      3700  -10150.736     -10274.667      123.93173      27220.344      444.08412      14374.002      1.498469       0.85839527   
      3800  -10149.434     -10273.131      123.69719      31241.303      443.24369      14352.171      1.5007483      0.85839527   
      3900  -10146.149     -10275.82       129.67079      29319.832      464.64887      14322.484      1.503859       0.85839527   
      4000  -10144.126     -10272.166      128.0401       31363.863      458.8056       14297.153      1.5065235      0.95036529   
      4100  -10144.8       -10270.02       125.22088      27631.747      448.7035       14277.943      1.5085504      0.95036529   
      4200  -10141.521     -10272.24       130.71854      29557.461      468.40325      14262.851      1.5101466      0.95036529   
      4300  -10140.936     -10273.343      132.40644      30273.421      474.45151      14252.789      1.5112128      0.95036529   
      4400  -10144.313     -10271.718      127.40501      29703.76       456.52989      14249.386      1.5115736      0.95036529   
      4500  -10144.906     -10270.553      125.64738      27162.43       450.2318       14243.809      1.5121654      0.95036529   
      4600  -10145.249     -10273.193      127.94411      32930.583      458.46164      14243.925      1.5121532      0.95036529   
      4700  -10148.215     -10276.606      128.39048      30904.442      460.06113      14243.614      1.5121862      0.95036529   
      4800  -10146.103     -10271.661      125.55836      32270.234      449.9128       14236.393      1.5129532      0.95036529   
      4900  -10150.673     -10278.42       127.74678      30740.078      457.75455      14230.739      1.5135543      0.95036529   
      5000  -10147.64      -10274.691      127.0514       30097.28       455.26281      14220.986      1.5145924      0.80299477   
      5100  -10147.455     -10275.933      128.47743      31865.343      460.37268      14209.104      1.5158589      0.80299477   
      5200  -10146.738     -10273.458      126.72002      32176.584      454.07539      14198.078      1.5170361      0.80299477   
      5300  -10146.308     -10273.406      127.09749      33325.47       455.42795      14191.227      1.5177684      0.80299477   
      5400  -10145.188     -10277.384      132.19603      29238.703      473.69753      14193.533      1.5175219      0.80299477   
      5500  -10145.936     -10272.805      126.869        33330.915      454.60921      14207.179      1.5160643      0.80299477   
      5600  -10144.969     -10275.847      130.87824      31857.938      468.97551      14233.943      1.5132136      0.80299477   
      5700  -10149.019     -10276.015      126.99586      28438.195      455.06378      14260.242      1.5104229      0.80299477   
      5800  -10151.038     -10276.718      125.68066      29967.335      450.35103      14275.625      1.5087954      0.80299477   
      5900  -10150.37      -10276.856      126.48593      32656.564      453.23656      14276.23       1.5087313      0.80299477   
      6000  -10150.096     -10274.884      124.7874       30654.437      447.15021      14261.581      1.5102811      0.92981574   
      6100  -10151.629     -10277.505      125.87586      27977.273      451.05051      14228.61       1.5137808      0.92981574   
      6200  -10150.58      -10276.657      126.07693      30598.865      451.77101      14176.128      1.519385       0.92981574   
      6300  -10151.222     -10278.371      127.14879      30573.189      455.61179      14112.375      1.5262489      0.92981574   
      6400  -10148.141     -10275.744      127.60267      34758.914      457.23818      14051.022      1.5329132      0.92981574   
      6500  -10151.381     -10277.627      126.24647      36715.634      452.3785       14009.765      1.5374274      0.92981574   
      6600  -10148.736     -10279.436      130.69968      32405.301      468.33566      13994.646      1.5390883      0.92981574   
      6700  -10147.87      -10279.542      131.67152      31090.16       471.81807      14007.988      1.5376224      0.92981574   
      6800  -10151.633     -10279.758      128.12518      29026.083      459.11049      14045.902      1.533472       0.92981574   
      6900  -10151.123     -10280.822      129.69906      31138.689      464.75015      14098.483      1.5277528      0.92981574   
      7000  -10155.341     -10282.345      127.00477      29554.672      455.09571      14147.934      1.5224128      0.80801753   
      7100  -10153.877     -10284.169      130.29156      28176.125      466.87326      14178.469      1.5191341      0.80801753   
      7200  -10152.25      -10279.748      127.49849      27851.38       456.86488      14185.077      1.5184265      0.80801753   
      7300  -10149.871     -10275.5        125.62889      30307.686      450.16554      14170.113      1.52003        0.80801753   
      7400  -10150.639     -10278.32       127.6808       30500.477      457.51814      14135.073      1.523798       0.80801753   
      7500  -10151.584     -10277.54       125.95569      26269.674      451.33657      14085.471      1.5291641      0.80801753   
      7600  -10155.436     -10280.817      125.38128      26557.623      449.27826      14027.248      1.5355112      0.80801753   
      7700  -10154.553     -10282.279      127.72612      29491.128      457.68052      13967.57       1.5420718      0.80801753   
      7800  -10150.687     -10280.978      130.2908       32271.529      466.87052      13914.701      1.547931       0.80801753   
      7900  -10155.4       -10281.487      126.08732      34603.205      451.80822      13878.343      1.5519862      0.80801753   
      8000  -10155.114     -10282.888      127.77409      33148.624      457.85242      13863.672      1.5536286      0.82690722   
      8100  -10157.167     -10283.993      126.82601      29871.868      454.45518      13872.095      1.5526852      0.82690722   
      8200  -10159.101     -10284.777      125.67537      30162.101      450.33209      13897.947      1.549797       0.82690722   
      8300  -10161.505     -10285.967      124.46192      28572.523      445.98393      13933.91       1.545797       0.82690722   
      8400  -10160.368     -10285.46       125.09119      29448.72       448.23881      13973.049      1.5414672      0.82690722   
      8500  -10160.688     -10283.54       122.85215      28576.912      440.21567      14006.817      1.537751       0.82690722   
      8600  -10159.673     -10287.44       127.76669      28932.943      457.82591      14030.293      1.535178       0.82690722   
      8700  -10159.717     -10287.283      127.56608      27035.983      457.10707      14040.257      1.5340885      0.82690722   
      8800  -10158.45      -10285.682      127.23209      26541.315      455.91029      14039.378      1.5341845      0.82690722   
      8900  -10159.616     -10285.375      125.75867      26568.976      450.63058      14026.64       1.5355778      0.82690722   
      9000  -10160.143     -10286.315      126.17148      31063.46       452.1098       13998.074      1.5387114      0.83099199   
      9100  -10156.786     -10286.85       130.06309      28879.087      466.05457      13958.046      1.5431241      0.83099199   
      9200  -10156.936     -10285.655      128.71881      29770.779      461.23762      13917.01       1.5476741      0.83099199   
      9300  -10155.919     -10279.972      124.05366      29206.762      444.521        13885.269      1.551212       0.83099199   
      9400  -10157.361     -10286.49       129.12869      31293.688      462.70635      13871.616      1.5527388      0.83099199   
      9500  -10157.165     -10286.69       129.52439      33053.748      464.12426      13874.185      1.5524512      0.83099199   
      9600  -10160.408     -10287.16       126.75246      29484.797      454.19163      13891.745      1.5504889      0.83099199   
      9700  -10160.988     -10285.789      124.80092      28238.735      447.19866      13912.547      1.5481706      0.83099199   
      9800  -10159.476     -10286.331      126.85551      34100.528      454.56087      13932.458      1.5459581      0.83099199   
      9900  -10156.649     -10286.119      129.47014      31947.433      463.92987      13956.234      1.5433244      0.83099199   
     10000  -10161.584     -10286.438      124.85308      30148.969      447.38557      13977.278      1.5410008      0.82410872   
     10100  -10159.938     -10285.12       125.18202      30781.064      448.56428      13987.718      1.5398506      0.82410872   
     10200  -10157.841     -10284.165      126.32414      28563.035      452.6568       13989.866      1.5396142      0.82410872   
     10300  -10158.296     -10283.812      125.5162       29477.119      449.76172      13984.819      1.5401698      0.82410872   
     10400  -10157.114     -10284.282      127.16772      28399.144      455.67961      13973.093      1.5414623      0.82410872   
     10500  -10159.18      -10286.632      127.45206      26729.207      456.69851      13956.986      1.5432413      0.82410872   
     10600  -10159.24      -10284.172      124.93198      31189.119      447.66829      13937.134      1.5454394      0.82410872   
     10700  -10158.541     -10286.779      128.23839      27749.379      459.51613      13920.798      1.547253       0.82410872   
     10800  -10164.187     -10287.851      123.66383      32162.747      443.12415      13904.956      1.5490157      0.82410872   
     10900  -10164.125     -10291.281      127.15554      30247.199      455.63599      13888.62       1.5508378      0.82410872   
     11000  -10161.846     -10289.812      127.96634      29372.24       458.54132      13871.724      1.5527267      0.87898466   
     11100  -10161.156     -10291.35       130.19447      31151.064      466.52537      13860.505      1.5539835      0.87898466   
     11200  -10162.623     -10288.029      125.40557      27924.949      449.36533      13861.631      1.5538573      0.87898466   
     11300  -10161.827     -10285.697      123.86971      28618.664      443.86188      13873.949      1.5524777      0.87898466   
     11400  -10165.917     -10290.63       124.71235      31483.695      446.88129      13895.585      1.5500604      0.87898466   
     11500  -10168.234     -10290.32       122.08565      29458.073      437.46904      13916.014      1.5477849      0.87898466   
     11600  -10167.554     -10291.425      123.87005      27633.221      443.86309      13926.329      1.5466385      0.87898466   
     11700  -10170.049     -10291.923      121.87369      28519.074      436.70954      13923.178      1.5469885      0.87898466   
     11800  -10170.84      -10295.576      124.73649      29030.369      446.96781      13904.672      1.5490474      0.87898466   
     11900  -10172.673     -10292.342      119.66879      27166.01       428.80874      13870.817      1.5528282      0.87898466   
     12000  -10172.998     -10291.823      118.82449      30090.962      425.78334      13829.532      1.5574639      0.84267673   
     12100  -10174.693     -10295.417      120.72425      29804.594      432.59077      13789.967      1.5619325      0.84267673   
     12200  -10171.62      -10293.781      122.16107      32362.914      437.73931      13756.611      1.5657196      0.84267673   
     12300  -10173.315     -10293.737      120.42203      34826.701      431.5078       13737.368      1.5679129      0.84267673   
     12400  -10174.845     -10295.339      120.4939       31203.258      431.76534      13733.269      1.5683809      0.84267673   
     12500  -10175.244     -10296.023      120.7793       30925.336      432.78803      13740.013      1.567611       0.84267673   
     12600  -10173.261     -10296.194      122.93289      30798.633      440.50498      13758.844      1.5654656      0.84267673   
     12700  -10168.54      -10290.52       121.97925      29414.884      437.0878       13790.209      1.561905       0.84267673   
     12800  -10166.73      -10292.712      125.9823       31907.579      451.43191      13831.283      1.5572667      0.84267673   
     12900  -10167.342     -10287.961      120.6191       31563.095      432.21398      13874.324      1.5524358      0.84267673   
     13000  -10166.196     -10291.812      125.61582      31208.946      450.11869      13917.842      1.5475817      0.850672     
     13100  -10166.269     -10289.904      123.63429      25976.417      443.0183       13950.215      1.5439902      0.850672     
     13200  -10165.61      -10290.408      124.79856      29075.196      447.19022      13960.35       1.5428693      0.850672     
     13300  -10162.494     -10290.212      127.71823      27732.969      457.65224      13947.51       1.5442898      0.850672     
     13400  -10158.138     -10285.24       127.10245      31553.288      455.44575      13917.212      1.5476517      0.850672     
     13500  -10158.858     -10287.917      129.05979      31786.954      462.45948      13880.32       1.5517651      0.850672     
     13600  -10158.651     -10287.295      128.64392      30780.975      460.96928      13844.365      1.5557951      0.850672     
     13700  -10159.685     -10285.579      125.89454      33055.855      451.11743      13818.31       1.5587287      0.850672     
     13800  -10160.295     -10288.458      128.16326      30969.322      459.24692      13806.144      1.5601022      0.850672     
     13900  -10163.872     -10289.34       125.46772      29566.288      449.58803      13808.162      1.5598743      0.850672     
     14000  -10165.071     -10289.626      124.55478      31186.38       446.31669      13818.463      1.5587115      0.90022983   
     14100  -10164.038     -10288.7        124.66246      32274.483      446.70253      13834.638      1.5568891      0.90022983   
     14200  -10163.975     -10288.833      124.8583       32761.096      447.40428      13856.954      1.5543818      0.90022983   
     14300  -10164.181     -10290.31       126.12869      31000.484      451.95647      13883.501      1.5514096      0.90022983   
     14400  -10164.335     -10290.163      125.82733      32939.508      450.8766       13909.282      1.548534       0.90022983   
     14500  -10167.043     -10291.867      124.82405      31426.872      447.28155      13927.402      1.5465194      0.90022983   
     14600  -10165.714     -10291.834      126.12088      26125.516      451.92847      13933.817      1.5458073      0.90022983   
     14700  -10165.345     -10290.116      124.77107      29003.974      447.09169      13924.286      1.5468654      0.90022983   
     14800  -10160.808     -10286.769      125.96134      30577.053      451.3568       13905.356      1.5489713      0.90022983   
     14900  -10158.857     -10286.337      127.47993      31221.767      456.79835      13887.201      1.5509962      0.90022983   
     15000  -10160.316     -10288.724      128.4085       30152.377      460.12569      13872.681      1.5526196      0.91527557   
     15100  -10161.451     -10286.055      124.60483      29462.535      446.49604      13861.172      1.5539088      0.91527557   
     15200  -10163.696     -10291.404      127.70718      28263.159      457.61266      13855.601      1.5545336      0.91527557   
     15300  -10163.176     -10288.449      125.27264      33685.827      448.88899      13854.061      1.5547064      0.91527557   
     15400  -10161.3       -10289.039      127.73874      31893.452      457.72575      13858.779      1.5541771      0.91527557   
     15500  -10162.224     -10288.529      126.30453      31099.451      452.58655      13866.901      1.5532668      0.91527557   
     15600  -10160.472     -10286.352      125.88036      31014.09       451.06661      13876.881      1.5521497      0.91527557   
     15700  -10162.736     -10289.403      126.66628      29963.833      453.88282      13891.625      1.5505023      0.91527557   
     15800  -10163.899     -10289.121      125.2219       28162.525      448.70716      13908.199      1.5486546      0.91527557   
     15900  -10160.082     -10286.074      125.99187      28763.073      451.46618      13922.355      1.5470799      0.91527557   
     16000  -10157.479     -10288.131      130.65181      28399.07       468.16414      13932.215      1.5459851      0.81938282   
     16100  -10162.108     -10288.276      126.16811      27508.089      452.09774      13937.551      1.5453932      0.81938282   
     16200  -10160.243     -10288.058      127.81581      29254.313      458.00192      13934.4        1.5457427      0.81938282   
     16300  -10158.474     -10288.818      130.34404      27182.706      467.06132      13923.011      1.5470071      0.81938282   
     16400  -10158.543     -10285.048      126.50475      27406.057      453.30399      13907.384      1.5487453      0.81938282   
     16500  -10158.673     -10286.222      127.54927      29136.362      457.04681      13891.318      1.5505366      0.81938282   
     16600  -10157.72      -10284.514      126.79395      29910.775      454.3403       13874.176      1.5524523      0.81938282   
     16700  -10157.651     -10286.317      128.66663      30989.015      461.05067      13867.268      1.5532257      0.81938282   
     16800  -10158.361     -10287.711      129.34985      32003.941      463.49885      13871.669      1.5527329      0.81938282   
     16900  -10160.36      -10288.26       127.8999       30161.419      458.30325      13879.903      1.5518118      0.81938282   
     17000  -10159.851     -10288.853      129.00165      33901.675      462.25114      13891.022      1.5505696      0.87897266   
     17100  -10159.107     -10288.288      129.18109      28762.81       462.89412      13905.346      1.5489723      0.87897266   
     17200  -10160.503     -10288.402      127.89952      27352.993      458.30187      13917.266      1.5476456      0.87897266   
     17300  -10162.517     -10290.052      127.53497      29863.326      456.99559      13921.29       1.5471983      0.87897266   
     17400  -10159.735     -10288.497      128.76212      33709.962      461.39282      13916.419      1.5477399      0.87897266   
     17500  -10161.281     -10286.452      125.17107      30009.574      448.52504      13908.761      1.548592       0.87897266   
     17600  -10162.01      -10286.129      124.1183       30492.736      444.75264      13896.628      1.5499441      0.87897266   
     17700  -10160.84      -10287.728      126.88759      29215.105      454.67583      13885.299      1.5512087      0.87897266   
     17800  -10163.164     -10290.083      126.91869      29158.014      454.78729      13874.41       1.5524262      0.87897266   
     17900  -10164.861     -10289.457      124.59556      29269.028      446.4628       13862.574      1.5537515      0.87897266   
     18000  -10165.217     -10291.626      126.40967      28612.22       452.9633       13852.069      1.5549299      0.86241121   
     18100  -10167.023     -10289.957      122.93421      32013.795      440.50971      13840.638      1.5562141      0.86241121   
     18200  -10165.306     -10289.923      124.61615      27805.846      446.5366       13831.628      1.5572279      0.86241121   
     18300  -10163.98      -10288.504      124.52364      30053.246      446.20509      13827.792      1.5576599      0.86241121   
     18400  -10166.079     -10292.275      126.19594      28528.549      452.19746      13830.846      1.5573159      0.86241121   
     18500  -10166.756     -10289.758      123.00167      28993.707      440.75144      13837.176      1.5566034      0.86241121   
     18600  -10166.157     -10289.108      122.95064      30666.499      440.56856      13842.483      1.5560068      0.86241121   
     18700  -10167.314     -10292.722      125.40813      31173.99       449.3745       13844.815      1.5557447      0.86241121   
     18800  -10165.474     -10288.368      122.89422      31378.359      440.36641      13842.84       1.5559666      0.86241121   
     18900  -10166.623     -10290.866      124.2432       28242.995      445.2002       13839.819      1.5563062      0.86241121   
     19000  -10166.173     -10289.746      123.57343      29778.762      442.80021      13835.741      1.5567649      0.89847975   
     19100  -10166.933     -10290.89       123.95649      27255.396      444.17284      13834.438      1.5569115      0.89847975   
     19200  -10165.718     -10290.992      125.27401      28798.596      448.8939       13835.326      1.5568116      0.89847975   
     19300  -10166.719     -10292.674      125.95496      28861.066      451.33395      13834.447      1.5569106      0.89847975   
     19400  -10164.816     -10289.097      124.28115      32584.905      445.33618      13830.523      1.5573523      0.89847975   
     19500  -10167.268     -10290.588      123.3197       32448.552      441.89102      13829.215      1.5574996      0.89847975   
     19600  -10167.37      -10291.292      123.92145      30516.634      444.04727      13829.777      1.5574363      0.89847975   
     19700  -10165.163     -10290.144      124.98091      32218.525      447.84365      13833.199      1.5570511      0.89847975   
     19800  -10164.421     -10291.165      126.7445       30436.057      454.16308      13837.478      1.5565696      0.89847975   
     19900  -10163.609     -10288.848      125.23961      31310.191      448.77063      13839.337      1.5563604      0.89847975   
     20000  -10162.388     -10288.413      126.02498      29025.374      451.58483      13838.909      1.5564086      0.9714515    
     20100  -10161.89      -10288.239      126.34923      31227.373      452.74672      13845.403      1.5556785      0.9714515    
     20200  -10163.062     -10289.568      126.50582      31729.086      453.30784      13856.004      1.5544883      0.9714515    
     20300  -10165.703     -10292.651      126.94797      30371.595      454.8922       13867.06       1.5532489      0.9714515    
     20400  -10167.635     -10291.564      123.92869      28787.065      444.07322      13875.041      1.5523555      0.9714515    
     20500  -10168.814     -10291.081      122.26668      31642.616      438.11776      13876.016      1.5522464      0.9714515    
     20600  -10167.148     -10288.124      120.97575      30452.646      433.49195      13866.502      1.5533114      0.9714515    
     20700  -10162.9       -10289.059      126.159        28691.804      452.06508      13854.304      1.554679       0.9714515    
     20800  -10162.282     -10292.763      130.48096      30265.777      467.55194      13840.436      1.5562368      0.9714515    
     20900  -10162.493     -10288.503      126.00995      31107.805      451.53098      13825.74       1.5578911      0.9714515    
     21000  -10158.748     -10285.818      127.07032      30212.594      455.33059      13814.109      1.5592027      0.83939569   
     21100  -10159.893     -10287.066      127.1734       32913.179      455.69998      13811.493      1.5594981      0.83939569   
     21200  -10161.447     -10286.721      125.27353      28616.187      448.89219      13817.138      1.558861       0.83939569   
     21300  -10162.647     -10288.75       126.1036       30386.341      451.86658      13825.385      1.557931       0.83939569   
     21400  -10165.236     -10289.438      124.2022       32950.912      445.05329      13837.89       1.5565232      0.83939569   
     21500  -10169.637     -10292.048      122.41063      27325.249      438.63356      13850.967      1.5550536      0.83939569   
     21600  -10174.492     -10298.749      124.25709      24404.823      445.24998      13859.019      1.5541502      0.83939569   
     21700  -10173.613     -10294.92       121.30698      26554.499      434.67884      13848.699      1.5553083      0.83939569   
     21800  -10169.602     -10290.795      121.1925       32461.42       434.26862      13825.199      1.557952       0.83939569   
     21900  -10169.841     -10294.361      124.51989      31178.199      446.19164      13796.679      1.5611725      0.83939569   
     22000  -10171.131     -10293.246      122.1143       31145.074      437.57172      13769.208      1.5642872      0.84236142   
     22100  -10170.882     -10294.318      123.43606      29917.172      442.30799      13748.219      1.5666754      0.84236142   
     22200  -10171.262     -10294.626      123.36388      28235.299      442.04934      13737.438      1.5679049      0.84236142   
     22300  -10170.388     -10294.891      124.50384      31933.189      446.13413      13737.086      1.5679451      0.84236142   
     22400  -10170.715     -10291.85       121.13548      27561.57       434.06433      13746.004      1.5669278      0.84236142   
     22500  -10171.074     -10289.717      118.64289      27211.874      425.13262      13763.496      1.5649365      0.84236142   
     22600  -10168.038     -10290.71       122.67156      27451.466      439.56855      13784.633      1.5625368      0.84236142   
     22700  -10166.806     -10289.051      122.24523      29938.062      438.04089      13808.823      1.5597996      0.84236142   
     22800  -10167.571     -10292.979      125.40806      24475.897      449.37424      13830.41       1.557365       0.84236142   
     22900  -10164.822     -10288.495      123.67312      26105.492      443.15744      13846.297      1.5555781      0.84236142   
     23000  -10166.498     -10289.611      123.1124       25737.81       441.14821      13855.688      1.5545238      0.89989894   
     23100  -10166.141     -10288.169      122.02773      28022.601      437.26151      13859.163      1.5541341      0.89989894   
     23200  -10163.142     -10287.766      124.62361      25897.285      446.56333      13858.538      1.5542041      0.89989894   
     23300  -10162.95      -10288.951      126.00137      26741.256      451.50026      13851.785      1.5549618      0.89989894   
     23400  -10161.705     -10287.472      125.76685      27605.831      450.65988      13839.693      1.5563204      0.89989894   
     23500  -10163.419     -10289.524      126.10485      29885.402      451.87103      13831.008      1.5572976      0.89989894   
     23600  -10159.184     -10284.907      125.72242      32240.983      450.50069      13824.11       1.5580748      0.89989894   
     23700  -10160.362     -10284.546      124.18392      33638.101      444.98776      13828.097      1.5576256      0.89989894   
     23800  -10159.043     -10289.584      130.54119      30766.376      467.76775      13840.863      1.5561889      0.89989894   
     23900  -10163.189     -10288.071      124.88224      31518.369      447.49008      13859.4        1.5541074      0.89989894   
     24000  -10163.513     -10291.057      127.54365      26487.376      457.02668      13878.12       1.5520112      0.98115937   
     24100  -10162.657     -10286.811      124.15377      27185.396      444.87973      13889.19       1.5507742      0.98115937   
     24200  -10162.029     -10287.527      125.49832      26881.173      449.69768      13895.43       1.5500777      0.98115937   
     24300  -10162.757     -10287.187      124.43053      25798.791      445.87146      13899.204      1.5496568      0.98115937   
     24400  -10163.927     -10290.286      126.35818      24297.331      452.7788       13896.517      1.5499565      0.98115937   
     24500  -10163.786     -10289.224      125.4373       28817.618      449.47903      13885.313      1.5512071      0.98115937   
     24600  -10163.865     -10290.159      126.29381      31025.866      452.54814      13873.653      1.5525109      0.98115937   
     24700  -10165.787     -10293.277      127.48985      32807.537      456.83392      13863.352      1.5536644      0.98115937   
     24800  -10164.178     -10292.448      128.27028      30233.364      459.63042      13850.021      1.5551598      0.98115937   
     24900  -10166.403     -10290.897      124.49379      29104.534      446.09814      13834.094      1.5569502      0.98115937   
     25000  -10164.203     -10289.875      125.67166      29111.464      450.31878      13822.045      1.5583075      0.84737552   
     25100  -10162.548     -10286.829      124.28108      30755.301      445.33592      13817.119      1.5588631      0.84737552   
     25200  -10162.802     -10290.223      127.42054      29481.109      456.58554      13820.714      1.5584576      0.84737552   
     25300  -10163.407     -10290.719      127.31274      32294.364      456.19926      13829.175      1.557504       0.84737552   
     25400  -10167.307     -10292.368      125.06105      31940.72       448.13079      13835.922      1.5567445      0.84737552   
     25500  -10166.22      -10290.667      124.44691      30736.086      445.93015      13835.398      1.5568036      0.84737552   
     25600  -10163.445     -10292.29       128.84562      29857.36       461.69205      13833.424      1.5570257      0.84737552   
     25700  -10165.535     -10289.481      123.94546      30376.062      444.13329      13829.825      1.5574309      0.84737552   
     25800  -10165.949     -10291.568      125.61901      30603.636      450.13012      13831.034      1.5572947      0.84737552   
     25900  -10162.342     -10287.214      124.87225      32442.994      447.45427      13833.901      1.556972       0.84737552   
     26000  -10163.064     -10291.818      128.75351      28038.039      461.36199      13839.282      1.5563667      0.83958011   
     26100  -10163.103     -10286.953      123.84999      30266.592      443.7912       13846.834      1.5555178      0.83958011   
     26200  -10159.512     -10287.218      127.70633      29980.157      457.6096       13860.35       1.5540009      0.83958011   
     26300  -10159.344     -10285.174      125.83024      26087.071      450.88703      13875.679      1.5522842      0.83958011   
     26400  -10158.928     -10285.609      126.6814       29090.3        453.93699      13888.595      1.5508405      0.83958011   
     26500  -10161.857     -10287.925      126.06776      30947.568      451.73812      13899.754      1.5495956      0.83958011   
     26600  -10161.498     -10285.237      123.7384       32232.96       443.39134      13906.29       1.5488672      0.83958011   
     26700  -10163.308     -10289.064      125.75668      29662.79       450.62344      13908.134      1.5486618      0.83958011   
     26800  -10161.541     -10286.627      125.08698      30147.517      448.22372      13899.032      1.549676       0.83958011   
     26900  -10159.583     -10286.148      126.56506      32630.169      453.52011      13882.143      1.5515614      0.83958011   
     27000  -10159.137     -10289.542      130.40461      27029.079      467.27835      13865.365      1.5534389      0.85460571   
     27100  -10159.12      -10287.688      128.56866      28390.267      460.6996       13847.109      1.5554868      0.85460571   
     27200  -10161.229     -10285.883      124.6542       30854.382      446.67294      13832.389      1.5571421      0.85460571   
     27300  -10160.341     -10289.807      129.46643      29820.788      463.91656      13823.533      1.5581397      0.85460571   
     27400  -10161.632     -10288.667      127.03552      34198.8        455.20589      13819.251      1.5586226      0.85460571   
     27500  -10161.506     -10287.09       125.58396      34193.122      450.00454      13821.622      1.5583552      0.85460571   
     27600  -10160.528     -10290.924      130.39645      32423.967      467.24911      13828.489      1.5575813      0.85460571   
     27700  -10162.387     -10287.985      125.59818      28965.827      450.0555       13840.204      1.556263       0.85460571   
     27800  -10165.058     -10290.813      125.75503      30304.539      450.61754      13854.792      1.5546243      0.85460571   
     27900  -10166.546     -10289.428      122.88189      31717.657      440.32221      13864.295      1.5535587      0.85460571   
     28000  -10165.195     -10288.799      123.60382      30673.105      442.90911      13867.046      1.5532505      0.8399667    
     28100  -10167.635     -10291.837      124.20222      30892.105      445.05335      13864.828      1.553499       0.8399667    
     28200  -10167.646     -10295.208      127.56254      30682.058      457.09436      13856.78       1.5544013      0.8399667    
     28300  -10166.52      -10290.009      123.48891      32342.758      442.49737      13843.224      1.5559234      0.8399667    
     28400  -10167.769     -10293.176      125.40709      27014.001      449.37076      13829.096      1.557513       0.8399667    
     28500  -10170.836     -10294.754      123.91815      27504.226      444.03545      13813.034      1.5593241      0.8399667    
     28600  -10166.442     -10289.585      123.14323      30579.435      441.25868      13797.753      1.561051       0.8399667    
     28700  -10169.557     -10295.044      125.48677      28217.299      449.65627      13790.136      1.5619133      0.8399667    
     28800  -10166.853     -10290.966      124.11315      33127.566      444.73419      13788.267      1.5621249      0.8399667    
     28900  -10170.054     -10293.182      123.1276       29061.204      441.20269      13794.704      1.5613961      0.8399667    
     29000  -10168.131     -10292.994      124.8623       27635.946      447.4186       13804.169      1.5603255      0.8353932    
     29100  -10165.618     -10287.759      122.14132      34241.808      437.66854      13819.294      1.5586177      0.8353932    
     29200  -10164.037     -10293.663      129.62605      32559.854      464.48855      13842.912      1.5559585      0.8353932    
     29300  -10162.542     -10286.402      123.86053      32211.438      443.82898      13867.129      1.5532412      0.8353932    
     29400  -10164.15      -10292.293      128.14302      29741.022      459.17442      13896.954      1.5499077      0.8353932    
     29500  -10165.656     -10289.783      124.12723      29678.138      444.78463      13914.937      1.5479047      0.8353932    
     29600  -10167.871     -10290.555      122.68378      32936.883      439.61232      13920.55       1.5472805      0.8353932    
     29700  -10166.827     -10290.785      123.95787      30075.734      444.17778      13912.924      1.5481286      0.8353932    
     29800  -10163.236     -10288.423      125.18631      29373.263      448.57964      13894.175      1.5502177      0.8353932    
     29900  -10162.17      -10288.913      126.74315      29034.903      454.15827      13868.915      1.5530412      0.8353932    
     30000  -10159.559     -10287.197      127.63784      32598.754      457.3642       13845.603      1.5556561      0.84620477   
     30100  -10159.303     -10284.663      125.35974      33991.906      449.20109      13833.406      1.5570278      0.84620477   
     30200  -10159.536     -10289.355      129.81904      35136.219      465.18008      13835.723      1.556767       0.84620477   
     30300  -10161.586     -10287.539      125.95321      32696.967      451.32769      13850.248      1.5551344      0.84620477   
     30400  -10162.411     -10289.052      126.6407       29217.772      453.79114      13871.874      1.55271        0.84620477   
     30500  -10162.772     -10290.873      128.10192      28679.879      459.02713      13896.236      1.5499878      0.84620477   
     30600  -10163.503     -10290.4        126.89668      30331.153      454.70842      13918.321      1.5475283      0.84620477   
     30700  -10163.76      -10291.113      127.35228      29798.651      456.34094      13931.41       1.5460744      0.84620477   
     30800  -10166.682     -10289.584      122.90232      28782.267      440.39541      13933.429      1.5458504      0.84620477   
     30900  -10169.239     -10296.018      126.77888      26907.587      454.2863       13921.906      1.5471299      0.84620477   
     31000  -10170.787     -10294.329      123.54222      26735.372      442.68839      13889.514      1.550738       0.85634173   
     31100  -10164.242     -10290.61       126.36837      31696.884      452.8153       13843.411      1.5559024      0.85634173   
     31200  -10165.815     -10290.479      124.66416      30043.275      446.70863      13801.113      1.560671       0.85634173   
     31300  -10162.364     -10291.654      129.28974      32492.152      463.28345      13776.095      1.5635053      0.85634173   
     31400  -10160.441     -10289.844      129.40236      32157.833      463.68699      13767.866      1.5644397      0.85634173   
     31500  -10163.097     -10288.098      125.00033      32095.881      447.91322      13779.54       1.5631143      0.85634173   
     31600  -10163.745     -10290.027      126.28208      27835.934      452.50609      13810.876      1.5595677      0.85634173   
     31700  -10165.97      -10288.727      122.75649      31048.806      439.87286      13848.222      1.5553618      0.85634173   
     31800  -10170.358     -10296.022      125.66419      27853.166      450.29202      13884.343      1.5513155      0.85634173   
     31900  -10173.703     -10292.721      119.01784      27722.094      426.47619      13904.881      1.5490241      0.85634173   
     32000  -10173.223     -10297.098      123.87489      28252.956      443.88042      13904.177      1.5491026      0.86703693   
     32100  -10169.809     -10289.569      119.76016      27915.936      429.13615      13882.331      1.5515404      0.86703693   
     32200  -10168.391     -10294.503      126.11192      28784.193      451.89636      13854.538      1.5546528      0.86703693   
     32300  -10166.13      -10291.342      125.21219      28730.353      448.67239      13824.44       1.5580375      0.86703693   
     32400  -10161.648     -10288.746      127.09878      29488.374      455.43259      13800.145      1.5607804      0.86703693   
     32500  -10161.978     -10292.133      130.15501      32151.751      466.38395      13787.983      1.5621571      0.86703693   
     32600  -10161.62      -10290.13       128.50961      32681.094      460.488        13784.199      1.562586       0.86703693   
     32700  -10163.804     -10290.894      127.09029      31944.219      455.40215      13790.365      1.5618874      0.86703693   
     32800  -10164.589     -10290.814      126.22531      29989.275      452.30269      13807.552      1.5599432      0.86703693   
     32900  -10164.186     -10292.261      128.07563      29450.687      458.93294      13830.419      1.557364       0.86703693   
     33000  -10164.614     -10292.977      128.36343      28074.495      459.9642       13856.496      1.5544332      0.87856877   
     33100  -10165.738     -10291.625      125.88657      32051.896      451.08886      13877.535      1.5520765      0.87856877   
     33200  -10169.336     -10291.643      122.30693      31447.989      438.26196      13892.879      1.5503623      0.87856877   
     33300  -10166.14      -10291.037      124.89735      29525.672      447.54421      13896.921      1.5499114      0.87856877   
     33400  -10163.939     -10293.642      129.70228      30118.256      464.76169      13889.418      1.5507487      0.87856877   
     33500  -10160.18      -10290.73       130.55032      27575.184      467.80046      13872.227      1.5526704      0.87856877   
     33600  -10159.043     -10287.008      127.9648       27608.558      458.53581      13852.801      1.5548477      0.87856877   
     33700  -10159.67      -10288.138      128.46871      29905.228      460.34145      13840.441      1.5562363      0.87856877   
     33800  -10164.157     -10290.184      126.02671      34317.893      451.59106      13835.241      1.5568212      0.87856877   
     33900  -10163.345     -10289.722      126.37688      31373.554      452.8458       13832.475      1.5571325      0.87856877   
     34000  -10164.742     -10291.753      127.01116      30492.646      455.11863      13831.111      1.5572861      0.76539118   
     34100  -10170.813     -10291.386      120.57327      30207.721      432.04976      13832.779      1.5570983      0.76539118   
     34200  -10172.383     -10297.246      124.86395      29288.392      447.42453      13834.33       1.5569237      0.76539118   
     34300  -10173.391     -10297.113      123.72213      27070.494      443.33304      13830.136      1.5573959      0.76539118   
     34400  -10172.769     -10293.899      121.13016      27081.192      434.04527      13815.276      1.5590711      0.76539118   
     34500  -10171.733     -10293.849      122.11595      28637.963      437.57762      13798.353      1.5609831      0.76539118   
     34600  -10172.782     -10295.931      123.14952      30630.941      441.28122      13780.216      1.5630376      0.76539118   
     34700  -10173.713     -10295.418      121.70491      31415.151      436.10477      13763.18       1.5649724      0.76539118   
     34800  -10173.933     -10296.613      122.68047      30140.053      439.60046      13750.852      1.5663754      0.76539118   
     34900  -10173.128     -10297.841      124.71345      31552.563      446.88523      13743.311      1.5672349      0.76539118   
     35000  -10172.462     -10290.953      118.49045      30337.439      424.58639      13743.807      1.5671783      0.82634287   
     35100  -10168.861     -10292.395      123.53335      30886.357      442.65661      13758.873      1.5654623      0.82634287   
     35200  -10166.256     -10292.562      126.30658      29413.092      452.5939       13789.081      1.5620328      0.82634287   
     35300  -10170.237     -10295.96       125.72311      25572.45       450.50314      13826.898      1.5577606      0.82634287   
     35400  -10168.189     -10292.346      124.15699      27353.435      444.89127      13862.707      1.5537367      0.82634287   
     35500  -10171.929     -10295.38       123.45082      28821.172      442.36087      13891.986      1.550462       0.82634287   
     35600  -10172.784     -10294.663      121.87898      28986.819      436.72851      13903.147      1.5492174      0.82634287   
     35700  -10170.398     -10297.021      126.62317      27744.512      453.72832      13896.919      1.5499117      0.82634287   
     35800  -10167.971     -10292.791      124.81954      26360.76       447.26538      13870.317      1.5528842      0.82634287   
     35900  -10170.038     -10293.542      123.50323      30065.717      442.54866      13830.124      1.5573973      0.82634287   
     36000  -10167.83      -10293.714      125.88369      32633.584      451.07854      13785.071      1.5624872      0.85790833   
     36100  -10171.528     -10293.595      122.0668       31631.635      437.40149      13742.153      1.567367       0.85790833   
     36200  -10170.696     -10297.255      126.55945      30332.49       453.50001      13703.07       1.5718373      0.85790833   
     36300  -10171.722     -10294.415      122.69243      30615.768      439.64333      13673.094      1.5752833      0.85790833   
     36400  -10172.531     -10296.364      123.8332       28126.764      443.73105      13658.536      1.5769623      0.85790833   
     36500  -10170.069     -10293.927      123.85738      32162.91       443.81768      13661.745      1.5765919      0.85790833   
     36600  -10167.874     -10292.115      124.24127      30154.19       445.19329      13682.979      1.5741453      0.85790833   
     36700  -10171.309     -10295.156      123.84608      30773.062      443.7772       13723.258      1.5695251      0.85790833   
     36800  -10172.086     -10296.803      124.71744      31833.512      446.89953      13768.946      1.564317       0.85790833   
     36900  -10171.594     -10295.462      123.86814      29231.686      443.85624      13811.266      1.5595237      0.85790833   
     37000  -10169.656     -10293.214      123.55828      29714.284      442.74594      13840.183      1.5562653      0.85379391   
     37100  -10172.199     -10294.519      122.31996      28035.106      438.30866      13857.777      1.5542894      0.85379391   
     37200  -10171.51      -10292.649      121.13961      26760.98       434.07913      13858.044      1.5542595      0.85379391   
     37300  -10171.548     -10295.168      123.61926      29491.264      442.96443      13840.11       1.5562735      0.85379391   
     37400  -10170.539     -10295.465      124.92573      29671.821      447.64591      13807.999      1.5598927      0.85379391   
     37500  -10171.905     -10295.862      123.95694      31461.553      444.17445      13768.932      1.5643186      0.85379391   
     37600  -10168.79      -10295.747      126.95686      27881.747      454.92406      13732.234      1.5684991      0.85379391   
     37700  -10168.527     -10290.003      121.47578      30408.954      435.28372      13703.814      1.5717519      0.85379391   
     37800  -10165.713     -10294.003      128.29015      30955.5        459.70161      13692.808      1.5730153      0.85379391   
     37900  -10166.295     -10292.917      126.62287      31054.877      453.72727      13703.331      1.5718073      0.85379391   
     38000  -10165.135     -10289.903      124.76799      29252.143      447.08069      13730.286      1.5687217      0.88287305   
     38100  -10169.401     -10292.952      123.55096      31117.255      442.71969      13772.615      1.5639003      0.88287305   
     38200  -10172.626     -10295.989      123.36277      28803.674      442.04535      13819.689      1.5585732      0.88287305   
     38300  -10170.54      -10294.973      124.43223      28028.284      445.87753      13857.111      1.5543641      0.88287305   
     38400  -10170.183     -10292.176      121.99246      29290.498      437.13511      13876.364      1.5522076      0.88287305   
     38500  -10166.462     -10290.887      124.42465      26674.573      445.85037      13876.608      1.5521802      0.88287305   
     38600  -10164.361     -10292.314      127.95368      27673.503      458.49594      13861.09       1.5539179      0.88287305   
     38700  -10166.816     -10292.457      125.6408       31114.596      450.2082       13836.869      1.556638       0.88287305   
     38800  -10166.277     -10292.675      126.39778      29532.448      452.92069      13807.886      1.5599055      0.88287305   
     38900  -10163.082     -10293.089      130.00755      27031.019      465.85558      13780.855      1.5629651      0.88287305   
     39000  -10167.164     -10291.644      124.47999      28966.4        446.0487       13761.173      1.5652006      0.83809138   
     39100  -10164.767     -10290.927      126.16038      26711.74       452.07001      13749.262      1.5665565      0.83809138   
     39200  -10166.67      -10291.278      124.60818      27050.35       446.50802      13747.801      1.566723       0.83809138   
     39300  -10168.308     -10290.64       122.33169      29567.789      438.3507       13758.762      1.5654748      0.83809138   
     39400  -10170.608     -10295.329      124.72084      27786.144      446.91171      13781.907      1.5628458      0.83809138   
     39500  -10170.781     -10296.851      126.07046      28349.642      451.74781      13809.112      1.559767       0.83809138   
     39600  -10169.221     -10296.565      127.34392      29857.739      456.311        13832.007      1.5571851      0.83809138   
     39700  -10168.774     -10292.994      124.21948      29581.536      445.1152       13846.824      1.5555189      0.83809138   
     39800  -10169.988     -10296.084      126.09606      28181.837      451.83955      13853.197      1.5548033      0.83809138   
     39900  -10169.382     -10296.463      127.08039      28169.671      455.36668      13849.812      1.5551833      0.83809138   
     40000  -10169.006     -10290.327      121.32178      30031.15       434.73188      13836.808      1.5566449      0.87375049   
     40100  -10167.532     -10291.511      123.97817      31823.565      444.2505       13820.909      1.5584355      0.87375049   
     40200  -10169.409     -10292.717      123.30829      28638.35       441.85013      13802.501      1.5605141      0.87375049   
     40300  -10169.059     -10295.512      126.45281      28264.556      453.1179       13784.49       1.562553       0.87375049   
     40400  -10166.664     -10289.3        122.63595      29114.584      439.44095      13769.38       1.5642677      0.87375049   
     40500  -10165.78      -10291.503      125.72302      27265.36       450.50283      13762.727      1.5650239      0.87375049   
     40600  -10165.553     -10293.755      128.20239      28588.481      459.38713      13768.547      1.5643623      0.87375049   
     40700  -10168.817     -10294.266      125.4488       28120.857      449.52023      13784.119      1.5625951      0.87375049   
     40800  -10167.485     -10291.124      123.63912      30480.451      443.03559      13801.895      1.5605825      0.87375049   
     40900  -10172.241     -10296.624      124.38286      28276.417      445.70064      13819.105      1.558639       0.87375049   
     41000  -10171.719     -10295.862      124.14304      27173.547      444.84131      13829.376      1.5574814      0.93098281   
     41100  -10173.633     -10298.161      124.52706      25757.828      446.21736      13830.575      1.5573464      0.93098281   
     41200  -10170.249     -10292.102      121.85324      30019.573      436.63628      13821.189      1.558404       0.93098281   
     41300  -10167.629     -10291.281      123.6515       28444.056      443.07997      13804.492      1.560289       0.93098281   
     41400  -10168.261     -10290.635      122.37394      27896.958      438.50207      13785.165      1.5624765      0.93098281   
     41500  -10167.749     -10293.358      125.60851      31136.655      450.09251      13767.036      1.5645341      0.93098281   
     41600  -10168.257     -10295.786      127.52892      30861.61       456.97391      13754.914      1.5659128      0.93098281   
     41700  -10167.274     -10292.926      125.65182      35338.06       450.2477       13753.009      1.5661298      0.93098281   
     41800  -10168.442     -10292.245      123.803        33501.8        443.62284      13762.045      1.5651014      0.93098281   
     41900  -10172.01      -10298.139      126.1295       31099.247      451.95938      13780.774      1.5629744      0.93098281   
     42000  -10171.682     -10295.557      123.87425      29219.573      443.87814      13800.925      1.5606922      0.85271526   
     42100  -10169.617     -10295.417      125.80014      27271.552      450.77919      13820.238      1.5585112      0.85271526   
     42200  -10170.477     -10295.233      124.75605      28986.486      447.03788      13836.757      1.5566506      0.85271526   
     42300  -10169.988     -10293.62       123.63206      28025.861      443.01031      13847.962      1.5553911      0.85271526   
     42400  -10170.571     -10292.293      121.72181      29922.301      436.16533      13852.911      1.5548354      0.85271526   
     42500  -10171.013     -10295.383      124.36988      30731.951      445.65415      13851.358      1.5550098      0.85271526   
     42600  -10171.728     -10296.832      125.10365      32078.895      448.28343      13840.966      1.5561772      0.85271526   
     42700  -10168.602     -10292.591      123.9891       31381.222      444.28968      13826.529      1.5578022      0.85271526   
     42800  -10167.864     -10293.705      125.84108      29763.464      450.92586      13813.936      1.5592222      0.85271526   
     42900  -10167.88      -10292.544      124.66459      30649.143      446.71016      13806.137      1.5601031      0.85271526   
     43000  -10166.304     -10294.402      128.09766      32478.528      459.01186      13805.085      1.560222       0.83254959   
     43100  -10164.906     -10291.678      126.7713       34126.247      454.25911      13811.215      1.5595294      0.83254959   
     43200  -10165.473     -10292.849      127.37612      28316.065      456.42639      13829.143      1.5575077      0.83254959   
     43300  -10165.794     -10291.371      125.57752      32460.053      449.98146      13853.402      1.5547802      0.83254959   
     43400  -10164.554     -10292.183      127.62887      32551.687      457.33204      13880.168      1.5517821      0.83254959   
     43500  -10166.567     -10291.403      124.83552      34342.846      447.32264      13900.545      1.5495073      0.83254959   
     43600  -10168.904     -10293.266      124.36196      30720.804      445.62574      13911.062      1.5483359      0.83254959   
     43700  -10169.294     -10292.577      123.28357      30847.576      441.76157      13909.48       1.5485119      0.83254959   
     43800  -10168.981     -10293.067      124.08555      29015.665      444.6353       13900.397      1.5495239      0.83254959   
     43900  -10169.565     -10293.97       124.40431      28776.791      445.7775       13884.231      1.551328       0.83254959   
     44000  -10168.341     -10290.445      122.10435      30529.849      437.53605      13861.578      1.5538632      0.98020123   
     44100  -10169.056     -10293.15       124.09355      30609.285      444.66396      13841.012      1.556172       0.98020123   
     44200  -10170.276     -10289.422      119.14586      32909.231      426.9349       13825.359      1.557934       0.98020123   
     44300  -10169.829     -10294.076      124.24703      32575.564      445.21393      13816.557      1.5589265      0.98020123   
     44400  -10166.27      -10293.116      126.84637      30949.121      454.52812      13811.564      1.5594901      0.98020123   
     44500  -10172.493     -10297.341      124.84861      30034.95       447.36957      13812.78       1.5593527      0.98020123   
     44600  -10168.771     -10291.288      122.51694      32929.939      439.0145       13816.716      1.5589086      0.98020123   
     44700  -10170.042     -10291.352      121.30976      26930.441      434.68881      13826.374      1.5578196      0.98020123   
     44800  -10168.235     -10292.102      123.86729      28605.417      443.85321      13840.938      1.5561804      0.98020123   
     44900  -10166.625     -10296.055      129.42978      31223.612      463.78527      13856.057      1.5544823      0.98020123   
     45000  -10167.149     -10293.068      125.91836      30324.004      451.20279      13868.788      1.5530554      0.82613928   
     45100  -10166.73      -10295.723      128.99263      29774.509      462.2188       13880.765      1.5517154      0.82613928   
     45200  -10165.39      -10288.898      123.50826      34736.889      442.56668      13886.678      1.5510546      0.82613928   
     45300  -10163.27      -10290.017      126.74728      28282.119      454.17307      13890.278      1.5506527      0.82613928   
     45400  -10166.411     -10291.472      125.06055      28995.302      448.129        13891.253      1.5505439      0.82613928   
     45500  -10167.728     -10291.641      123.9128       27904.384      444.01626      13887.651      1.550946       0.82613928   
     45600  -10164.951     -10292.193      127.24259      32623.117      455.9479       13876.381      1.5522056      0.82613928   
     45700  -10168.217     -10293.821      125.60418      31537.699      450.07698      13859.276      1.5541214      0.82613928   
     45800  -10169.533     -10290.912      121.37925      30750.08       434.93781      13838.272      1.5564802      0.82613928   
     45900  -10168.687     -10295.578      126.89035      28314.7        454.6857       13814.151      1.559198       0.82613928   
     46000  -10165.862     -10292.166      126.30363      30190.396      452.58333      13791.624      1.5617448      0.84599074   
     46100  -10166.935     -10292.151      125.2159       30428.293      448.68567      13777.021      1.5634001      0.84599074   
     46200  -10165.576     -10289.952      124.37657      32580.436      445.67811      13772.893      1.5638687      0.84599074   
     46300  -10168.856     -10294.419      125.56342      29903.921      449.93093      13780.887      1.5629615      0.84599074   
     46400  -10169.017     -10293.688      124.67128      31440.086      446.73412      13797.904      1.5610339      0.84599074   
     46500  -10171.95      -10293.303      121.35359      29962.56       434.84586      13819.824      1.5585579      0.84599074   
     46600  -10172.826     -10294.564      121.73842      28999.882      436.22481      13841.786      1.5560851      0.84599074   
     46700  -10172.733     -10295.205      122.472        28186.023      438.85348      13860.71       1.5539605      0.84599074   
     46800  -10174.347     -10296.192      121.84555      25738.931      436.60871      13872.372      1.5526542      0.84599074   
     46900  -10177.458     -10296.07       118.61133      27629.41       425.01954      13872.556      1.5526336      0.84599074   
     47000  -10177.712     -10296.245      118.5335       27417.162      424.74067      13857.943      1.5542708      0.82500918   
     47100  -10175.237     -10296.974      121.73725      29879.946      436.22065      13834.496      1.556905       0.82500918   
     47200  -10169.62      -10293.068      123.44841      35911.92       442.35222      13805.442      1.5601816      0.82500918   
     47300  -10170.415     -10294.125      123.7092       33412.28       443.28673      13783.089      1.5627119      0.82500918   
     47400  -10171.388     -10295.021      123.63351      31992.365      443.01551      13771.329      1.5640463      0.82500918   
     47500  -10170.638     -10294.45       123.81196      30736.414      443.65494      13772.066      1.5639626      0.82500918   
     47600  -10172.79      -10296.579      123.78951      33803.047      443.57451      13787.198      1.5622461      0.82500918   
     47700  -10173.032     -10294.821      121.78906      30214.857      436.40628      13810.59       1.5596         0.82500918   
     47800  -10170.94      -10295.298      124.35809      33796.126      445.61189      13838.908      1.5564087      0.82500918   
     47900  -10168.399     -10294.241      125.84247      31907.025      450.93087      13866.193      1.5533461      0.82500918   
     48000  -10168.72      -10292.509      123.78937      30546.13       443.574        13890.703      1.5506052      0.8281839    
     48100  -10169.164     -10295.351      126.18648      28797.674      452.16354      13906.87       1.5488026      0.8281839    
     48200  -10166.769     -10290.153      123.38331      30100.943      442.11896      13910.272      1.5484239      0.8281839    
     48300  -10169.085     -10296.908      127.82223      28415.758      458.02493      13904.935      1.5490181      0.8281839    
     48400  -10168.144     -10295.366      127.22255      30888.481      455.87609      13885.072      1.551234       0.8281839    
     48500  -10167.035     -10294.763      127.72806      33275.967      457.68749      13855.758      1.5545159      0.8281839    
     48600  -10166.237     -10291.046      124.8089       31890.821      447.22727      13823.23       1.5581739      0.8281839    
     48700  -10164.659     -10292.731      128.07276      33824.235      458.92265      13794.674      1.5613995      0.8281839    
     48800  -10165.913     -10291.625      125.7126       33427.419      450.46548      13773.801      1.5637657      0.8281839    
     48900  -10163.287     -10295.938      132.65136      34109.256      475.32913      13761.912      1.5651166      0.8281839    
     49000  -10165.959     -10291.535      125.57611      33549.731      449.97642      13760.595      1.5652663      0.85697274   
     49100  -10164.914     -10290.979      126.06515      28102.875      451.72877      13776.132      1.563501       0.85697274   
     49200  -10169.059     -10289.852      120.79346      28815.561      432.83876      13805.998      1.5601188      0.85697274   
     49300  -10170.164     -10294.343      124.17907      27100.238      444.97039      13841.609      1.556105       0.85697274   
     49400  -10170.378     -10293.156      122.77791      26734.83       439.94964      13873.237      1.5525574      0.85697274   
     49500  -10171.273     -10294.335      123.06232      27987.122      440.96877      13894.582      1.5501723      0.85697274   
     49600  -10170.067     -10293.668      123.60073      30413.319      442.89803      13899.826      1.5495875      0.85697274   
     49700  -10169.565     -10295.275      125.71059      27360.993      450.45828      13883.91       1.5513639      0.85697274   
     49800  -10168.075     -10293.056      124.98119      30243.105      447.84465      13850.364      1.5551214      0.85697274   
     49900  -10170.982     -10296.608      125.6254       32647.034      450.15304      13809.443      1.5597296      0.85697274   
     50000  -10174.334     -10295.363      121.0282       32497.777      433.67991      13763.83       1.5648985      0.84439298   
     50100  -10171.553     -10294.89       123.33749      32695.749      441.95477      13721.999      1.569669       0.84439298   
     50200  -10165.961     -10292.89       126.92974      34982.421      454.82688      13694.722      1.5727954      0.84439298   
     50300  -10162.722     -10288.453      125.73083      32544.514      450.5308       13691.487      1.5731671      0.84439298   
     50400  -10163.054     -10289.696      126.64172      30309.442      453.79479      13717.833      1.5701457      0.84439298   
     50500  -10165.25      -10292.11       126.85985      29452.45       454.57643      13767.69       1.5644597      0.84439298   
     50600  -10165.536     -10290.041      124.50554      29124.713      446.14024      13828.041      1.5576318      0.84439298   
     50700  -10165.495     -10292.615      127.11967      27647.269      455.50744      13887.521      1.5509605      0.84439298   
     50800  -10168.029     -10294.463      126.43411      27660.616      453.05088      13933.508      1.5458416      0.84439298   
     50900  -10169.605     -10294.417      124.81138      26126.118      447.23617      13951.145      1.5438874      0.84439298   
     51000  -10170.421     -10293.593      123.17192      25148.691      441.36147      13940.105      1.5451101      0.84851791   
     51100  -10167.182     -10296.954      129.77182      27978.807      465.01088      13903.554      1.549172       0.84851791   
     51200  -10169.724     -10294.422      124.69762      29588.998      446.82851      13849.281      1.555243       0.84851791   
     51300  -10166.112     -10294.264      128.15216      32496.748      459.20715      13793.16       1.5615708      0.84851791   
     51400  -10165.636     -10292.596      126.95964      31589.021      454.93401      13748.414      1.5666532      0.84851791   
     51500  -10164.011     -10289.333      125.32258      32607.647      449.06794      13718.978      1.5700147      0.84851791   
     51600  -10163.28      -10291.147      127.86677      31695.707      458.18453      13712.908      1.5707096      0.84851791   
     51700  -10166.594     -10288.84       122.24586      30808.223      438.04315      13727.67       1.5690205      0.84851791   
     51800  -10167.504     -10290.145      122.64166      29030.976      439.46142      13755.326      1.565866       0.84851791   
     51900  -10168.173     -10292.82       124.64684      28585.602      446.64657      13790.526      1.5618691      0.84851791   
     52000  -10169.547     -10296.588      127.04138      27900.876      455.22691      13823.464      1.5581476      0.91320742   
     52100  -10169.676     -10291.614      121.93769      30543.859      436.93888      13848.869      1.5552892      0.91320742   
     52200  -10166.554     -10293.651      127.09744      28648.604      455.42778      13865.053      1.5534737      0.91320742   
     52300  -10164.848     -10291.443      126.59451      28861.861      453.62565      13870.734      1.5528376      0.91320742   
     52400  -10164.37      -10291.525      127.15481      29947.742      455.63336      13865.997      1.553368       0.91320742   
     52500  -10161.003     -10290.72       129.71758      28872.599      464.81652      13852.385      1.5548944      0.91320742   
     52600  -10161.437     -10292.121      130.68399      28504.511      468.27947      13834.295      1.5569277      0.91320742   
     52700  -10161.235     -10290.094      128.85903      27763.666      461.74009      13817.777      1.5587889      0.91320742   
     52800  -10164.339     -10290.692      126.35255      28315.82       452.75863      13808.558      1.5598295      0.91320742   
     52900  -10163.98      -10291.328      127.34802      31636.703      456.32569      13805.504      1.5601746      0.91320742   
     53000  -10163.138     -10292.754      129.61555      32264.713      464.45092      13809.287      1.5597472      0.89468779   
     53100  -10160.184     -10291.232      131.04841      30758.31       469.58527      13818.245      1.558736       0.89468779   
     53200  -10159.595     -10285.203      125.60804      31478.399      450.09082      13829.278      1.5574925      0.89468779   
     53300  -10159.728     -10290.166      130.43751      27721.395      467.39624      13845.644      1.5556515      0.89468779   
     53400  -10160.219     -10290.593      130.37402      29250.224      467.16873      13863.324      1.5536675      0.89468779   
     53500  -10167.656     -10293.068      125.41211      26213.765      449.38876      13879.904      1.5518116      0.89468779   
     53600  -10169.544     -10296.767      127.22267      25535.007      455.87654      13883.037      1.5514614      0.89468779   
     53700  -10168.993     -10293.855      124.86231      27665.002      447.41865      13868.136      1.5531285      0.89468779   
     53800  -10167.695     -10294.781      127.08613      28187.91       455.38724      13836.79       1.5566469      0.89468779   
     53900  -10165.275     -10291.812      126.53696      31872.35       453.41942      13797.253      1.5611076      0.89468779   
     54000  -10165.919     -10292.874      126.95488      30015.995      454.91693      13760.701      1.5652543      0.83525767   
     54100  -10166.39      -10291.068      124.67791      28867.866      446.7579       13733.722      1.5683291      0.83525767   
     54200  -10165.054     -10293.078      128.02366      31610.539      458.7467       13721.075      1.5697747      0.83525767   
     54300  -10163.368     -10290.42       127.05203      31854.293      455.26506      13724.933      1.5693334      0.83525767   
     54400  -10160.922     -10287.167      126.24504      30947.641      452.37337      13747.189      1.5667928      0.83525767   
     54500  -10162.087     -10289.86       127.77303      26957.73       457.84863      13788.054      1.5621491      0.83525767   
     54600  -10164.864     -10288.859      123.99486      29462.482      444.31033      13836.254      1.5567072      0.83525767   
     54700  -10168.214     -10295.867      127.65251      28263.842      457.41677      13880.134      1.5517859      0.83525767   
     54800  -10165.514     -10292.309      126.79478      29837.42       454.34325      13907.987      1.5486782      0.83525767   
     54900  -10167.305     -10294.629      127.32352      26705.905      456.23789      13919.778      1.5473663      0.83525767   
     55000  -10168         -10292.85       124.85033      26293.232      447.37571      13911.343      1.5483046      0.85353726   
     55100  -10168.753     -10294.59       125.83723      27348.623      450.91209      13882.777      1.5514905      0.85353726   
     55200  -10168.68      -10295.363      126.68333      26521.995      453.94389      13837.921      1.5565197      0.85353726   
     55300  -10169.085     -10294.651      125.56619      26841.706      449.94087      13782.215      1.562811       0.85353726   
     55400  -10169.517     -10292.823      123.30546      31740.183      441.83999      13725.07       1.5693177      0.85353726   
     55500  -10168.965     -10291.996      123.03075      32835.053      440.85564      13680.568      1.5744227      0.85353726   
     55600  -10170.08      -10293.977      123.89688      31580.68       443.95923      13653.634      1.5775284      0.85353726   
     55700  -10169.459     -10291.084      121.62489      32347.581      435.818        13646.539      1.5783486      0.85353726   
     55800  -10167.382     -10291.573      124.19057      33987.875      445.0116       13667.469      1.5759316      0.85353726   
     55900  -10168.86      -10292.323      123.46316      30302.938      442.4051       13709.077      1.5711485      0.85353726   
     56000  -10169.616     -10297.387      127.77051      30263.619      457.83958      13761.427      1.5651717      0.83960435   
     56100  -10171.821     -10294.131      122.31031      29069.799      438.27409      13809.463      1.5597273      0.83960435   
     56200  -10171.542     -10294.818      123.27619      26036.881      441.73511      13845.104      1.5557121      0.83960435   
     56300  -10169.959     -10294.209      124.25058      24783.938      445.22663      13863.46       1.5536523      0.83960435   
     56400  -10172.29      -10297.733      125.44263      28320.524      449.49811      13858.697      1.5541863      0.83960435   
     56500  -10172.209     -10294.862      122.65323      32048.242      439.50287      13832.776      1.5570986      0.83960435   
     56600  -10172.355     -10294.847      122.49136      29932.763      438.92284      13793.994      1.5614765      0.83960435   
     56700  -10171.828     -10299.721      127.89318      27482.894      458.27915      13752.085      1.566235       0.83960435   
     56800  -10168.555     -10293.933      125.37716      30178.163      449.26352      13709.021      1.571155       0.83960435   
     56900  -10169.264     -10294.477      125.21289      31581.286      448.6749       13678.008      1.5747174      0.83960435   
[...]
    842800  -10159.66      -10289.552      129.89189      31546.896      465.44111      13882.83       1.5514846      0.84471299   
    842900  -10157.527     -10283.487      125.95931      30493.863      451.34954      13847.259      1.5554701      0.84471299   
    843000  -10164.226     -10291.502      127.27603      30393.549      456.06774      13818.4        1.5587185      0.83863762   
    843100  -10162.281     -10292.398      130.1177       33184.955      466.25026      13795.706      1.5612826      0.83863762   
    843200  -10158.884     -10292.423      133.53907      31466.688      478.51006      13788.125      1.5621411      0.83863762   
    843300  -10161.544     -10292.477      130.93281      32186.601      469.17103      13800.033      1.5607931      0.83863762   
    843400  -10166.04      -10293.263      127.22342      32481.758      455.87921      13825.675      1.5578983      0.83863762   
    843500  -10171.469     -10296.551      125.0818       34305.664      448.20515      13859.095      1.5541417      0.83863762   
    843600  -10173.466     -10296.321      122.85505      30140.059      440.22605      13886.854      1.551035       0.83863762   
    843700  -10171.324     -10292.762      121.43758      32126.022      435.14683      13901.536      1.5493969      0.83863762   
    843800  -10169.517     -10293.195      123.67775      30645.177      443.17401      13901.641      1.5493852      0.83863762   
    843900  -10170.014     -10296.134      126.1197       28867.248      451.92424      13888.315      1.5508719      0.83863762   
    844000  -10170.611     -10297.953      127.3417       28302.093      456.30305      13861.801      1.5538383      0.85426592   
    844100  -10168.969     -10294.909      125.94063      35509.835      451.28259      13825.801      1.5578841      0.85426592   
    844200  -10168.73      -10294.614      125.88404      32403.351      451.07982      13788.22       1.5621303      0.85426592   
    844300  -10170.518     -10293.111      122.593        33605.746      439.28703      13757.568      1.5656108      0.85426592   
    844400  -10168.38      -10294.499      126.11896      30506.538      451.9216       13741.07       1.5674905      0.85426592   
    844500  -10169.099     -10293.624      124.52536      30239.256      446.21125      13739.605      1.5676576      0.85426592   
    844600  -10169.334     -10295.046      125.7126       31224.824      450.46549      13754.903      1.5659141      0.85426592   
    844700  -10169.702     -10297.258      127.55649      29050.346      457.0727       13785.899      1.5623933      0.85426592   
    844800  -10171.039     -10293.945      122.90616      30028.732      440.40917      13825.568      1.5579104      0.85426592   
    844900  -10172.594     -10295.758      123.16367      29966.708      441.33191      13862.51       1.5537588      0.85426592   
    845000  -10169.678     -10295.075      125.39643      30418.225      449.33255      13886.995      1.5510193      0.85188152   
    845100  -10170.774     -10295.412      124.63869      24386.807      446.61734      13895.404      1.5500806      0.85188152   
    845200  -10171.168     -10294.245      123.07732      28600.822      441.02249      13883.135      1.5514505      0.85188152   
    845300  -10171.06      -10293.151      122.09144      28815.26       437.48979      13853.138      1.5548099      0.85188152   
    845400  -10171.452     -10295.866      124.4141       31904.997      445.81258      13812.645      1.559368       0.85188152   
    845500  -10171.019     -10294.888      123.86899      35101.446      443.85929      13773.198      1.563834       0.85188152   
    845600  -10171.577     -10294.488      122.91116      32264.834      440.42711      13741.149      1.5674815      0.85188152   
    845700  -10168.733     -10292.414      123.68049      33065.29       443.18384      13717.807      1.5701487      0.85188152   
    845800  -10167.763     -10291.27       123.5068       35406.562      442.56144      13711.867      1.5708289      0.85188152   
    845900  -10167.6       -10294.46       126.85988      29471.691      454.57655      13727.989      1.5689841      0.85188152   
    846000  -10167.067     -10294.014      126.94617      30517.091      454.88572      13762.256      1.5650774      0.81381864   
    846100  -10164.134     -10289.961      125.82725      32114.69       450.87631      13811.687      1.5594762      0.81381864   
    846200  -10166.331     -10291.594      125.26301      31764.1        448.85449      13868.424      1.5530962      0.81381864   
    846300  -10165.163     -10289.178      124.01539      29900.89       444.38387      13917.831      1.5475828      0.81381864   
    846400  -10167.022     -10294.643      127.62111      29339.697      457.30426      13947.016      1.5443444      0.81381864   
    846500  -10168.702     -10293.036      124.33374      29072.459      445.52462      13947.571      1.5442829      0.81381864   
    846600  -10169.231     -10295.014      125.78323      29237.98       450.71857      13925.633      1.5467158      0.81381864   
    846700  -10166.981     -10293.195      126.21429      30346.049      452.2632       13889.086      1.5507857      0.81381864   
    846800  -10168.75      -10292.335      123.58435      29049.644      442.83936      13844.947      1.5557298      0.81381864   
    846900  -10167.587     -10297.092      129.50526      28795.323      464.0557       13800.186      1.5607758      0.81381864   
    847000  -10171.622     -10295.387      123.7647       33312.933      443.48558      13760.937      1.5652275      0.85646093   
    847100  -10172.135     -10295.14       123.00481      34065.465      440.76269      13735.428      1.5681343      0.85646093   
    847200  -10172.099     -10294.735      122.63632      30552.702      439.44228      13725.688      1.5692471      0.85646093   
    847300  -10171.219     -10296.762      125.54239      33129.25       449.85557      13731.628      1.5685683      0.85646093   
    847400  -10169.509     -10294.984      125.47508      32581.623      449.61438      13749.242      1.5665588      0.85646093   
    847500  -10172.166     -10294.23       122.06432      29594.227      437.39263      13782.064      1.5628281      0.85646093   
    847600  -10170.165     -10294.481      124.31659      26913.119      445.46319      13820.594      1.5584711      0.85646093   
    847700  -10169.082     -10295.571      126.48919      27733.302      453.24823      13857.514      1.5543189      0.85646093   
    847800  -10166.241     -10292.988      126.74624      26938.433      454.16932      13885.627      1.5511721      0.85646093   
    847900  -10164.418     -10289.186      124.76831      27666.735      447.08184      13901.37       1.5494154      0.85646093   
    848000  -10163.82      -10290.971      127.15145      24809.923      455.62132      13906.469      1.5488473      0.85738002   
    848100  -10165.94      -10293.674      127.73486      29146.263      457.71185      13898.069      1.5497834      0.85738002   
    848200  -10165.963     -10291.006      125.04329      27307.573      448.06714      13879.155      1.5518953      0.85738002   
    848300  -10167.326     -10293.799      126.47306      25844.54       453.19044      13854.004      1.5547127      0.85738002   
    848400  -10166.864     -10293.063      126.19887      27745.284      452.20795      13824.856      1.5579907      0.85738002   
    848500  -10164.891     -10293.567      128.67668      29500.798      461.08668      13795.857      1.5612656      0.85738002   
    848600  -10164.332     -10289.555      125.22302      27836.819      448.71119      13772.303      1.5639357      0.85738002   
    848700  -10163.76      -10293.609      129.84982      31784.554      465.29038      13760.133      1.5653189      0.85738002   
    848800  -10162.671     -10290.079      127.40797      34359.43       456.5405       13761.741      1.565136       0.85738002   
    848900  -10161.432     -10289.133      127.70071      33784.26       457.58948      13778.723      1.563207       0.85738002   
    849000  -10162.53      -10289.003      126.4734       30100.525      453.19166      13806.321      1.5600822      0.91483047   
    849100  -10163.405     -10290.258      126.85289      30587.22       454.55149      13844.242      1.555809       0.91483047   
    849200  -10164.058     -10292.174      128.11627      29092.465      459.07856      13886.633      1.5510597      0.91483047   
    849300  -10165.53      -10288.57       123.04077      25990.189      440.89152      13917.48       1.5476218      0.91483047   
    849400  -10165.596     -10292.753      127.15669      26046.801      455.6401       13935.79       1.5455885      0.91483047   
    849500  -10169.826     -10294.875      125.04869      25029.768      448.08652      13934.29       1.5457548      0.91483047   
    849600  -10173.263     -10298.92       125.65651      30834.933      450.26452      13909.259      1.5485366      0.91483047   
    849700  -10173.869     -10297.671      123.80243      30469.313      443.62077      13861.519      1.5538698      0.91483047   
    849800  -10167.015     -10290.441      123.42602      29092.121      442.27199      13799.197      1.5608877      0.91483047   
    849900  -10169.033     -10292.23       123.19713      28418.946      441.45182      13742.885      1.5672835      0.91483047   
    850000  -10170.097     -10293.82       123.72271      31154.955      443.33512      13702.449      1.5719086      0.83916317   
    850100  -10169.638     -10294.636      124.99763      31237.982      447.90355      13686.346      1.573758       0.83916317   
    850200  -10170.032     -10291.654      121.62163      30984.324      435.80633      13695.203      1.5727402      0.83916317   
    850300  -10170.732     -10294.177      123.44483      29429.812      442.33939      13725.578      1.5692597      0.83916317   
    850400  -10168.073     -10291.87       123.79728      27746.189      443.60234      13770.982      1.5640857      0.83916317   
    850500  -10168.846     -10295.876      127.03037      27710.847      455.18745      13825.467      1.5579218      0.83916317   
    850600  -10169.437     -10295.813      126.37569      28745.403      452.84155      13875.171      1.552341       0.83916317   
    850700  -10169.965     -10293.952      123.9871       30795.304      444.28251      13912.395      1.5481875      0.83916317   
    850800  -10168.618     -10292.641      124.02314      30863.998      444.41167      13929.258      1.5463132      0.83916317   
    850900  -10167.161     -10293.633      126.47213      29871.756      453.18712      13924.913      1.5467957      0.83916317   
    851000  -10171.044     -10294.947      123.90269      28687.308      443.98004      13900.432      1.5495199      0.91689288   
    851100  -10170.124     -10293.606      123.48214      28221.662      442.4731       13861.936      1.5538231      0.91689288   
    851200  -10166.702     -10291.888      125.18601      28780.989      448.57857      13817.703      1.5587972      0.91689288   
    851300  -10162.917     -10290.493      127.57661      29823.665      457.14479      13781.932      1.5628431      0.91689288   
    851400  -10160.909     -10288.998      128.08972      32175.032      458.98341      13766.437      1.5646021      0.91689288   
    851500  -10160.577     -10287.546      126.96914      32103.859      454.96803      13773.283      1.5638245      0.91689288   
    851600  -10161.566     -10291.665      130.09962      32608.278      466.1855       13799.766      1.5608233      0.91689288   
    851700  -10163.891     -10291.463      127.57251      32036.327      457.1301       13840.332      1.5562486      0.91689288   
    851800  -10166.416     -10293.541      127.125        29639.748      455.52652      13882.038      1.5515731      0.91689288   
    851900  -10164.426     -10292.795      128.36833      31658.773      459.98174      13919.191      1.5474316      0.91689288   
    852000  -10163.327     -10292.823      129.49586      29210.956      464.02203      13947.429      1.5442988      0.80485082   
    852100  -10165.993     -10294.501      128.50731      29111.845      460.47975      13962.718      1.5426077      0.80485082   
    852200  -10168.496     -10293.128      124.63225      25832.089      446.59429      13960.395      1.5428645      0.80485082   
    852300  -10167.654     -10290.831      123.17664      30243.176      441.37841      13940.096      1.5451111      0.80485082   
    852400  -10167.952     -10291.367      123.41486      32147.512      442.23199      13903.854      1.5491386      0.80485082   
    852500  -10168.919     -10293.351      124.43219      30214.379      445.8774       13858.631      1.5541937      0.80485082   
    852600  -10166.317     -10291.121      124.80422      32098.27       447.21048      13813.237      1.5593012      0.80485082   
    852700  -10170.122     -10294.619      124.49703      30007.294      446.10976      13781.251      1.5629202      0.80485082   
    852800  -10172.56      -10294.043      121.48351      29693.702      435.31139      13763.096      1.5649819      0.80485082   
    852900  -10167.67      -10291.018      123.34806      31676.566      441.99265      13759.461      1.5653954      0.80485082   
    853000  -10169.705     -10293.408      123.70329      31753.222      443.26552      13770.633      1.5641254      0.84369603   
    853100  -10166.132     -10291.354      125.22166      34440.241      448.7063       13796.983      1.5611381      0.84369603   
    853200  -10168.417     -10295.122      126.70435      31421.958      454.01923      13834.415      1.5569142      0.84369603   
    853300  -10168.281     -10293.811      125.53035      28316.406      449.81245      13872.577      1.5526312      0.84369603   
    853400  -10169.932     -10292.032      122.1006       31324.593      437.52264      13905.849      1.5489163      0.84369603   
    853500  -10171.834     -10298.928      127.09412      28536.692      455.41589      13929.581      1.5462774      0.84369603   
    853600  -10172.264     -10294.114      121.84965      29853.764      436.62341      13933.415      1.5458519      0.84369603   
    853700  -10173.943     -10298.667      124.72421      27896.453      446.92381      13921.174      1.5472112      0.84369603   
    853800  -10173.563     -10297.69       124.12704      28182.987      444.78395      13891.064      1.5505649      0.84369603   
    853900  -10174.543     -10297.618      123.07446      31753.152      441.01225      13847.193      1.5554774      0.84369603   
    854000  -10172.34      -10295.907      123.5668       26998.448      442.77646      13799.968      1.5608005      0.87940643   
    854100  -10168.277     -10293.003      124.72542      29564.557      446.92814      13757.02       1.5656731      0.87940643   
    854200  -10171.788     -10294.547      122.75919      28230.549      439.88254      13729.048      1.568863       0.87940643   
    854300  -10173.849     -10297.513      123.66316      29065.176      443.12174      13719.715      1.5699303      0.87940643   
    854400  -10170.747     -10293.403      122.65589      33496.573      439.5124       13723.707      1.5694736      0.87940643   
    854500  -10172.108     -10298.909      126.80191      30857.646      454.3688       13745.517      1.5669833      0.87940643   
    854600  -10171.109     -10294.283      123.1736       30753.621      441.36751      13780.438      1.5630125      0.87940643   
    854700  -10173.749     -10294.536      120.78738      28043.339      432.81696      13826.673      1.5577859      0.87940643   
    854800  -10172.684     -10292.141      119.45634      28759.724      428.04747      13871.899      1.5527071      0.87940643   
    854900  -10173.191     -10296.048      122.85755      28939.419      440.235        13909.084      1.5485561      0.87940643   
    855000  -10172.168     -10295.209      123.04098      27614.752      440.89227      13928.068      1.5464454      0.86982351   
    855100  -10173.554     -10299.202      125.64867      22828.069      450.23642      13923.041      1.5470037      0.86982351   
    855200  -10171.839     -10293.952      122.11286      28096.484      437.56657      13890.298      1.5506505      0.86982351   
    855300  -10168.652     -10294.265      125.6134       32558.964      450.11002      13839.541      1.5563375      0.86982351   
    855400  -10167.42      -10292.689      125.26984      31995.711      448.87894      13786.827      1.5622882      0.86982351   
    855500  -10165.052     -10293.807      128.75512      31824.332      461.36775      13746.097      1.5669172      0.86982351   
    855600  -10163.9       -10291.414      127.5144       33054.992      456.92188      13718.847      1.5700297      0.86982351   
    855700  -10162.69      -10287.37       124.6799       31476.008      446.76502      13711.166      1.5709091      0.86982351   
    855800  -10161.345     -10288.651      127.30675      30841.442      456.1778       13736.535      1.568008       0.86982351   
    855900  -10164.707     -10292.726      128.01899      29611.611      458.72996      13783.027      1.5627189      0.86982351   
    856000  -10164.229     -10290.157      125.92887      31426.139      451.24045      13843.767      1.5558624      0.85016727   
    856100  -10163.198     -10292.112      128.91445      31218.719      461.93866      13910.454      1.5484036      0.85016727   
    856200  -10165.079     -10292.646      127.56736      30659.863      457.11166      13970.54       1.5417441      0.85016727   
    856300  -10163.186     -10290.43       127.24425      27668.811      455.95385      14010.246      1.5373746      0.85016727   
    856400  -10166.01      -10292.47       126.45928      22743.434      453.14107      14023.142      1.5359608      0.85016727   
    856500  -10164.113     -10290.386      126.27333      25392.026      452.47475      14002.767      1.5381957      0.85016727   
    856600  -10165.32      -10292.368      127.04814      27965.817      455.25112      13953.077      1.5436736      0.85016727   
    856700  -10162.658     -10291.156      128.49738      32948.25       460.44418      13883.752      1.5513815      0.85016727   
    856800  -10162.254     -10289.35       127.09658      33109.292      455.42472      13813.228      1.5593021      0.85016727   
    856900  -10160.185     -10288.738      128.55332      32954.174      460.64465      13753.187      1.5661094      0.85016727   
    857000  -10162.255     -10290.714      128.45922      33946.978      460.30744      13715.607      1.5704006      0.85896263   
    857100  -10165.037     -10291.838      126.8006       34296.515      454.3641       13702.47       1.5719061      0.85896263   
    857200  -10161.751     -10288.998      127.24701      32185.156      455.96374      13714.129      1.5705698      0.85896263   
    857300  -10163.744     -10288.12       124.37574      26869.094      445.67512      13750.405      1.5664263      0.85896263   
    857400  -10164.067     -10292.045      127.97811      27859.71       458.58349      13805.87       1.5601332      0.85896263   
    857500  -10171.752     -10292.763      121.01135      28124.05       433.61953      13862.651      1.553743       0.85896263   
    857600  -10170.19      -10293.444      123.25377      27370.637      441.65476      13905.038      1.5490067      0.85896263   
    857700  -10168.608     -10294.676      126.06758      26921.696      451.73749      13922.799      1.5470306      0.85896263   
    857800  -10169.228     -10292.813      123.58548      27372.847      442.84338      13914.979      1.5479         0.85896263   
