LAMMPS (27 Jun 2024)
KOKKOS mode with Kokkos version 4.3.1 is enabled (src/KOKKOS/kokkos.cpp:72)
  will use up to 1 GPU(s) per node
WARNING: When using a single thread, the Kokkos Serial backend (i.e. Makefile.kokkos_mpi_only) gives better performance than the OpenMP backend (src/KOKKOS/kokkos.cpp:202)
  using 1 OpenMP thread(s) per MPI task
package kokkos
package kokkos newton on neigh half

units		metal						## E in [eV], t in [ps], P in [10000 Pa], l in [A]
atom_style	atomic						## mass x y z vx vy vz

neighbor	0.5 bin						## neighbor list, skin = 0.5 Angstrom
neigh_modify	every 2 delay 10 check yes			## update of neighbor list

############################## main variables
variable        seed equal 67391

variable	temperature equal 410
variable	tempDamp equal 0.1

variable        pressure equal 15000
variable        pressureDamp equal 1.0 				# This is 1 ps

##############################

read_data water.dat
Reading data file ...
  orthogonal box = (0 0 0) to (20.676781 20.679892 34.741558)
  1 by 1 by 1 MPI processor grid
  reading atoms ...
  2160 atoms
  read_data CPU = 0.018 seconds

mass		1 1.008    # H
mass		2 15.9994  # O


pair_style	pace/extrapolation
ACE/AL version: 2023.11.25
pair_coeff	* * /pc2/users/a/acepdw01/work/phase_diagram/pot_dir/interim_potential_ladder_step_1.yaml /pc2/users/a/acepdw01/work/phase_diagram/pot_dir/interim_potential_ladder_step_1.asi H O
Loading /pc2/users/a/acepdw01/work/phase_diagram/pot_dir/interim_potential_ladder_step_1.yaml
Total number of basis functions
	H: 23 (r=1) 664 (r>1)
	O: 23 (r=1) 664 (r>1)
Mapping LAMMPS atom type #1(H) -> ACE species type #0
Mapping LAMMPS atom type #2(O) -> ACE species type #1
Loading ASI /pc2/users/a/acepdw01/work/phase_diagram/pot_dir/interim_potential_ladder_step_1.asi
LINEAR ASI is loaded

fix pace_gamma all pair 1000 pace/extrapolation gamma 1
compute max_pace_gamma all reduce max f_pace_gamma
variable dump_skip equal "c_max_pace_gamma < 10"

dump pace_dump all custom 1000 extrapolative_structures.dump id type x y z f_pace_gamma
dump_modify pace_dump skip v_dump_skip
dump_modify pace_dump element H O

variable max_pace_gamma equal c_max_pace_gamma

timestep	0.0005						## timestep = 0.0005*ps = 0.5 fs

thermo		100
thermo_style custom step etotal pe ke press temp vol density c_max_pace_gamma


min_style cg
minimize 0.0 5.0e-4 10000 100000

CITE-CITE-CITE-CITE-CITE-CITE-CITE-CITE-CITE-CITE-CITE-CITE-CITE

Your simulation uses code contributions which should be cited:

- Type Label Framework: https://doi.org/10.1021/acs.jpcb.3c08419

@Article{Gissinger24,
 author = {Jacob R. Gissinger, Ilia Nikiforov, Yaser Afshar, Brendon Waters, Moon-ki Choi, Daniel S. Karls, Alexander Stukowski, Wonpil Im, Hendrik Heinz, Axel Kohlmeyer, and Ellad B. Tadmor},
 title = {Type Label Framework for Bonded Force Fields in LAMMPS},
 journal = {J. Phys. Chem. B},
 year =    2024,
 volume =  128,
 number =  13,
 pages =   {3282–-3297}
}

CITE-CITE-CITE-CITE-CITE-CITE-CITE-CITE-CITE-CITE-CITE-CITE-CITE

Switching to 'neigh_modify every 1 delay 0 check yes' setting during minimization
Neighbor list info ...
  update: every = 1 steps, delay = 0 steps, check = yes
  max neighbors/atom: 2000, page size: 100000
  master list distance cutoff = 6.5
  ghost atom cutoff = 6.5
  binsize = 6.5, bins = 4 4 6
  1 neighbor lists, perpetual/occasional/extra = 1 0 0
  (1) pair pace/extrapolation/kk, perpetual
      attributes: full, newton on, kokkos_device
      pair build: full/bin/kk/device
      stencil: full/bin/3d
      bin: kk/device
WARNING: Fix with atom-based arrays not compatible with sending data in Kokkos communication, switching to classic exchange/border communication (src/KOKKOS/comm_kokkos.cpp:754)
WARNING: Fix with atom-based arrays not compatible with Kokkos sorting on device, switching to classic host sorting (src/KOKKOS/atom_kokkos.cpp:216)
Per MPI rank memory allocation (min/avg/max) = 1799 | 1799 | 1799 Mbytes
   Step         TotEng         PotEng         KinEng         Press           Temp          Volume        Density     c_max_pace_gamma
         0  -10206.521     -10206.521      0              12489.65       0              14855.268      1.4499231      0.79358458   
       100  -10390.639     -10390.639      0              5054.4886      0              14855.268      1.4499231      0.79358458   
       200  -10397.177     -10397.177      0              5613.326       0              14855.268      1.4499231      0.79358458   
       300  -10399.542     -10399.542      0              5717.0134      0              14855.268      1.4499231      0.79358458   
       400  -10400.167     -10400.167      0              5739.3373      0              14855.268      1.4499231      0.79358458   
       500  -10400.574     -10400.574      0              5820.0288      0              14855.268      1.4499231      0.79358458   
       600  -10400.645     -10400.645      0              5775.1915      0              14855.268      1.4499231      0.79358458   
       700  -10400.648     -10400.648      0              5772.6686      0              14855.268      1.4499231      0.79358458   
       800  -10400.866     -10400.866      0              5935.1398      0              14855.268      1.4499231      0.79358458   
       900  -10401.027     -10401.027      0              5872.5188      0              14855.268      1.4499231      0.79358458   
      1000  -10401.1       -10401.1        0              5930.7657      0              14855.268      1.4499231      0.83123644   
      1100  -10401.137     -10401.137      0              5920.8878      0              14855.268      1.4499231      0.83123644   
      1200  -10401.329     -10401.329      0              6033.7805      0              14855.268      1.4499231      0.83123644   
      1300  -10401.336     -10401.336      0              6030.8562      0              14855.268      1.4499231      0.83123644   
      1400  -10401.336     -10401.336      0              6028.9636      0              14855.268      1.4499231      0.83123644   
      1500  -10401.336     -10401.336      0              6029.3509      0              14855.268      1.4499231      0.83123644   
      1502  -10401.336     -10401.336      0              6029.3776      0              14855.268      1.4499231      0.83123644   
Loop time of 14.469 on 1 procs for 1502 steps with 2160 atoms

99.8% CPU use with 1 MPI tasks x 1 OpenMP threads

Minimization stats:
  Stopping criterion = force tolerance
  Energy initial, next-to-last, final = 
     -10206.5207972388  -10401.3363234124  -10401.3363234177
  Force two-norm initial, final = 90.511291 0.00048559241
  Force max component initial, final = 8.0356722 0.0001152943
  Final line search alpha, max atom move = 1 0.0001152943
  Iterations, force evaluations = 1502 2998

MPI task timing breakdown:
Section |  min time  |  avg time  |  max time  |%varavg| %total
---------------------------------------------------------------
Pair    | 13.329     | 13.329     | 13.329     |   0.0 | 92.12
Neigh   | 0.041333   | 0.041333   | 0.041333   |   0.0 |  0.29
Comm    | 0.091944   | 0.091944   | 0.091944   |   0.0 |  0.64
Output  | 0.002063   | 0.002063   | 0.002063   |   0.0 |  0.01
Modify  | 0.61471    | 0.61471    | 0.61471    |   0.0 |  4.25
Other   |            | 0.39       |            |       |  2.70

Nlocal:           2160 ave        2160 max        2160 min
Histogram: 1 0 0 0 0 0 0 0 0 0
Nghost:           5754 ave        5754 max        5754 min
Histogram: 1 0 0 0 0 0 0 0 0 0
Neighs:              0 ave           0 max           0 min
Histogram: 1 0 0 0 0 0 0 0 0 0
FullNghs:       363112 ave      363112 max      363112 min
Histogram: 1 0 0 0 0 0 0 0 0 0

Total # of neighbors = 363112
Ave neighs/atom = 168.10741
Neighbor list builds = 95
Dangerous builds = 0

################## equilibration of main calculation
# Equilibrate to specified number of ice

fix             1 all plumed plumedfile plumed.equil.dat outfile plumed.out
fix             3 all nph x ${pressure} ${pressure} ${pressureDamp}
fix             3 all nph x 15000 ${pressure} ${pressureDamp}
fix             3 all nph x 15000 15000 ${pressureDamp}
fix             3 all nph x 15000 15000 1
fix             4 all temp/csvr ${temperature} ${temperature} ${tempDamp} ${seed}
fix             4 all temp/csvr 410 ${temperature} ${tempDamp} ${seed}
fix             4 all temp/csvr 410 410 ${tempDamp} ${seed}
fix             4 all temp/csvr 410 410 0.1 ${seed}
fix             4 all temp/csvr 410 410 0.1 67391
velocity 	all create ${temperature} ${seed} dist gaussian
velocity 	all create 410 ${seed} dist gaussian
velocity 	all create 410 67391 dist gaussian

run 200000
WARNING: Fix with atom-based arrays not compatible with Kokkos sorting on device, switching to classic host sorting (src/KOKKOS/atom_kokkos.cpp:216)
Per MPI rank memory allocation (min/avg/max) = 1807 | 1807 | 1807 Mbytes
   Step         TotEng         PotEng         KinEng         Press           Temp          Volume        Density     c_max_pace_gamma
      1502  -10286.917     -10401.336      114.41979      64787.38       410            14855.268      1.4499231      0.83123644   
      1600  -9422.9777     -9559.3834      136.40573      210455.34      488.78216      14946.188      1.441103       0.83123644   
      1700  -9507.1328     -9734.2468      227.11395      233790.88      813.81658      15364.25       1.4018905      0.83123644   
      1800  -9623.3411     -9884.7407      261.3996       221151.15      936.6722       15799.292      1.3632887      0.83123644   
      1900  -9726.6419     -9948.2505      221.60861      210093.05      794.08931      16228.588      1.3272255      0.83123644   
      2000  -9796.5074     -9971.264       174.75656      185638.47      626.20452      16613.257      1.2964945      1.1056448    
      2100  -9853.029      -10033.22       180.1907       171716.04      645.67668      16985.713      1.2680655      1.1056448    
      2200  -9909.9358     -10091.02       181.08442      166579.26      648.87914      17352.271      1.2412782      1.1056448    
      2300  -9965.1648     -10128.973      163.80846      171385.79      586.97423      17705.826      1.2164921      1.1056448    
      2400  -10004.829     -10152.369      147.53973      162850.4       528.67856      18057.302      1.1928136      1.1056448    
      2500  -10041.764     -10181.687      139.92309      137795.18      501.38587      18392.751      1.171059       1.1056448    
      2600  -10066.399     -10197.78       131.3809       116413.89      470.77669      18696.546      1.1520308      1.1056448    
      2700  -10083.165     -10209.782      126.61701      90541.166      453.70624      18963.604      1.1358071      1.1056448    
      2800  -10093.007     -10213.574      120.56693      80993.386      432.02703      19193.725      1.1221895      1.1056448    
      2900  -10100.229     -10220.247      120.01857      67693.61       430.0621       19398.335      1.1103528      1.1056448    
      3000  -10111.429     -10226.211      114.78218      61853.976      411.29857      19580.926      1.0999989      0.970457     
      3100  -10113.499     -10228.328      114.82926      54315.289      411.46727      19743.701      1.09093        0.970457     
      3200  -10115.89      -10231.246      115.35649      54583.453      413.3565       19888.228      1.0830023      0.970457     
      3300  -10118.881     -10231.295      112.41424      44141.669      402.81351      20024.649      1.0756242      0.970457     
      3400  -10119.016     -10233.695      114.67884      42645.674      410.92827      20132.912      1.0698401      0.970457     
      3500  -10121.16      -10233.89       112.72935      38470.94       403.94267      20234.924      1.0644466      0.970457     
      3600  -10121.227     -10232.741      111.51454      36999.968      399.58965      20326.287      1.0596621      0.970457     
      3700  -10121.413     -10231.314      109.90161      33691.065      393.81004      20405.139      1.0555672      0.970457     
      3800  -10119.003     -10233.468      114.46492      36533.198      410.16172      20474.13       1.0520103      0.970457     
      3900  -10121.791     -10231.275      109.48381      29045.159      392.31294      20532.665      1.0490113      0.970457     
      4000  -10122.188     -10234.438      112.24941      33044.319      402.22289      20574.485      1.046879       0.98336614   
      4100  -10123.61      -10237.104      113.49364      22513.905      406.68134      20613.163      1.0449147      0.98336614   
      4200  -10121.782     -10233.385      111.60267      30146.691      399.90544      20623.64       1.0443838      0.98336614   
      4300  -10124.1       -10235.518      111.41737      28365.58       399.24144      20642.295      1.04344        0.98336614   
      4400  -10121.896     -10238.373      116.47613      21395.164      417.36847      20658.819      1.0426054      0.98336614   
      4500  -10125.757     -10239.094      113.33655      33804.257      406.11844      20661.229      1.0424838      0.98336614   
      4600  -10124.084     -10237.934      113.8498       24281.286      407.95758      20676.22       1.0417279      0.98336614   
      4700  -10124.51      -10238.958      114.44815      27331.585      410.10163      20691.112      1.0409782      0.98336614   
      4800  -10129.962     -10239.655      109.69233      20342.135      393.0601       20709.618      1.040048       0.98336614   
      4900  -10127.981     -10238.362      110.38028      31455.904      395.52524      20714.699      1.0397929      0.98336614   
      5000  -10128.945     -10241.311      112.36682      19856.039      402.64362      20727.155      1.039168       0.92097343   
      5100  -10127.774     -10241.367      113.59336      28845.501      407.03866      20719.9        1.0395319      0.92097343   
      5200  -10126.575     -10238.58       112.00436      19174.351      401.34482      20715.553      1.03975        0.92097343   
      5300  -10124.63      -10239.412      114.7819       21708.458      411.29755      20707.523      1.0401532      0.92097343   
      5400  -10125.515     -10237.95       112.4346       27474.987      402.88647      20696.799      1.0406921      0.92097343   
      5500  -10123.315     -10236.955      113.63965      24874.767      407.20455      20687.067      1.0411817      0.92097343   
      5600  -10120.471     -10237.235      116.76357      24067.635      418.39845      20677.543      1.0416613      0.92097343   
      5700  -10121.959     -10237.011      115.05156      26059.277      412.26383      20670.947      1.0419937      0.92097343   
      5800  -10121.917     -10235.53       113.61236      18726.132      407.10675      20668.14       1.0421352      0.92097343   
      5900  -10119.704     -10234.931      115.22693      32472.513      412.89223      20655.987      1.0427483      0.92097343   
      6000  -10118.458     -10234.937      116.47914      19050.15       417.37929      20654.266      1.0428352      1.0571612    
      6100  -10122.037     -10235.537      113.49977      27896.742      406.70329      20649.507      1.0430756      1.0571612    
      6200  -10122.663     -10236.822      114.15931      26134.173      409.06664      20650.892      1.0430056      1.0571612    
      6300  -10121.072     -10237.133      116.06025      22535.345      415.87828      20640.413      1.0435351      1.0571612    
      6400  -10119.859     -10236.482      116.62279      29007.128      417.894        20629.388      1.0440929      1.0571612    
      6500  -10116.948     -10236.154      119.20539      24581.048      427.14822      20630.774      1.0440227      1.0571612    
      6600  -10117.823     -10233.841      116.01842      27135.888      415.72837      20629.211      1.0441018      1.0571612    
      6700  -10121.382     -10232.53       111.14755      30033.71       398.2746       20636.804      1.0437177      1.0571612    
      6800  -10123.76      -10236.954      113.19378      28921.442      405.60686      20653.494      1.0428742      1.0571612    
      6900  -10122.801     -10236.196      113.39458      22567.484      406.32637      20667.844      1.0421501      1.0571612    
      7000  -10124.177     -10238.565      114.38758      26360.576      409.8846       20674.942      1.0417924      0.78713551   
      7100  -10126.29      -10239.09       112.80021      14153.499      404.19657      20677.155      1.0416808      0.78713551   
      7200  -10124.552     -10237.33       112.77797      35294.237      404.1169       20660.651      1.042513       0.78713551   
      7300  -10125.54      -10238.688      113.14783      17350.603      405.4422       20668.809      1.0421015      0.78713551   
      7400  -10123.004     -10236.888      113.88442      34265.518      408.08161      20674.655      1.0418068      0.78713551   
      7500  -10122.404     -10234.802      112.39783      21273.135      402.75474      20696.197      1.0407224      0.78713551   
      7600  -10121.587     -10235.832      114.24452      33291.047      409.37197      20704.233      1.0403185      0.78713551   
      7700  -10121.206     -10238          116.79394      29496.677      418.50728      20728.052      1.039123       0.78713551   
      7800  -10120.489     -10236.501      116.01155      19476.319      415.70376      20752.867      1.0378805      0.78713551   
      7900  -10122.059     -10235.471      113.41281      21897.263      406.39171      20762.435      1.0374022      0.78713551   
      8000  -10122.947     -10235.359      112.41198      32775.53       402.80543      20751.221      1.0379629      0.82345434   
      8100  -10122.315     -10236.949      114.63404      17781.005      410.76775      20742.676      1.0383905      0.82345434   
      8200  -10122.517     -10236.33       113.81335      27168.745      407.82695      20715.014      1.0397771      0.82345434   
      8300  -10121.437     -10237.19       115.75279      17069.618      414.77653      20691.372      1.0409651      0.82345434   
      8400  -10119.373     -10234.982      115.60878      30442.555      414.26051      20653.944      1.0428515      0.82345434   
      8500  -10119.459     -10236.804      117.34503      24142.793      420.48202      20620.75       1.0445302      0.82345434   
      8600  -10123.036     -10238.008      114.9719       29533.452      411.97839      20606.045      1.0452756      0.82345434   
      8700  -10122.071     -10238.535      116.46349      22517.066      417.32318      20596.977      1.0457358      0.82345434   
      8800  -10123.388     -10238.246      114.85757      31229.017      411.5687       20580.983      1.0465485      0.82345434   
      8900  -10124.334     -10241.081      116.74723      26913.061      418.33992      20587.114      1.0462368      0.82345434   
      9000  -10126.776     -10241.225      114.44924      22529.243      410.10555      20588.521      1.0461653      0.72835536   
      9100  -10123.62      -10239.916      116.2955       37110.939      416.72124      20584.124      1.0463888      0.72835536   
      9200  -10126.89      -10242.125      115.23502      19873.06       412.92122      20608.88       1.0451318      0.72835536   
      9300  -10126.729     -10242.971      116.24145      29748.008      416.52755      20614.872      1.0448281      0.72835536   
      9400  -10127.127     -10241.574      114.44693      20264.008      410.09725      20613.947      1.0448749      0.72835536   
      9500  -10127.271     -10240.788      113.5174       22939.656      406.76649      20597.581      1.0457051      0.72835536   
      9600  -10127.432     -10241.116      113.68357      29396.674      407.36191      20586.698      1.0462579      0.72835536   
      9700  -10129.564     -10243.511      113.94722      36355.001      408.30665      20593.595      1.0459075      0.72835536   
      9800  -10129.451     -10246.393      116.94187      21936.669      419.03735      20626.033      1.0442627      0.72835536   
      9900  -10129.338     -10243.683      114.34538      23000.108      409.73336      20658.835      1.0426046      0.72835536   
     10000  -10129.757     -10244.26       114.50229      20855.712      410.29563      20681.868      1.0414435      0.85796286   
     10100  -10128.984     -10243.235      114.25195      20340.211      409.39859      20684.145      1.0413288      0.85796286   
     10200  -10129.337     -10240.022      110.6852       26115.879      396.61786      20669.275      1.042078       0.85796286   
     10300  -10128.942     -10245.166      116.22393      27017.181      416.46477      20658.553      1.0426188      0.85796286   
     10400  -10124.681     -10240.661      115.97956      27732.124      415.58913      20650.234      1.0430388      0.85796286   
     10500  -10124.997     -10240.006      115.00839      21522.305      412.10914      20647.418      1.0431811      0.85796286   
     10600  -10125.649     -10241.497      115.8478       23285.214      415.11698      20632.425      1.0439392      0.85796286   
     10700  -10126.511     -10241.192      114.68164      27671.442      410.93829      20606.195      1.045268       0.85796286   
     10800  -10125.385     -10241.31       115.92522      25670.671      415.39441      20591.343      1.0460219      0.85796286   
     10900  -10125.055     -10242.64       117.58511      31507.042      421.3423       20587.7        1.046207       0.85796286   
     11000  -10126.486     -10242.212      115.72684      28479.306      414.68355      20600.997      1.0455318      0.76724662   
     11100  -10128.132     -10240.532      112.39972      21050.057      402.7615       20613.823      1.0448812      0.76724662   
     11200  -10126.781     -10244.329      117.54735      24150.647      421.20698      20613.285      1.0449085      0.76724662   
     11300  -10128.956     -10242.412      113.45631      31297.946      406.54758      20604.885      1.0453345      0.76724662   
     11400  -10127.997     -10242.884      114.88698      23324.071      411.6741       20613.162      1.0449147      0.76724662   
     11500  -10128.784     -10242.917      114.13315      33949.124      408.9729       20623.845      1.0443735      0.76724662   
     11600  -10131.571     -10244.111      112.5405       25769.214      403.26596      20642.522      1.0434285      0.76724662   
     11700  -10133.621     -10246.164      112.54293      23533.434      403.27465      20650.132      1.043044       0.76724662   
     11800  -10128.791     -10241.474      112.68364      27165.333      403.77887      20647.048      1.0431998      0.76724662   
     11900  -10126.773     -10241.363      114.59066      25866.557      410.61228      20653.119      1.0428932      0.76724662   
     12000  -10129.423     -10240.976      111.55298      30331.084      399.72737      20659.64       1.042564       0.90247195   
     12100  -10128.781     -10243.253      114.47134      11488.902      410.18472      20668.154      1.0421345      0.90247195   
     12200  -10128.006     -10240.52       112.51456      28337.875      403.17299      20630.597      1.0440317      0.90247195   
     12300  -10125.413     -10240.299      114.88543      31224.021      411.66853      20595.036      1.0458344      0.90247195   
     12400  -10121.639     -10238.41       116.77104      22849.742      418.42522      20577.673      1.0467168      0.90247195   
     12500  -10120.811     -10239.368      118.55702      43514.762      424.82493      20553.767      1.0479343      0.90247195   
     12600  -10123.593     -10239.264      115.67138      13300.539      414.48484      20556.628      1.0477884      0.90247195   
     12700  -10124.102     -10239.871      115.76943      43585.103      414.83618      20533.75       1.0489558      0.90247195   
     12800  -10126.454     -10237.888      111.43387      19351.672      399.30056      20548.709      1.0481922      0.90247195   
     12900  -10127.377     -10240.079      112.70253      32373.123      403.84654      20549.187      1.0481678      0.90247195   
     13000  -10127.574     -10242.702      115.12762      27071.65       412.53636      20568.35       1.0471913      0.71413136   
     13100  -10128.841     -10242.517      113.67615      29664.29       407.33533      20582.949      1.0464485      0.71413136   
     13200  -10129.709     -10244.842      115.13301      22519.374      412.55567      20591.55       1.0460114      0.71413136   
     13300  -10126.61      -10239.509      112.899        28172.33       404.55056      20597.298      1.0457195      0.71413136   
     13400  -10126.115     -10244.641      118.52591      26081.88       424.71345      20605.227      1.0453171      0.71413136   
     13500  -10126.546     -10240.918      114.37119      22466.513      409.82585      20599.61       1.0456022      0.71413136   
     13600  -10121.581     -10237.657      116.07602      24579.043      415.93476      20583.433      1.0464239      0.71413136   
     13700  -10125.124     -10239.882      114.7572       27764.285      411.20906      20563.48       1.0474392      0.71413136   
     13800  -10124.668     -10243.356      118.68816      27773.007      425.29484      20550.87       1.048082       0.71413136   
     13900  -10122.939     -10238.493      115.55477      31658.064      414.06696      20557.712      1.0477332      0.71413136   
     14000  -10124.277     -10238.702      114.42555      23361.49       410.02065      20575.355      1.0468347      0.88051422   
     14100  -10127.912     -10241.674      113.76139      29517.168      407.64077      20586.498      1.0462681      0.88051422   
     14200  -10129.322     -10241.039      111.71734      23336.559      400.31633      20594.734      1.0458497      0.88051422   
     14300  -10129.284     -10243.813      114.52919      29529.287      410.39202      20590.989      1.0460399      0.88051422   
     14400  -10129.444     -10244.907      115.4627       25999.067      413.73705      20594.887      1.045842       0.88051422   
     14500  -10129.873     -10247.494      117.62085      29430.273      421.47035      20589.312      1.0461251      0.88051422   
     14600  -10131.176     -10247.907      116.73069      27137.446      418.28063      20583.958      1.0463972      0.88051422   
     14700  -10131.077     -10246.468      115.39145      22322.669      413.48175      20568.945      1.047161       0.88051422   
     14800  -10133.009     -10245.089      112.07969      29355.52       401.61473      20546.899      1.0482845      0.88051422   
     14900  -10128.338     -10242.939      114.60194      24774.408      410.65269      20516.588      1.0498333      0.88051422   
     15000  -10128.982     -10243.948      114.9657       34419.452      411.95617      20484.647      1.0514702      0.78811042   
     15100  -10129.273     -10245.754      116.48086      26338.475      417.38542      20483.798      1.0515138      0.78811042   
     15200  -10131.045     -10246.449      115.40371      34791.339      413.52568      20495.531      1.0509118      0.78811042   
     15300  -10131.838     -10246.108      114.27038      22074.116      409.46463      20527.196      1.0492907      0.78811042   
     15400  -10133.31      -10247.511      114.20118      31955.554      409.21667      20556.938      1.0477726      0.78811042   
     15500  -10133.403     -10247.026      113.62339      20755.213      407.14626      20582.373      1.0464778      0.78811042   
     15600  -10129.658     -10244.39       114.73254      30899.428      411.12067      20592.328      1.0459719      0.78811042   
     15700  -10129.906     -10245.329      115.42328      28234.094      413.5958       20613.722      1.0448863      0.78811042   
     15800  -10133.155     -10247.614      114.45868      26853.657      410.13935      20616.614      1.0447397      0.78811042   
     15900  -10133.051     -10246.506      113.45456      30666.816      406.54132      20613.034      1.0449212      0.78811042   
     16000  -10129.325     -10249.462      120.13721      23063.363      430.48721      20611.308      1.0450087      0.70088311   
     16100  -10129.752     -10245.276      115.52364      27341.913      413.95543      20604.199      1.0453693      0.70088311   
     16200  -10132.284     -10247.405      115.12167      27174.339      412.51504      20595.42       1.0458149      0.70088311   
     16300  -10131.254     -10242.906      111.65219      34647.947      400.08287      20598.4        1.0456636      0.70088311   
     16400  -10129.964     -10246.546      116.58197      25007.696      417.74775      20634.065      1.0438562      0.70088311   
     16500  -10133.496     -10246.918      113.42178      20076.479      406.42384      20656.787      1.042708       0.70088311   
     16600  -10136.2       -10247.447      111.24734      30968.159      398.63219      20653.196      1.0428893      0.70088311   
     16700  -10133.914     -10248.091      114.17701      19736.24       409.13004      20660.173      1.0425371      0.70088311   
     16800  -10133.171     -10245.744      112.57306      20244.503      403.38262      20645.249      1.0432907      0.70088311   
     16900  -10134.874     -10246.702      111.82841      27878.749      400.71434      20614.141      1.0448651      0.70088311   
     17000  -10132.779     -10245.472      112.6932       32895.062      403.81313      20586.972      1.046244       0.93347011   
     17100  -10129.042     -10245.586      116.54436      32985.165      417.61295      20573.466      1.0469309      0.93347011   
     17200  -10129.421     -10242.913      113.49164      23391.248      406.67418      20574.854      1.0468602      0.93347011   
     17300  -10128.993     -10242.403      113.41005      25852.855      406.38182      20571.851      1.047013       0.93347011   
     17400  -10129.492     -10242.42       112.92744      35485.869      404.65249      20568.39       1.0471892      0.93347011   
     17500  -10127.98      -10244.042      116.06157      22623.28       415.88299      20588.358      1.0461736      0.93347011   
     17600  -10126.109     -10243.952      117.84271      30484.627      422.26535      20598.833      1.0456416      0.93347011   
     17700  -10129.357     -10243.508      114.1516       24878.996      409.03902      20608.866      1.0451325      0.93347011   
     17800  -10132.109     -10246.331      114.22156      17818.912      409.28967      20615.081      1.0448175      0.93347011   
     17900  -10131.595     -10243.566      111.97074      26748.726      401.22435      20605.397      1.0453085      0.93347011   
     18000  -10130.39      -10245.698      115.30768      30669.542      413.18157      20597.362      1.0457163      0.88421347   
     18100  -10132.449     -10243.175      110.72619      24706.77       396.76476      20595.843      1.0457934      0.88421347   
     18200  -10128.895     -10245.591      116.6953       28125.061      418.15382      20594.752      1.0458488      0.88421347   
     18300  -10129.659     -10243.841      114.1819       30225.851      409.14759      20597.077      1.0457308      0.88421347   
     18400  -10130.389     -10240.86       110.47144      25633.893      395.85191      20604.293      1.0453645      0.88421347   
     18500  -10130.838     -10242.667      111.82914      33776.163      400.71694      20610.004      1.0450749      0.88421347   
     18600  -10131.001     -10245.428      114.42665      20829.938      410.0246       20628.051      1.0441605      0.88421347   
     18700  -10133.371     -10246.128      112.75722      22086.379      404.04254      20633.799      1.0438696      0.88421347   
     18800  -10128.776     -10240.733      111.95646      25309.099      401.17317      20612.481      1.0449492      0.88421347   
     18900  -10127.796     -10242.252      114.45609      26235.796      410.13008      20573.09       1.04695        0.88421347   
     19000  -10127.697     -10239.581      111.88359      31051.642      400.91205      20539.214      1.0486768      0.68911976   
     19100  -10129.384     -10242.982      113.5983       28879.078      407.05638      20525.441      1.0493805      0.68911976   
     19200  -10130.269     -10244.533      114.26374      42787.67       409.44083      20525.988      1.0493525      0.68911976   
     19300  -10129.979     -10242.977      112.99869      21292.438      404.90778      20566.988      1.0472606      0.68911976   
     19400  -10127.205     -10243.046      115.8412       29966.553      415.09333      20601.192      1.0455218      0.68911976   
     19500  -10126.045     -10240.792      114.74697      16150.754      411.1724       20625.987      1.044265       0.68911976   
     19600  -10125.032     -10241.106      116.07314      25035.497      415.92447      20616.273      1.0447571      0.68911976   
     19700  -10125.121     -10241.445      116.32375      25182.572      416.82247      20594.602      1.0458564      0.68911976   
     19800  -10125.884     -10242.415      116.53049      34817.409      417.56326      20573.553      1.0469264      0.68911976   
     19900  -10125.989     -10245.7        119.71088      23195.824      428.95956      20580.613      1.0465673      0.68911976   
     20000  -10124.707     -10242.295      117.58811      19300.279      421.35303      20584.551      1.0463671      0.95107328   
     20100  -10126.45      -10243.276      116.82667      31165.428      418.62458      20578.729      1.0466631      0.95107328   
     20200  -10129.41      -10245.644      116.23446      26416.025      416.50251      20579.104      1.046644       0.95107328   
     20300  -10128.339     -10243.631      115.292        23570          413.12538      20568.446      1.0471864      0.95107328   
     20400  -10126.943     -10242.537      115.59354      30958.443      414.20589      20547.848      1.0482361      0.95107328   
     20500  -10127.413     -10244.622      117.20889      18291.539      419.99416      20543.214      1.0484726      0.95107328   
     20600  -10129.586     -10244.691      115.10434      37857.599      412.45296      20522.368      1.0495376      0.95107328   
     20700  -10130.077     -10244.46       114.38303      22079.001      409.86827      20521.94       1.0495595      0.95107328   
     20800  -10129.082     -10242.568      113.48581      27881.974      406.65328      20519.777      1.0496701      0.95107328   
     20900  -10128.262     -10244.203      115.94048      30654.565      415.44907      20527.277      1.0492866      0.95107328   
     21000  -10131.691     -10247.813      116.12269      18164.963      416.10199      20554.306      1.0479068      0.88491734   
     21100  -10131.773     -10246.265      114.49173      32837.069      410.25779      20555.984      1.0478212      0.88491734   
     21200  -10130.405     -10245.583      115.1779       19661.766      412.71655      20559.177      1.0476585      0.88491734   
     21300  -10129.244     -10244.476      115.23188      34237.151      412.90996      20550.606      1.0480954      0.88491734   
     21400  -10128.052     -10246.851      118.79951      26764.131      425.69384      20561.601      1.047535       0.88491734   
     21500  -10126.483     -10244.18       117.69686      21232.805      421.74272      20570.275      1.0470932      0.88491734   
     21600  -10126.515     -10239.212      112.69704      35352.6        403.82687      20565.273      1.047348       0.88491734   
     21700  -10128.743     -10242.839      114.09603      24363.923      408.83988      20581.331      1.0465308      0.88491734   
     21800  -10127.05      -10241.056      114.00597      32888.964      408.51718      20588.134      1.046185       0.88491734   
     21900  -10126.356     -10245.393      119.03618      16510.7        426.54189      20604.337      1.0453623      0.88491734   
     22000  -10127.079     -10244.11       117.03087      24247.678      419.35629      20587.304      1.0462271      0.813669     
     22100  -10129.668     -10246.649      116.98082      24735.964      419.17695      20556.712      1.0477841      0.813669     
     22200  -10125.862     -10242.717      116.85503      29862.108      418.72621      20524.502      1.0494284      0.813669     
     22300  -10124.382     -10242.832      118.45017      29410.712      424.44205      20501.63       1.0505992      0.813669     
     22400  -10126.805     -10242.872      116.06709      37882.821      415.90275      20483.66       1.0515209      0.813669     
     22500  -10130.031     -10243.72       113.68831      27284.722      407.37889      20492.537      1.0510654      0.813669     
     22600  -10129.123     -10243.788      114.66562      31313.397      410.88088      20515.063      1.0499113      0.813669     
     22700  -10126.736     -10241.051      114.31497      16507.757      409.6244       20536.082      1.0488367      0.813669     
     22800  -10126.213     -10240.994      114.78054      31234.195      411.29268      20535.574      1.0488626      0.813669     
     22900  -10126.408     -10242.885      116.47747      24549.97       417.3733       20544.415      1.0484113      0.813669     
     23000  -10126.676     -10240.216      113.54033      21313.113      406.84866      20540.387      1.0486169      0.82560395   
     23100  -10128.597     -10240.162      111.56519      27852.794      399.77112      20525.333      1.049386       0.82560395   
     23200  -10129.212     -10243.538      114.32619      22989.351      409.6646       20525.702      1.0493671      0.82560395   
     23300  -10129.045     -10244.017      114.9721       27933.078      411.97909      20524.182      1.0494448      0.82560395   
     23400  -10129.521     -10244.933      115.41201      35488.667      413.55541      20522.266      1.0495428      0.82560395   
     23500  -10128.163     -10243.84       115.67727      18876.656      414.50592      20543.393      1.0484634      0.82560395   
     23600  -10124.271     -10243.006      118.73494      35343.746      425.46246      20549.584      1.0481476      0.82560395   
     23700  -10127.357     -10241.485      114.12755      21612.207      408.95282      20572.983      1.0469554      0.82560395   
     23800  -10131.299     -10246.36       115.06101      26614.344      412.29769      20588.144      1.0461845      0.82560395   
     23900  -10129.726     -10244.838      115.11237      22807.213      412.48174      20589.752      1.0461028      0.82560395   
     24000  -10129.951     -10244.962      115.01114      43876.284      412.119        20575.22       1.0468416      0.67809138   
     24100  -10133.781     -10247.369      113.58881      10540.733      407.02237      20591.524      1.0460127      0.67809138   
     24200  -10131.311     -10245.455      114.14425      35135.36       409.01268      20577.812      1.0467097      0.67809138   
     24300  -10131.638     -10247.151      115.5127       7446.2026      413.91623      20576.723      1.0467651      0.67809138   
     24400  -10132.116     -10246.4        114.28334      44685.381      409.51108      20539.776      1.0486481      0.67809138   
     24500  -10134.404     -10249.531      115.12674      10411.574      412.53321      20523.498      1.0494798      0.67809138   
     24600  -10135.382     -10246.188      110.80537      38772.441      397.04846      20474.658      1.0519832      0.67809138   
     24700  -10133.759     -10246.587      112.82784      27464.078      404.29558      20459.335      1.0527711      0.67809138   
     24800  -10135.5       -10246.514      111.01363      31309.105      397.79471      20468.813      1.0522836      0.67809138   
     24900  -10132.44      -10247.584      115.14398      31108.182      412.595        20509.72       1.0501848      0.67809138   
     25000  -10130.412     -10245.95       115.53778      20944.228      414.0061       20565.692      1.0473266      0.8288832    
     25100  -10133.135     -10246.466      113.3302       19594.429      406.09568      20607.124      1.0452209      0.8288832    
     25200  -10132.531     -10250.646      118.1154       25408.777      423.24247      20632.178      1.0439517      0.8288832    
     25300  -10130.043     -10246.474      116.43072      24193.023      417.20577      20652.255      1.0429368      0.8288832    
     25400  -10128.833     -10247.158      118.32473      21619.182      423.99256      20643.455      1.0433814      0.8288832    
     25500  -10126.231     -10243.94       117.70904      30198.123      421.78635      20609.793      1.0450855      0.8288832    
     25600  -10124.001     -10243.982      119.98104      26213.135      429.9276       20581.257      1.0465345      0.8288832    
     25700  -10127.834     -10241.939      114.1052       26494.564      408.87276      20549.938      1.0481295      0.8288832    
     25800  -10127.592     -10240.964      113.37157      23487.224      406.24393      20519.258      1.0496967      0.8288832    
     25900  -10127.019     -10244.393      117.37346      34921.162      420.58387      20499.783      1.0506939      0.8288832    
     26000  -10126.971     -10245.189      118.21822      27953.551      423.61091      20508.119      1.0502668      0.780699     
     26100  -10126.134     -10241.921      115.78683      26223.225      414.8985       20531.16       1.0490881      0.780699     
     26200  -10125.766     -10243.629      117.86297      21603.256      422.33793      20546.723      1.0482935      0.780699     
     26300  -10126.591     -10242.919      116.32794      27640.495      416.83749      20546.871      1.048286       0.780699     
     26400  -10126.465     -10241.383      114.91772      25434.543      411.78422      20552.411      1.0480034      0.780699     
     26500  -10127.219     -10243.266      116.04742      27603.548      415.83229      20551.271      1.0480615      0.780699     
     26600  -10125.73      -10244.325      118.59479      24315.303      424.96029      20544.419      1.0484111      0.780699     
     26700  -10125.404     -10243.232      117.82822      38384.591      422.21342      20530.675      1.0491129      0.780699     
     26800  -10127.674     -10242.641      114.96708      21819.908      411.96112      20546.782      1.0482905      0.780699     
     26900  -10126.191     -10244.137      117.94643      29725.938      422.63702      20559.988      1.0476172      0.780699     
     27000  -10126.523     -10242.537      116.01326      20067.873      415.70987      20571.191      1.0470466      0.71894087   
     27100  -10127.55      -10245.915      118.36534      26995.374      424.13809      20556.406      1.0477997      0.71894087   
     27200  -10130.107     -10246.627      116.52063      22400.687      417.52795      20534.91       1.0488966      0.71894087   
     27300  -10132.781     -10245.849      113.06806      37881.11       405.15637      20513.816      1.0499751      0.71894087   
     27400  -10136.993     -10250.211      113.21808      22064.367      405.69394      20524.992      1.0494034      0.71894087   
     27500  -10137.389     -10253.925      116.53574      31168.77       417.58208      20524.6        1.0494234      0.71894087   
     27600  -10132.835     -10250.959      118.12379      29699.589      423.27254      20532.623      1.0490134      0.71894087   
     27700  -10132.879     -10246.823      113.94444      22985.991      408.29667      20558.675      1.0476841      0.71894087   
     27800  -10130.237     -10246.165      115.92788      29183.686      415.40396      20572.893      1.04696        0.71894087   
     27900  -10128.444     -10246.547      118.10302      26610.524      423.19813      20585.948      1.0462961      0.71894087   
     28000  -10128.704     -10245.252      116.54878      19824.876      417.62882      20597.341      1.0457173      0.76286068   
     28100  -10126.282     -10243.347      117.06517      21439.048      419.4792       20586.406      1.0462728      0.76286068   
     28200  -10129.865     -10244.408      114.54252      30467.845      410.43978      20555.202      1.0478611      0.76286068   
     28300  -10129.111     -10246.929      117.81812      20144.121      422.17724      20536.633      1.0488086      0.76286068   
     28400  -10129.725     -10245.803      116.07873      33085.752      415.94448      20518.259      1.0497478      0.76286068   
     28500  -10129.966     -10246.347      116.38134      27708.975      417.02882      20514.032      1.049964       0.76286068   
     28600  -10128.819     -10242.03       113.21169      25943.655      405.67102      20517.814      1.0497706      0.76286068   
     28700  -10132.337     -10245.305      112.96767      22498.412      404.79663      20536.536      1.0488135      0.76286068   
     28800  -10133.361     -10245.095      111.73331      28452.588      400.37354      20538.512      1.0487126      0.76286068   
     28900  -10133.266     -10246.924      113.65764      26890.881      407.269        20539.391      1.0486677      0.76286068   
     29000  -10134.139     -10247.492      113.35259      35594.149      406.17593      20554.046      1.04792        0.70088205   
     29100  -10133.569     -10247.865      114.29574      16762.119      409.55551      20590.923      1.0460433      0.70088205   
     29200  -10134.591     -10249.181      114.59045      27179.015      410.61153      20603.324      1.0454137      0.70088205   
     29300  -10134.581     -10248.819      114.23751      27715.862      409.34685      20609.036      1.0451239      0.70088205   
     29400  -10138.091     -10250.235      112.14377      23104.023      401.84434      20621.736      1.0444803      0.70088205   
     29500  -10140.112     -10249.689      109.5776       27979.962      392.64899      20615.834      1.0447793      0.70088205   
     29600  -10139.075     -10251.507      112.43221      27233.959      402.87791      20615.329      1.0448049      0.70088205   
     29700  -10137.609     -10248.362      110.75377      28086.072      396.86359      20616.155      1.044763       0.70088205   
     29800  -10136.133     -10249.703      113.57085      21809.545      406.958        20612.625      1.0449419      0.70088205   
     29900  -10137.706     -10250.719      113.01249      27412.739      404.95725      20598.542      1.0456564      0.70088205   
     30000  -10135.331     -10250.343      115.01188      21558.428      412.12165      20583.796      1.0464055      0.73405121   
     30100  -10133.089     -10246.414      113.32519      29938.392      406.07772      20562.253      1.0475018      0.73405121   
     30200  -10134.632     -10246.153      111.52136      17405.565      399.61407      20541.612      1.0485543      0.73405121   
     30300  -10131.01      -10246.156      115.14592      35603.473      412.60195      20510.638      1.0501378      0.73405121   
     30400  -10129.758     -10243.105      113.34771      25403.184      406.15844      20496.831      1.0508452      0.73405121   
     30500  -10127.782     -10246.139      118.35683      32907.911      424.1076       20489.057      1.0512439      0.73405121   
     30600  -10128.867     -10245.247      116.38037      23318.197      417.02535      20500.75       1.0506443      0.73405121   
     30700  -10127.837     -10244.382      116.54477      29267.967      417.61443      20521.526      1.0495807      0.73405121   
     30800  -10127.544     -10243.803      116.25914      22047.301      416.59094      20545.47       1.0483575      0.73405121   
     30900  -10127.783     -10244.373      116.59037      33865.409      417.77784      20552.949      1.0479759      0.73405121   
     31000  -10131.192     -10244.616      113.42368      21027.994      406.43064      20573.316      1.0469385      0.75630788   
     31100  -10132.85      -10246.121      113.27023      24945.489      405.88079      20578.829      1.046658       0.75630788   
     31200  -10136.112     -10248.212      112.1003       26843.401      401.68857      20577.144      1.0467437      0.75630788   
     31300  -10136.38      -10247.372      110.99192      34474.49       397.71692      20581.864      1.0465037      0.75630788   
     31400  -10139.005     -10250.74       111.73501      16557.166      400.37964      20600.294      1.0455675      0.75630788   
     31500  -10139.815     -10249.162      109.34757      29076.657      391.82474      20593.576      1.0459085      0.75630788   
     31600  -10136.239     -10250.172      113.93344      23594.378      408.25727      20576.526      1.0467752      0.75630788   
     31700  -10133.831     -10246.186      112.35438      32758.468      402.59905      20559.537      1.0476402      0.75630788   
     31800  -10129.954     -10244.152      114.198        21034.38       409.20526      20564.984      1.0473626      0.75630788   
     31900  -10131.814     -10247.34       115.52577      26903.254      413.96307      20562.265      1.0475012      0.75630788   
     32000  -10131.267     -10245.662      114.39515      18842.112      409.91171      20553.495      1.0479481      0.79642637   
     32100  -10129.712     -10245.592      115.8796       22378.909      415.23094      20528.868      1.0492053      0.79642637   
     32200  -10130.708     -10245.751      115.04346      29266.712      412.2348       20493.515      1.0510153      0.79642637   
     32300  -10128.114     -10244.783      116.66889      32950.537      418.05919      20472.961      1.0520704      0.79642637   
     32400  -10130.283     -10246.323      116.04024      35601.207      415.80657      20491.653      1.0511107      0.79642637   
     32500  -10129.764     -10247.993      118.22956      17625.821      423.65156      20534.471      1.048919       0.79642637   
     32600  -10131.848     -10246.142      114.29354      37458.551      409.54761      20553.328      1.0479566      0.79642637   
     32700  -10133.618     -10246.5        112.882        9642.8727      404.48967      20578.868      1.0466561      0.79642637   
     32800  -10137.17      -10251.605      114.43464      26418.583      410.05323      20556.993      1.0477698      0.79642637   
     32900  -10136.386     -10251.865      115.47833      25030.468      413.79308      20531.593      1.049066       0.79642637   
     33000  -10138.027     -10249.122      111.09561      26482.436      398.08848      20500.8        1.0506418      0.76980585   
     33100  -10135.667     -10248.321      112.65469      29189.676      403.67512      20464.147      1.0525235      0.76980585   
     33200  -10133.925     -10249.236      115.31124      39630.59       413.19434      20442.314      1.0536477      0.76980585   
     33300  -10132.988     -10246.109      113.12114      29511.434      405.34655      20467.527      1.0523497      0.76980585   
     33400  -10133.561     -10247.817      114.25574      25666.542      409.41217      20499.203      1.0507236      0.76980585   
     33500  -10128.989     -10247.255      118.2662       27061.698      423.78284      20515.001      1.0499145      0.76980585   
     33600  -10128.809     -10243.314      114.5053       27882.081      410.30643      20522.699      1.0495206      0.76980585   
     33700  -10129.911     -10245.363      115.45169      32524.345      413.6976       20533.932      1.0489465      0.76980585   
     33800  -10132.492     -10246.282      113.79016      21694.883      407.74387      20553.717      1.0479368      0.76980585   
     33900  -10131.028     -10246.296      115.26892      25432.534      413.04268      20550.456      1.0481031      0.76980585   
     34000  -10130.868     -10244.518      113.65         21435.529      407.24162      20523.451      1.0494822      0.81879625   
     34100  -10132.944     -10245.69       112.74595      41087.911      404.00213      20484.573      1.051474       0.81879625   
     34200  -10132.283     -10246.889      114.60593      18507.275      410.66699      20476.164      1.0519058      0.81879625   
     34300  -10131.01      -10244.426      113.41611      41004.382      406.40351      20455.552      1.0529658      0.81879625   
     34400  -10130.067     -10245.306      115.23916      30328.958      412.93607      20459.578      1.0527586      0.81879625   
     34500  -10130.408     -10244.969      114.56051      30422.585      410.50424      20470.86       1.0521784      0.81879625   
     34600  -10131.072     -10246.243      115.1711       24562.984      412.69217      20499.721      1.0506971      0.81879625   
     34700  -10133.164     -10244.587      111.42273      24516.019      399.26066      20525.608      1.0493719      0.81879625   
     34800  -10133.52      -10246.979      113.45869      35774.486      406.55611      20546.358      1.0483121      0.81879625   
     34900  -10132.494     -10247.186      114.69184      24635.509      410.97484      20580.6        1.046568       0.81879625   
     35000  -10134.22      -10244.831      110.61033      18608.414      396.34959      20605.664      1.0452949      0.85998363   
     35100  -10133.002     -10247.471      114.46856      11983.496      410.17475      20602.427      1.0454592      0.85998363   
     35200  -10130.348     -10248.273      117.9252       35240.874      422.56094      20575.07       1.0468492      0.85998363   
     35300  -10131.31      -10245.721      114.41147      27605.137      409.97019      20561.373      1.0475466      0.85998363   
     35400  -10129.849     -10244.877      115.02792      29932.861      412.17913      20564.157      1.0474048      0.85998363   
     35500  -10129.58      -10245.204      115.62371      26006.02       414.31402      20578.094      1.0466954      0.85998363   
     35600  -10130.326     -10245.935      115.60941      33742.349      414.26278      20581.899      1.0465019      0.85998363   
     35700  -10129.997     -10244.595      114.59843      23264.715      410.64014      20594.262      1.0458737      0.85998363   
     35800  -10131.716     -10245.736      114.01927      25765.821      408.56482      20581.915      1.0465011      0.85998363   
     35900  -10132.097     -10246.568      114.47135      20403.308      410.18475      20555.314      1.0478554      0.85998363   
     36000  -10129.778     -10242.316      112.53857      35111.877      403.25904      20522.441      1.0495339      0.8006274    
     36100  -10130.693     -10247.086      116.39267      23055.102      417.06943      20508.414      1.0502517      0.8006274    
     36200  -10131.022     -10247.468      116.44644      38954.721      417.2621       20487.071      1.0513458      0.8006274    
     36300  -10135.342     -10249.726      114.38347      19134.227      409.86986      20494.934      1.0509425      0.8006274    
     36400  -10133.386     -10249.441      116.05461      32750.186      415.85806      20495.126      1.0509326      0.8006274    
     36500  -10133.725     -10249.787      116.06196      26001.85       415.88441      20505.986      1.050376       0.8006274    
     36600  -10133.484     -10246.699      113.21558      24837.699      405.68497      20516.929      1.0498158      0.8006274    
     36700  -10131.825     -10245.242      113.41767      28383.137      406.40911      20516.25       1.0498505      0.8006274    
     36800  -10134.024     -10246.336      112.31277      26456.426      402.44994      20520.191      1.0496489      0.8006274    
     36900  -10133.968     -10245.382      111.41374      33333.607      399.22843      20525.143      1.0493957      0.8006274    
     37000  -10135.522     -10247.255      111.73325      28791.883      400.37335      20531.639      1.0490636      0.74324013   
     37100  -10132.238     -10247.284      115.04609      19638.063      412.24424      20536.517      1.0488145      0.74324013   
     37200  -10130.244     -10245.674      115.42979      33505.874      413.61915      20528.947      1.0492012      0.74324013   
     37300  -10129.655     -10242.813      113.15786      13969.65       405.47814      20519.891      1.0496643      0.74324013   
     37400  -10128.384     -10243.693      115.30925      44494.827      413.18721      20479.422      1.0517385      0.74324013   
     37500  -10129.632     -10242.519      112.88729      27370.545      404.50861      20480.654      1.0516752      0.74324013   
     37600  -10131.989     -10245.525      113.53657      31188.052      406.83518      20485.195      1.0514421      0.74324013   
     37700  -10130.658     -10245          114.34181      29445.968      409.72058      20495.491      1.0509139      0.74324013   
     37800  -10130.608     -10244.486      113.87784      24759.518      408.05802      20508.919      1.0502258      0.74324013   
     37900  -10129.769     -10243.418      113.6487       36280.06       407.23696      20522.694      1.0495209      0.74324013   
     38000  -10131.192     -10244.816      113.62412      27255.668      407.14887      20567.539      1.0472326      0.76119063   
     38100  -10135.205     -10247.655      112.45093      27963.7        402.94501      20610.022      1.0450739      0.76119063   
     38200  -10135.575     -10247.719      112.14416      25235.352      401.84574      20633.89       1.043865       0.76119063   
     38300  -10134.582     -10248.497      113.91462      23933.995      408.18984      20638.107      1.0436517      0.76119063   
     38400  -10132.26      -10246.618      114.35744      26345.878      409.77657      20618.168      1.044661       0.76119063   
     38500  -10131.886     -10247.488      115.60283      37538.147      414.2392       20591.07       1.0460358      0.76119063   
     38600  -10128.607     -10244.697      116.08972      20880.878      415.98386      20577.171      1.0467424      0.76119063   
     38700  -10131.839     -10246.255      114.41542      35948.76       409.98434      20540.478      1.0486122      0.76119063   
     38800  -10132.331     -10246.978      114.64699      24836.973      410.81415      20521.237      1.0495954      0.76119063   
     38900  -10132.845     -10245.959      113.11395      32494.328      405.32079      20502.575      1.0505508      0.76119063   
     39000  -10132.507     -10247.48       114.97284      27151.715      411.98175      20506.618      1.0503437      0.71343569   
     39100  -10130.416     -10244.076      113.66005      27167.088      407.27762      20519.227      1.0496982      0.71343569   
     39200  -10131.669     -10248.616      116.94706      20003.91       419.05596      20543.503      1.0484578      0.71343569   
     39300  -10133.639     -10248.885      115.24552      34194.705      412.95886      20560.625      1.0475847      0.71343569   
     39400  -10133.381     -10247.68       114.29862      24363.406      409.56583      20588.391      1.0461719      0.71343569   
     39500  -10132.897     -10244.974      112.07723      16653.408      401.60593      20601.575      1.0455024      0.71343569   
     39600  -10131.386     -10241.336      109.95067      31483.835      393.98584      20593.769      1.0458987      0.71343569   
     39700  -10131.171     -10244.024      112.85264      27394.625      404.38446      20599.561      1.0456046      0.71343569   
     39800  -10131.825     -10244.859      113.03381      20267.942      405.03364      20600.071      1.0455788      0.71343569   
     39900  -10133.366     -10248.291      114.92534      21358.572      411.81153      20580.26       1.0465852      0.71343569   
     40000  -10132.213     -10247.333      115.11993      37223.858      412.50883      20545.187      1.0483719      0.68579253   
     40100  -10128.554     -10247.284      118.72999      27449.584      425.44474      20528.065      1.0492463      0.68579253   
     40200  -10130.21      -10245.937      115.7278       34136.065      414.68698      20527.579      1.0492711      0.68579253   
     40300  -10129.484     -10246.972      117.48736      14855.448      420.99202      20557.144      1.0477621      0.68579253   
     40400  -10129.256     -10245.817      116.56108      33478.955      417.67289      20564.34       1.0473954      0.68579253   
     40500  -10131.548     -10245.94       114.39132      21626.367      409.89799      20579.657      1.0466159      0.68579253   
     40600  -10130.099     -10245.246      115.14779      29272.049      412.60864      20592.913      1.0459422      0.68579253   
     40700  -10130.921     -10243.795      112.87357      19087.851      404.45943      20603.067      1.0454267      0.68579253   
     40800  -10129.21      -10244.556      115.34624      31108.019      413.31975      20596.326      1.0457689      0.68579253   
     40900  -10128.629     -10242.66       114.0308       23037.051      408.60613      20594.184      1.0458776      0.68579253   
     41000  -10128.865     -10245.727      116.86237      28420.891      418.7525       20582.536      1.0464695      0.74782093   
     41100  -10130.498     -10243.272      112.77379      20615.367      404.1019       20580.227      1.0465869      0.74782093   
     41200  -10125.527     -10240.65       115.12292      26405.992      412.51955      20569.445      1.0471355      0.74782093   
     41300  -10127.911     -10242.621      114.71037      24110.424      411.04123      20564.882      1.0473679      0.74782093   
     41400  -10125.953     -10243.044      117.09069      25059.614      419.57064      20563.714      1.0474274      0.74782093   
     41500  -10125.657     -10239.051      113.39452      29181.932      406.32617      20566.521      1.0472844      0.74782093   
     41600  -10124.657     -10241.224      116.56665      29452.519      417.69283      20562.694      1.0474793      0.74782093   
     41700  -10128.304     -10240.979      112.6749       29754.691      403.74755      20566.481      1.0472864      0.74782093   
     41800  -10125.462     -10240.713      115.25135      21367.453      412.97975      20580.747      1.0465605      0.74782093   
     41900  -10125.54      -10241.137      115.59681      24840.281      414.21763      20577.903      1.0467051      0.74782093   
     42000  -10124.955     -10239.073      114.11801      27391.157      408.91866      20570.981      1.0470573      0.7689366    
     42100  -10124.643     -10242.161      117.51829      17737.926      421.10285      20558.891      1.0476731      0.7689366    
     42200  -10119.453     -10238.43       118.97726      34727.58       426.33077      20531.69       1.049061       0.7689366    
     42300  -10121.832     -10240.827      118.99464      23636.64       426.39305      20537.172      1.048781       0.7689366    
     42400  -10121.386     -10237.198      115.81158      27189.175      414.98722      20546.734      1.0482929      0.7689366    
     42500  -10123.303     -10239.207      115.90375      24585.292      415.31747      20553.301      1.047958       0.7689366    
     42600  -10125.826     -10243.423      117.59702      22659.951      421.38498      20552.555      1.047996       0.7689366    
     42700  -10128.277     -10243.6        115.32312      24122.909      413.23691      20549.981      1.0481273      0.7689366    
     42800  -10127.797     -10243.697      115.89994      19292.32       415.30381      20535.523      1.0488653      0.7689366    
     42900  -10127.313     -10243.775      116.46205      32406.277      417.31802      20493.889      1.0509961      0.7689366    
     43000  -10126.643     -10241.614      114.97114      24290.162      411.97565      20463.138      1.0525754      0.85094444   
     43100  -10128.868     -10242.968      114.09996      38019.19       408.85398      20441.831      1.0536726      0.85094444   
     43200  -10129.332     -10245.439      116.10701      32456.244      416.04583      20454.641      1.0530127      0.85094444   
     43300  -10129.427     -10246.193      116.76588      28716.34       418.40675      20480.823      1.0516666      0.85094444   
     43400  -10131.473     -10245.581      114.10806      15568.004      408.88297      20507.824      1.0502819      0.85094444   
     43500  -10133.384     -10249.489      116.10478      36018.694      416.03784      20501.84       1.0505885      0.85094444   
     43600  -10133.65      -10247.245      113.59518      33076.793      407.04517      20521.222      1.0495962      0.85094444   
     43700  -10130.913     -10245.605      114.69153      21942.397      410.97374      20555.73       1.0478342      0.85094444   
     43800  -10129.597     -10244.452      114.85491      26117.732      411.55916      20579.741      1.0466116      0.85094444   
     43900  -10126.781     -10242.355      115.57387      20540.793      414.13543      20606.498      1.0452526      0.85094444   
     44000  -10129.1       -10243.202      114.10231      26544.572      408.86238      20603.816      1.0453887      0.71907969   
     44100  -10130.154     -10246.287      116.1335       24408.563      416.14074      20588.461      1.0461684      0.71907969   
     44200  -10133.198     -10247.68       114.48194      28301.354      410.22272      20563.811      1.0474224      0.71907969   
     44300  -10131.485     -10249.412      117.9278       25015.845      422.57023      20534.738      1.0489053      0.71907969   
     44400  -10131.051     -10245.945      114.89422      37795.236      411.70005      20499.914      1.0506871      0.71907969   
     44500  -10132.742     -10244.793      112.05132      22629.497      401.51306      20489.199      1.0512366      0.71907969   
     44600  -10130.386     -10242.55       112.16391      39657.592      401.91653      20482.65       1.0515728      0.71907969   
     44700  -10128.692     -10243.614      114.92175      24761.277      411.79868      20499.478      1.0507095      0.71907969   
     44800  -10129.941     -10246.754      116.81365      30666.749      418.57791      20523.78       1.0494654      0.71907969   
     44900  -10129.634     -10244.632      114.99807      23291.339      412.07216      20568.954      1.0471605      0.71907969   
     45000  -10127.093     -10243.353      116.26063      22754.008      416.59628      20610.324      1.0450586      0.7590284    
     45100  -10127.235     -10245.237      118.00225      28460.383      422.83702      20626.334      1.0442475      0.7590284    
     45200  -10129.568     -10242.206      112.63841      28623.799      403.61678      20634.006      1.0438592      0.7590284    
     45300  -10128.725     -10243.678      114.95281      23856.949      411.90998      20635.021      1.0438078      0.7590284    
     45400  -10125.217     -10242.53       117.31322      22306.094      420.36802      20619.393      1.044599       0.7590284    
     45500  -10124.163     -10242.625      118.46277      27159.636      424.4872       20599.543      1.0456055      0.7590284    
     45600  -10122.209     -10238.425      116.21572      30079.818      416.43537      20580.197      1.0465885      0.7590284    
     45700  -10121.997     -10238.102      116.10504      28036.704      416.03874      20582.61       1.0464657      0.7590284    
     45800  -10124.098     -10238.035      113.93721      36043.207      408.27078      20597.963      1.0456857      0.7590284    
     45900  -10125.238     -10241.554      116.31563      17899.229      416.79338      20626.384      1.0442449      0.7590284    
     46000  -10127.916     -10242.717      114.8009       23673.847      411.36565      20632.378      1.0439415      0.84108036   
     46100  -10127.463     -10243.339      115.87549      32107.308      415.2162       20633.509      1.0438843      0.84108036   
     46200  -10129.441     -10246.122      116.68146      29731.012      418.10423      20644.066      1.0433505      0.84108036   
     46300  -10130.262     -10243.285      113.02252      12132.079      404.99317      20669.606      1.0420613      0.84108036   
     46400  -10129.764     -10245.444      115.68015      35520.864      414.51626      20663.068      1.042391       0.84108036   
     46500  -10129.715     -10243.814      114.09899      15408.918      408.8505       20661.482      1.0424711      0.84108036   
     46600  -10128.106     -10245.648      117.54238      21957.893      421.18916      20633.016      1.0439093      0.84108036   
     46700  -10128.393     -10241.26       112.8672       35065.423      404.43663      20585.606      1.0463135      0.84108036   
     46800  -10126.064     -10240.233      114.16904      28209.428      409.10149      20566.637      1.0472785      0.84108036   
     46900  -10129.059     -10240.06       111.00164      27228.508      397.75175      20557.183      1.0477601      0.84108036   
     47000  -10129.558     -10241.595      112.03689      26849.562      401.46136      20540.65       1.0486034      0.72739956   
     47100  -10130.075     -10243.276      113.20101      28636.615      405.63277      20527.953      1.049252       0.72739956   
     47200  -10131.584     -10247.035      115.4507       28982.776      413.69407      20517.576      1.0497827      0.72739956   
     47300  -10130.308     -10245.583      115.27492      27591.683      413.06421      20515.786      1.0498743      0.72739956   
     47400  -10129.18      -10245.961      116.78117      23484.785      418.46153      20515.452      1.0498914      0.72739956   
     47500  -10127.332     -10242.319      114.98702      27614.919      412.03255      20508.757      1.0502341      0.72739956   
     47600  -10129.903     -10243.499      113.59533      25225.024      407.04574      20529.413      1.0491774      0.72739956   
     47700  -10130.552     -10243.307      112.755        20748.952      404.03456      20545.256      1.0483684      0.72739956   
     47800  -10127.972     -10241.076      113.1035       30943.753      405.28335      20536.643      1.0488081      0.72739956   
     47900  -10128.009     -10243.44       115.43165      17133.946      413.62581      20535.846      1.0488488      0.72739956   
     48000  -10127.085     -10242.572      115.48698      27781.841      413.82408      20516.15       1.0498557      0.75415133   
     48100  -10125.996     -10240.352      114.35542      21130.511      409.76937      20500.979      1.0506326      0.75415133   
     48200  -10125.441     -10240.15       114.70937      39171.722      411.03767      20495.011      1.0509385      0.75415133   
     48300  -10129.217     -10242.046      112.82886      25160.48       404.29922      20525.547      1.049375       0.75415133   
     48400  -10129.695     -10243.039      113.34466      29159.344      406.1475       20546.396      1.0483102      0.75415133   
     48500  -10129.739     -10245.969      116.23015      15803.954      416.48707      20578.286      1.0466856      0.75415133   
     48600  -10131.054     -10245.066      114.01151      34520.41       408.53701      20582.673      1.0464626      0.75415133   
     48700  -10129.078     -10242.001      112.92291      20716.369      404.63625      20591.804      1.0459985      0.75415133   
     48800  -10128.719     -10244.942      116.22323      34179.61       416.46226      20591.074      1.0460356      0.75415133   
     48900  -10127.863     -10241.297      113.43345      17003.507      406.46565      20598.148      1.0456764      0.75415133   
     49000  -10125.855     -10242.53       116.675        33554.41       418.08108      20585.758      1.0463057      0.8335421    
     49100  -10132.018     -10246.218      114.19963      18833.961      409.2111       20571.064      1.0470531      0.8335421    
     49200  -10131.379     -10245.144      113.7642       33897.096      407.65085      20538.765      1.0486997      0.8335421    
     49300  -10131.6       -10245.091      113.49134      27134.252      406.6731       20523.279      1.049491       0.8335421    
     49400  -10131.676     -10245.329      113.65267      30722.019      407.25117      20519.521      1.0496832      0.8335421    
     49500  -10133.482     -10246.133      112.65125      31158.762      403.66279      20533.95       1.0489456      0.8335421    
     49600  -10135.014     -10247.633      112.61985      19718.611      403.55029      20545.282      1.048367       0.8335421    
     49700  -10135.043     -10247.017      111.97343      28767.334      401.23397      20530.615      1.049116       0.8335421    
     49800  -10135.647     -10248.632      112.98595      28380.712      404.86215      20511.519      1.0500927      0.8335421    
     49900  -10135.263     -10248.597      113.33452      38050.816      406.11116      20500.588      1.0506526      0.8335421    
     50000  -10133.746     -10246.888      113.14182      24601.099      405.42068      20513.684      1.0499819      0.84087124   
     50100  -10134.714     -10248.673      113.95827      32284.959      408.34626      20528.284      1.0492351      0.84087124   
     50200  -10135.328     -10249.497      114.16928      19492.167      409.10234      20556.663      1.0477866      0.84087124   
     50300  -10135.333     -10248.395      113.06136      24257.083      405.13236      20568.062      1.0472059      0.84087124   
     50400  -10133.74      -10247.639      113.89855      22822.076      408.13225      20563.513      1.0474376      0.84087124   
     50500  -10132.406     -10244.716      112.31026      22502.277      402.44093      20540.996      1.0485858      0.84087124   
     50600  -10132.061     -10245.867      113.80567      30240.96       407.79942      20517.684      1.0497772      0.84087124   
     50700  -10132.49      -10249.24       116.75041      39455.231      418.35129      20501.417      1.0506101      0.84087124   
     50800  -10134.797     -10246.029      111.2328       22648.971      398.58008      20513.065      1.0500136      0.84087124   
     50900  -10131.988     -10247.12       115.13187      24086.991      412.55159      20524.902      1.049408       0.84087124   
     51000  -10132.898     -10245.852      112.95391      24299.838      404.74734      20521.364      1.0495889      0.80018267   
     51100  -10132.359     -10246.848      114.48895      36322.251      410.24783      20505.621      1.0503948      0.80018267   
     51200  -10129.911     -10242.695      112.78384      19419.481      404.13791      20518.147      1.0497535      0.80018267   
     51300  -10129.264     -10244.347      115.08272      28636.011      412.37547      20532.139      1.0490381      0.80018267   
     51400  -10134.111     -10243.587      109.4765       19964.635      392.28673      20545.329      1.0483646      0.80018267   
     51500  -10130.647     -10243.433      112.78644      26862.939      404.14722      20535.449      1.048869       0.80018267   
     51600  -10131.633     -10244.421      112.78818      24457.013      404.15347      20526.328      1.0493351      0.80018267   
     51700  -10130.323     -10244.01       113.6868       26871.559      407.37347      20512.147      1.0500606      0.80018267   
     51800  -10131.237     -10244.416      113.17841      22927.933      405.55177      20487.256      1.0513363      0.80018267   
     51900  -10129.59      -10247.287      117.69672      27736.651      421.74222      20460.441      1.0527142      0.80018267   
     52000  -10130.813     -10248.031      117.21883      31336.474      420.02981      20453.419      1.0530756      0.74342477   
     52100  -10128.498     -10246.937      118.43951      31232.11       424.40387      20466.648      1.0523949      0.74342477   
     52200  -10128.538     -10243.844      115.30566      25426.543      413.17434      20506.641      1.0503425      0.74342477   
     52300  -10128.636     -10243.955      115.31916      25198.892      413.22273      20550.136      1.0481194      0.74342477   
     52400  -10129.542     -10248.843      119.30148      16654.851      427.49255      20594.635      1.0458548      0.74342477   
     52500  -10129.683     -10244.817      115.13324      34928.72       412.55651      20629.956      1.0440641      0.74342477   
     52600  -10130.934     -10244.396      113.46242      18159.719      406.56945      20690.792      1.0409943      0.74342477   
     52700  -10131.955     -10244.754      112.79877      23867.397      404.1914       20737.572      1.038646       0.74342477   
     52800  -10130.918     -10247.014      116.09623      21692.664      416.00717      20761.122      1.0374678      0.74342477   
     52900  -10131.39      -10247.278      115.8884       20123.994      415.26248      20758.121      1.0376178      0.74342477   
     53000  -10134.004     -10245.924      111.91978      23305.956      401.04173      20731.711      1.0389396      0.86573949   
     53100  -10132.338     -10245.327      112.9887       25693.251      404.87199      20689.346      1.041067       0.86573949   
     53200  -10132.977     -10249.257      116.27964      25337.204      416.6644       20643.956      1.0433561      0.86573949   
     53300  -10133.918     -10249.947      116.02916      26069.363      415.76686      20604.218      1.0453683      0.86573949   
     53400  -10136.257     -10248.191      111.93391      28580.809      401.09235      20569.321      1.0471418      0.86573949   
     53500  -10133.692     -10245.127      111.43571      32014.325      399.30717      20548.163      1.0482201      0.86573949   
     53600  -10134.309     -10244.577      110.26882      26585.784      395.12584      20549.636      1.0481449      0.86573949   
     53700  -10135.073     -10249.461      114.38735      25091.287      409.88375      20554.65       1.0478892      0.86573949   
     53800  -10135.435     -10247.663      112.22834      33786.289      402.1474       20559.122      1.0476613      0.86573949   
     53900  -10132.76      -10246.51       113.74933      22226.306      407.59754      20572.461      1.046982       0.86573949   
     54000  -10134.43      -10249.029      114.59846      25123.972      410.64022      20565.745      1.0473239      0.71059487   
     54100  -10133.349     -10248.61       115.26185      32315.595      413.01736      20551.975      1.0480256      0.71059487   
     54200  -10128.909     -10246.222      117.31366      20953.037      420.3696       20559.52       1.047641       0.71059487   
     54300  -10127.853     -10243.161      115.30829      34465.374      413.18378      20558.669      1.0476844      0.71059487   
     54400  -10127.578     -10244.221      116.64322      24860.599      417.9672       20576.908      1.0467558      0.71059487   
     54500  -10127.228     -10245.597      118.36905      21740.179      424.15137      20596.144      1.0457781      0.71059487   
     54600  -10128.146     -10244.106      115.95925      16439.959      415.51635      20600.043      1.0455802      0.71059487   
     54700  -10132.371     -10245.703      113.3322       26833.281      406.10286      20574.542      1.0468761      0.71059487   
     54800  -10131.748     -10245.325      113.57663      33890.03       406.97871      20555.372      1.0478524      0.71059487   
     54900  -10134.295     -10245.213      110.91807      21009.554      397.4523       20548.747      1.0481902      0.71059487   
     55000  -10133.945     -10246.703      112.75743      35730.524      404.04327      20540.512      1.0486105      0.94031996   
     55100  -10132.611     -10249.066      116.45513      26820.85       417.29322      20554.172      1.0479136      0.94031996   
[...]
    236700  -10137.882     -10251.8        113.91875      14504.894      408.20462      17394.359      1.2382748      0.70589811   
    236800  -10140.714     -10253.758      113.04373      14230.544      405.06917      17444.178      1.2347384      0.70589811   
    236900  -10141.772     -10255.482      113.71009      14215.472      407.45693      17494.1        1.2312149      0.70589811   
    237000  -10143.654     -10256.572      112.91806      12799.015      404.61887      17536.342      1.2282491      0.77543408   
    237100  -10140.252     -10252.139      111.88719      13180.927      400.92494      17564.541      1.2262772      0.77543408   
    237200  -10138.526     -10254.774      116.24812      14835.294      416.55146      17581.063      1.2251248      0.77543408   
    237300  -10138.356     -10254.95       116.59354      14532.814      417.78921      17583.942      1.2249242      0.77543408   
    237400  -10137.944     -10253.942      115.99852      15077.788      415.65706      17576.059      1.2254736      0.77543408   
    237500  -10138.948     -10251.434      112.48663      12969.272      403.07292      17560.184      1.2265815      0.77543408   
    237600  -10140.71      -10251.537      110.82648      16021.471      397.1241       17539.032      1.2280607      0.77543408   
    237700  -10138.506     -10253.191      114.68522      14197.19       410.95113      17516.451      1.2296438      0.77543408   
    237800  -10138.268     -10253.63       115.36212      16867.062      413.37664      17492.881      1.2313007      0.77543408   
    237900  -10137.008     -10252.751      115.74336      14091.731      414.74276      17473.246      1.2326843      0.77543408   
    238000  -10137.918     -10252.285      114.36696      14476.368      409.8107       17458.86       1.2337001      0.75035141   
    238100  -10140.532     -10253.485      112.95274      14731.169      404.74315      17440.22       1.2350187      0.75035141   
    238200  -10141.229     -10254.947      113.7171       13400.957      407.48204      17427.537      1.2359174      0.75035141   
    238300  -10139.986     -10250.975      110.9896       16396.963      397.70863      17413.124      1.2369404      0.75035141   
    238400  -10138.005     -10253.363      115.35802      15696.164      413.36196      17392.732      1.2383906      0.75035141   
    238500  -10138.12      -10250.89       112.76941      13194.581      404.08619      17375.051      1.2396508      0.75035141   
    238600  -10134.523     -10249.119      114.59541      16118.349      410.6293       17357.853      1.2408791      0.75035141   
    238700  -10137.926     -10253.19       115.26432      15479.199      413.0262       17348.042      1.2415809      0.75035141   
    238800  -10139.759     -10254.152      114.39296      16028.457      409.90388      17344.856      1.2418089      0.75035141   
    238900  -10140.847     -10254.664      113.8172       17884.854      407.84076      17342.982      1.2419431      0.75035141   
    239000  -10140.567     -10253.551      112.98421      15099.257      404.8559       17347.892      1.2415916      0.72943297   
    239100  -10138.636     -10252.848      114.21279      13063.088      409.25826      17358.855      1.2408074      0.72943297   
    239200  -10139.182     -10253.101      113.91907      17083.952      408.20578      17369.232      1.2400661      0.72943297   
    239300  -10140.741     -10253.974      113.23229      14144.718      405.74484      17375.861      1.2395931      0.72943297   
    239400  -10140.547     -10253.687      113.1401       15628.793      405.41452      17384.799      1.2389557      0.72943297   
    239500  -10140.275     -10256.906      116.63071      14667.123      417.92237      17384.698      1.2389629      0.72943297   
    239600  -10139.523     -10252.679      113.15586      14072.948      405.47098      17382.655      1.2391086      0.72943297   
    239700  -10139.541     -10254.641      115.09955      16330.663      412.43578      17378.384      1.2394131      0.72943297   
    239800  -10140.011     -10252.443      112.43217      15958.507      402.87778      17371.116      1.2399316      0.72943297   
    239900  -10141.482     -10254.823      113.34126      15554.752      406.1353       17369.109      1.2400749      0.72943297   
    240000  -10140.5       -10252.18       111.67938      14351.131      400.18031      17372.781      1.2398128      0.9205551    
    240100  -10136.957     -10253.936      116.97869      16942.633      419.16931      17381.802      1.2391693      0.9205551    
    240200  -10138.488     -10254.806      116.31761      16439.53       416.80044      17395.979      1.2381595      0.9205551    
    240300  -10137.35      -10252.056      114.70574      18446.63       411.02464      17415.003      1.2368069      0.9205551    
    240400  -10136.965     -10253.537      116.57243      14050.685      417.71357      17436.059      1.2353134      0.9205551    
    240500  -10139.344     -10254.611      115.26704      14174.594      413.03596      17456.515      1.2338658      0.9205551    
    240600  -10138.404     -10254.842      116.43755      16951.36       417.23024      17473.404      1.2326732      0.9205551    
    240700  -10139.016     -10251.369      112.35233      14130.092      402.59168      17483.375      1.2319701      0.9205551    
    240800  -10136.615     -10251.499      114.88358      13705.311      411.6619       17492.912      1.2312985      0.9205551    
    240900  -10136.286     -10253.921      117.63516      13395.585      421.52162      17498.73       1.2308892      0.9205551    
    241000  -10136.682     -10249.935      113.2538       14719.271      405.8219       17492.527      1.2313256      0.74481277   
    241100  -10138.622     -10253.775      115.15321      15147.963      412.62805      17475.983      1.2324913      0.74481277   
    241200  -10134.193     -10249.216      115.02362      16468.467      412.16372      17455.03       1.2339708      0.74481277   
    241300  -10136.525     -10248.809      112.28422      15269.003      402.34764      17436.106      1.23531        0.74481277   
    241400  -10134.371     -10249.086      114.71478      16875.825      411.05703      17419.085      1.2365171      0.74481277   
    241500  -10134.793     -10249.952      115.15873      15522.142      412.64784      17408.866      1.2372429      0.74481277   
    241600  -10132.661     -10247.608      114.94756      16387.324      411.89115      17403.407      1.237631       0.74481277   
    241700  -10136.578     -10250.002      113.4246       14876.38       406.43395      17401.944      1.2377351      0.74481277   
    241800  -10133.969     -10250.157      116.18787      17812.945      416.33556      17406.288      1.2374262      0.74481277   
    241900  -10134.708     -10248.801      114.09343      18052.547      408.83056      17417.82       1.2366069      0.74481277   
    242000  -10134.729     -10251.095      116.36577      14649.993      416.97304      17435.295      1.2353675      0.7982883    
    242100  -10135.212     -10249.57       114.35817      14269.368      409.77921      17452.817      1.2341272      0.7982883    
    242200  -10129.422     -10246.09       116.66769      13907.431      418.05489      17468.616      1.233011       0.7982883    
    242300  -10131.299     -10249.306      118.0062       15265.149      422.85119      17486.628      1.231741       0.7982883    
    242400  -10131.505     -10247.697      116.19234      15206.207      416.35156      17507.172      1.2302956      0.7982883    
    242500  -10134.202     -10250.614      116.41168      14378.214      417.13753      17532.208      1.2285387      0.7982883    
    242600  -10137.456     -10253.187      115.73194      15412.947      414.70184      17559.366      1.2266386      0.7982883    
    242700  -10139.914     -10253.798      113.88406      15723.135      408.08035      17588.359      1.2246166      0.7982883    
    242800  -10139.78      -10256.356      116.57638      13139.102      417.7277       17612.831      1.2229151      0.7982883    
    242900  -10139.533     -10255.669      116.13668      14088.641      416.15212      17622.922      1.2222148      0.7982883    
    243000  -10139.13      -10254.363      115.2332       13847.425      412.9147       17618.957      1.2224899      0.71252685   
    243100  -10140.099     -10253.206      113.10666      15478.632      405.29467      17604.288      1.2235085      0.71252685   
    243200  -10140.255     -10256.083      115.82801      14523.168      415.04607      17577.51       1.2253725      0.71252685   
    243300  -10139.681     -10254.057      114.37541      12679.241      409.841        17541.516      1.2278868      0.71252685   
    243400  -10140.574     -10255.863      115.28874      14784.137      413.11372      17506.025      1.2303762      0.71252685   
    243500  -10142.281     -10253.803      111.52155      11753.864      399.61474      17470.095      1.2329066      0.71252685   
    243600  -10141.442     -10253.73       112.28813      13114.266      402.36163      17433.361      1.2355045      0.71252685   
    243700  -10137.969     -10251.45       113.48081      15450.415      406.63537      17391.377      1.2384871      0.71252685   
    243800  -10136.592     -10250.948      114.35511      16286.164      409.76824      17349.679      1.2414637      0.71252685   
    243900  -10133.945     -10251.475      117.53028      17768.433      421.1458       17318.19       1.243721       0.71252685   
    244000  -10136.904     -10255.74       118.83565      16767.25       425.82334      17292.696      1.2455546      0.84151156   
    244100  -10138.787     -10253.309      114.5215       18609.1        410.36447      17275.846      1.2467694      0.84151156   
    244200  -10141.643     -10255.723      114.07972      16069.445      408.78143      17267.622      1.2473632      0.84151156   
    244300  -10139.968     -10252.171      112.20336      14511.693      402.05787      17261.652      1.2477946      0.84151156   
    244400  -10139.664     -10253.914      114.25066      15903.494      409.39397      17264.338      1.2476005      0.84151156   
    244500  -10142.026     -10258.02       115.99384      16241.851      415.64029      17273.295      1.2469535      0.84151156   
    244600  -10140.866     -10256.897      116.03031      17071.922      415.77097      17280.996      1.2463979      0.84151156   
    244700  -10139.555     -10254.502      114.94726      13264.052      411.8901       17291.631      1.2456313      0.84151156   
    244800  -10140.507     -10254.805      114.29774      12739.751      409.56267      17303.578      1.2447713      0.84151156   
    244900  -10140.026     -10254.325      114.29849      15467.167      409.56534      17320.208      1.2435761      0.84151156   
    245000  -10137.715     -10253.647      115.93187      14247.919      415.41825      17341.66       1.2420377      0.73124652   
    245100  -10137.58      -10252.552      114.97184      14486.817      411.97817      17363.173      1.2404989      0.73124652   
    245200  -10140.203     -10253.904      113.70037      14635.413      407.4221       17388.076      1.2387223      0.73124652   
    245300  -10140.06      -10254.357      114.29694      15638.841      409.55979      17406.566      1.2374064      0.73124652   
    245400  -10136.86      -10251.653      114.79312      15541.366      411.33775      17420.977      1.2363828      0.73124652   
    245500  -10136.03      -10254.09       118.06028      15393.918      423.04495      17436.58       1.2352765      0.73124652   
    245600  -10134.193     -10247.8        113.60662      12338.851      407.08618      17454.113      1.2340356      0.73124652   
    245700  -10133.976     -10248.898      114.92178      14718.601      411.7988       17465.718      1.2332156      0.73124652   
    245800  -10136.584     -10253.487      116.90273      12518.817      418.89711      17475.214      1.2325455      0.73124652   
    245900  -10137.384     -10253.156      115.77132      16219.59       414.84294      17483.079      1.231991       0.73124652   
    246000  -10139.507     -10255.785      116.27763      12011.94       416.65719      17486.053      1.2317815      0.73899721   
    246100  -10138.413     -10252.899      114.48634      15488.363      410.23846      17480.255      1.23219        0.73899721   
    246200  -10139.334     -10252.896      113.56157      12159.372      406.92477      17464.545      1.2332985      0.73899721   
    246300  -10139.357     -10251.878      112.5204       15372.174      403.19394      17442.234      1.234876       0.73899721   
    246400  -10138.451     -10255.899      117.44795      14829.218      420.8508       17418.272      1.2365748      0.73899721   
    246500  -10138.78      -10254.102      115.32229      15741.584      413.23394      17393.553      1.2383322      0.73899721   
    246600  -10137.347     -10254.266      116.91938      15800.044      418.95678      17368.928      1.2400878      0.73899721   
    246700  -10138.658     -10253.544      114.886        15289.054      411.67058      17354.59       1.2411124      0.73899721   
    246800  -10137.521     -10254.052      116.53087      16487.847      417.56463      17344.497      1.2418346      0.73899721   
    246900  -10141.872     -10255.785      113.91268      13069.726      408.18288      17339.354      1.2422029      0.73899721   
    247000  -10143.37      -10255.517      112.14671      15702.493      401.85488      17330.903      1.2428087      0.88372378   
    247100  -10144.117     -10258.256      114.13948      15361.866      408.99559      17321.899      1.2434547      0.88372378   
    247200  -10144.339     -10257.187      112.84795      12031.875      404.36764      17311.898      1.244173       0.88372378   
    247300  -10142.637     -10254.147      111.50982      13897.971      399.57273      17302.695      1.2448348      0.88372378   
    247400  -10141.048     -10255.94       114.89193      13740.019      411.69184      17294.421      1.2454303      0.88372378   
    247500  -10139.705     -10254.406      114.70083      17334.451      411.00706      17289.029      1.2458187      0.88372378   
    247600  -10141.318     -10253.99       112.67235      14828.982      403.73841      17287.991      1.2458936      0.88372378   
    247700  -10141.758     -10258.88       117.12209      15811.936      419.68316      17291.576      1.2456352      0.88372378   
    247800  -10138.887     -10253.195      114.3074       15587.764      409.5973       17299.555      1.2450607      0.88372378   
    247900  -10139.439     -10253.294      113.85558      14083.161      407.97827      17311.471      1.2442037      0.88372378   
    248000  -10138.229     -10253.796      115.56619      15535.08       414.1079       17327.831      1.243029       0.75668743   
    248100  -10137.28      -10254.029      116.74901      15030.379      418.3463       17346.26       1.2417084      0.75668743   
    248200  -10137.282     -10252.987      115.70425      15488.068      414.60262      17365.827      1.2403093      0.75668743   
    248300  -10140.77      -10250.393      109.62277      14954.288      392.81088      17392.476      1.2384088      0.75668743   
    248400  -10140.633     -10253.683      113.05064      13564.492      405.09393      17421.217      1.2363658      0.75668743   
    248500  -10139.725     -10252.038      112.31355      12866.747      402.45274      17453.01       1.2341136      0.75668743   
    248600  -10139.573     -10252.209      112.63561      11501.922      403.60677      17485.687      1.2318073      0.75668743   
    248700  -10138.73      -10251.976      113.24552      15950.001      405.79225      17512.642      1.2299113      0.75668743   
    248800  -10137.592     -10251.756      114.16478      13326.762      409.08625      17534.805      1.2283568      0.75668743   
    248900  -10136.445     -10251.231      114.78619      14225.517      411.31291      17551.841      1.2271645      0.75668743   
    249000  -10134.737     -10251.613      116.87618      14303.42       418.80198      17562.652      1.2264091      0.7564857    
    249100  -10141.01      -10253.144      112.13406      13734.041      401.80955      17568.308      1.2260143      0.7564857    
    249200  -10141.137     -10253.625      112.48778      15445.84       403.07705      17560.817      1.2265373      0.7564857    
    249300  -10141.457     -10256.384      114.92768      14049.611      411.81992      17537.54       1.2281652      0.7564857    
    249400  -10141.839     -10252.896      111.05636      13202.894      397.94783      17498.339      1.2309166      0.7564857    
    249500  -10141.794     -10253.53       111.73532      15694.974      400.38077      17454.411      1.2340145      0.7564857    
    249600  -10142.381     -10255.844      113.46298      16282.104      406.57146      17413.996      1.2368784      0.7564857    
    249700  -10142.735     -10254.22       111.4852       14671.7        399.48449      17377.07       1.2395068      0.7564857    
    249800  -10143.471     -10258.776      115.30531      13170.204      413.1731       17346.287      1.2417065      0.7564857    
    249900  -10143.757     -10256.299      112.54239      14928.345      403.27272      17321.308      1.2434971      0.7564857    
    250000  -10141.908     -10256.084      114.17621      15146.78       409.1272       17298.404      1.2451436      0.83822198   
    250100  -10142.784     -10256.129      113.34445      16532.077      406.14676      17282.338      1.2463011      0.83822198   
    250200  -10143.066     -10258.768      115.70219      14769.137      414.59522      17269.156      1.2472524      0.83822198   
    250300  -10142.812     -10256.617      113.80467      14431.04       407.79585      17253.973      1.2483499      0.83822198   
    250400  -10140.276     -10252.892      112.61636      16755.946      403.53778      17240.977      1.2492909      0.83822198   
    250500  -10139.272     -10253.516      114.24429      19938.804      409.37114      17238.383      1.249479       0.83822198   
    250600  -10139.102     -10253.126      114.02369      15233.863      408.58066      17246.906      1.2488615      0.83822198   
    250700  -10139.242     -10252.987      113.74453      19080.668      407.58035      17266.209      1.2474653      0.83822198   
    250800  -10140.644     -10253.568      112.92345      16387.795      404.63819      17290.18       1.2457358      0.83822198   
    250900  -10137.762     -10252.855      115.09266      15672.564      412.41109      17320.903      1.2435262      0.83822198   
    251000  -10140.098     -10255.491      115.39354      17658.115      413.48924      17359.292      1.2407762      0.78531318   
    251100  -10140.156     -10254.457      114.30089      13974.863      409.57394      17397.023      1.2380852      0.78531318   
    251200  -10138.322     -10254.662      116.34033      12836.251      416.88188      17426.979      1.235957       0.78531318   
    251300  -10137.188     -10252.121      114.9331       15454.067      411.83936      17447.128      1.2345297      0.78531318   
    251400  -10142.149     -10252.034      109.88549      14526.082      393.75226      17452.07       1.23418        0.78531318   
    251500  -10139.296     -10253.155      113.85889      13858.902      407.99014      17444.129      1.2347419      0.78531318   
    251600   12551121      -9822.4809      12560944       6.3371632e+08  45009583       21170.544      1.017404       0.78531318   
ERROR: Lost atoms: original 2160 current 2046 (src/thermo.cpp:494)
Last command: run             20000000
