ITEM: TIMESTEP
202000
ITEM: NUMBER OF ATOMS
2160
ITEM: BOX BOUNDS pp pp pp
-3.4075877907002452e+00 2.4084369215434542e+01
0.0000000000000000e+00 2.0679892153068401e+01
0.0000000000000000e+00 3.4741558100094586e+01
ITEM: ATOMS id type element x y z
1190 1 H -1.29299 0.508916 0.753014
2023 2 O -3.09025 1.11988 1.63607
1165 1 H 23.9514 0.462763 2.2838
1961 2 O -0.317385 0.897305 2.5962
1170 1 H -0.445231 1.71102 2.01706
1201 1 H 0.566817 0.598797 2.29455
84 1 H 3.6542 1.81954 0.622135
1769 2 O 1.96199 1.87655 0.714481
8 1 H 2.45801 1.27521 4.24108
455 1 H 4.71951 0.50052 2.01912
1908 2 O 5.34815 20.6111 2.59327
46 1 H 5.16514 3.11537 1.66079
1482 2 O 4.65394 1.94998 0.615122
531 1 H 4.94504 1.87923 34.3927
748 1 H 5.93004 1.66167 4.74989
587 1 H 9.3384 0.841078 1.85435
1734 2 O 9.93451 1.34703 1.24347
1627 2 O 12.4143 1.14262 1.96085
1173 1 H 12.3637 0.157365 2.25327
304 1 H 13.0507 1.60236 0.508375
588 1 H 9.88999 2.29987 1.55605
1760 2 O 15.2673 2.04717 2.38808
639 1 H 14.7461 1.74475 1.63023
640 1 H 15.3633 1.16068 2.84523
821 1 H 17.4126 2.62072 2.85734
1931 2 O 18.002 3.07624 3.46068
1341 1 H 20.1159 0.517343 2.57798
1302 1 H 18.867 2.61603 3.21605
2111 2 O 20.0042 1.50866 2.65067
1342 1 H 20.384 1.72185 1.75003
1166 1 H 23.7376 1.38095 0.962464
153 1 H 22.3043 2.89315 2.90185
1891 2 O -0.897596 3.14386 1.07606
902 1 H -0.469769 3.54444 0.302919
741 1 H -1.91713 3.38595 0.930877
1574 2 O 0.216705 5.93754 2.2842
268 1 H 0.408623 5.22311 1.65422
1164 1 H 2.42133 4.45996 0.203432
1463 2 O 5.59837 3.72419 2.29848
1128 1 H 4.14142 6.05186 34.486
1524 2 O 3.83189 5.20885 0.275952
1077 1 H 6.80198 3.57638 34.0189
1127 1 H 4.3052 5.25804 1.11676
941 1 H 7.74662 3.3213 2.59905
1673 2 O 8.64864 3.53887 2.46435
848 1 H 9.74071 6.96026 0.440088
1579 2 O 7.62905 4.12409 34.0153
170 1 H 8.41397 6.01232 2.8563
114 1 H 8.92747 4.01118 3.23015
118 1 H 7.99519 4.1212 0.147096
1864 2 O 10.0661 6.45306 34.3975
847 1 H 9.54188 5.60999 34.5039
611 1 H 15.9288 4.85096 2.6192
2107 2 O 17.1407 6.91519 34.5657
179 1 H 18.2659 4.0346 0.615834
985 1 H 18.5493 6.04729 2.272
1933 2 O 18.9462 5.4799 1.56753
986 1 H 19.7177 5.88844 1.15062
693 1 H 17.8643 6.75733 0.495465
1354 1 H 23.2551 3.86732 1.1338
1744 2 O 22.1972 3.70509 2.41786
2117 2 O 24.0136 4.1863 0.551101
607 1 H 22.281 4.53864 2.92192
1786 2 O -2.24291 11.7603 3.74187
1656 2 O -1.44287 10.3758 0.355148
1024 1 H -0.175273 8.94378 3.5385
1139 1 H -2.73451 12.2304 3.04974
1581 2 O -2.30318 6.90703 3.39917
267 1 H 1.07668 6.25264 2.77269
1023 1 H -0.638241 9.74288 2.38606
1952 2 O 0.150922 9.27966 2.64128
1138 1 H 5.66065 7.84878 2.45985
1945 2 O 5.00999 7.28921 2.91411
1626 2 O 6.97105 9.01878 1.94658
819 1 H 7.36145 9.52591 1.23677
1169 1 H 5.24393 7.56271 3.84164
169 1 H 8.13491 7.43349 2.06749
1525 2 O 8.76828 6.69531 2.28751
1740 2 O 10.3809 9.98696 0.866041
1078 1 H 10.5297 10.8611 0.507823
419 1 H 11.6045 8.42813 2.81441
1251 1 H 12.058 7.40175 0.505202
600 1 H 9.98446 10.1356 1.75696
930 1 H 15.281 7.30745 2.30634
1599 2 O 15.2493 8.30389 2.21075
272 1 H 15.3421 8.47754 1.25237
1220 1 H 12.2984 8.82462 0.90944
2050 2 O 12.8048 8.06913 0.571418
275 1 H 16.8118 10.1525 0.542249
1174 1 H 16.9295 7.8806 34.577
284 1 H 19.4304 8.76748 1.05313
1086 1 H 17.2922 8.77999 2.50407
1983 2 O 18.2237 8.53625 2.23284
1582 2 O 20.3612 9.06452 0.578403
494 1 H 19.1441 10.9174 2.70433
1085 1 H 18.8229 8.72572 2.98515
790 1 H -3.34769 8.15867 1.01982
1915 2 O 23.8303 7.32083 0.594426
789 1 H 23.5301 7.75627 34.4918
459 1 H -2.39994 10.4906 0.183209
856 1 H 1.12541 11.6564 3.52158
596 1 H 1.31665 10.136 2.55977
1738 2 O 2.1521 10.7263 2.393
1043 1 H 2.81379 10.2908 3.01436
1228 1 H -0.220804 13.7096 2.19336
68 1 H 2.59754 10.4528 0.714475
760 1 H 0.339778 14.8404 0.18347
34 1 H 4.25628 14.563 2.52068
1301 1 H 5.1965 15.1119 1.29931
1763 2 O 7.24284 10.9408 34.6547
485 1 H 7.52546 11.8156 0.418173
1698 2 O 9.42611 10.5364 3.21776
501 1 H 9.41232 13.1126 0.299668
646 1 H 6.30229 11.1562 34.5123
1785 2 O 12.7747 10.6207 3.03582
818 1 H 13.738 10.5963 3.31105
849 1 H 12.6329 11.4061 2.47775
969 1 H 11.6366 13.2566 34.1072
1799 2 O 13.3505 11.4287 33.4393
718 1 H 14.0188 11.297 34.1558
409 1 H 16.3421 11.9809 2.95325
1645 2 O 17.2633 11.6679 3.20246
919 1 H 15.6786 12.5378 0.0890943
1687 2 O 20.026 10.6418 2.58212
410 1 H 17.6479 12.1697 3.93632
260 1 H 19.3571 11.7916 0.821555
2099 2 O 23.1934 10.5243 34.7132
493 1 H 19.9789 9.95099 1.85699
1318 1 H 22.9908 11.3949 0.385844
697 1 H 21.9603 13.5027 34.8077
698 1 H 22.1073 13.0959 1.59775
1789 2 O 21.6329 12.9735 0.778972
1345 1 H -3.24722 13.8453 1.63851
1523 2 O -1.47081 14.1799 0.537407
5 1 H -1.50691 15.1018 1.0166
1879 2 O -1.57448 16.5876 1.53062
878 1 H -2.4786 16.8955 1.26347
1227 1 H 1.20947 13.6861 2.87585
808 1 H 3.06875 17.516 2.80227
2054 2 O 0.49995 14.268 2.6452
807 1 H 3.59794 16.4327 1.96588
2084 2 O 2.99031 17.301 1.89873
759 1 H 1.51854 15.7723 34.1419
1820 2 O 1.32002 14.9216 34.5987
1451 2 O 4.75221 15.3559 2.23267
1689 2 O 7.63824 16.6612 0.743006
786 1 H 7.87999 16.966 1.61659
657 1 H 7.21144 17.4512 0.377541
2011 2 O 8.75655 13.2405 1.08392
982 1 H 8.20582 13.9955 0.767956
106 1 H 11.4445 16.3523 0.60426
1493 2 O 10.8666 16.1604 1.33892
767 1 H 10.106 16.6255 0.955371
1222 1 H 12.5989 13.9894 1.65296
2120 2 O 11.9992 13.238 1.69985
1359 1 H 11.1834 13.6252 2.01878
1682 2 O 13.7705 15.3023 0.933109
1351 1 H 18.3433 13.9458 1.18197
1060 1 H 15.2797 14.1298 3.56782
484 1 H 13.6352 16.2929 1.20078
1970 2 O 15.5864 15.0304 3.36105
1091 1 H 15.3029 15.368 2.44848
1081 1 H 17.4988 14.3654 2.39998
980 1 H 15.8405 16.9804 0.570529
1636 2 O 18.3064 14.6075 1.90026
498 1 H 19.1512 13.8266 3.53436
1259 1 H 19.8205 15.3153 0.0677766
147 1 H 17.2299 16.4834 1.0605
1865 2 O 19.5261 13.503 4.38781
612 1 H 23.0158 17.5217 0.534933
1539 2 O 21.4757 16.033 1.87602
198 1 H 21.9688 15.5161 2.53172
37 1 H 20.6503 15.5675 1.88508
483 1 H 24.0588 17.5773 34.0704
877 1 H -1.061 17.3943 1.19209
316 1 H -0.114385 19.4323 0.210864
1875 2 O 2.20831 20.0793 2.72697
870 1 H 2.28638 19.2888 3.25381
709 1 H 2.84405 19.9454 1.96956
1598 2 O 0.0404949 18.4675 0.538655
315 1 H 0.878422 18.5463 1.09694
1923 2 O 3.62619 19.5092 0.480397
966 1 H 3.58996 18.5739 0.721283
863 1 H 5.23778 17.0683 3.07928
1872 2 O 5.71489 17.8149 3.50932
864 1 H 5.27678 18.5837 3.07318
14 1 H 7.46646 20.6252 2.39848
1285 1 H 4.59006 19.6635 0.387586
13 1 H 8.6864 19.5995 1.9384
1447 2 O 8.36495 20.2714 2.59235
298 1 H 8.40307 18.2666 3.47329
117 1 H 11.1672 17.7584 4.07287
207 1 H 11.4789 1.16422 1.78695
1819 2 O 11.9984 18.2735 4.25063
426 1 H 11.781 18.073 1.61991
1653 2 O 12.2344 18.7921 1.13057
425 1 H 11.463 19.298 0.825939
1560 2 O 14.7802 17.9332 2.01709
239 1 H 15.5653 18.3874 2.40758
829 1 H 16.8044 0.582837 0.508136
1459 2 O 16.1335 19.5971 3.41649
38 1 H 15.1937 19.9069 3.60567
1855 2 O 17.2072 20.589 1.16052
830 1 H 16.4673 20.1797 1.62059
1989 2 O 19.6524 19.4756 2.16643
1098 1 H 18.7571 19.8622 1.93923
1097 1 H 19.4548 18.913 2.94019
1746 2 O 23.9054 17.7976 0.297441
367 1 H -2.68292 18.7959 2.64456
1624 2 O -3.27234 19.4185 3.11279
368 1 H -2.97546 19.414 4.06407
649 1 H -0.452252 19.6583 3.56394
246 1 H -2.94064 2.63689 3.20701
1113 1 H -2.20714 1.81882 5.62788
1643 2 O -2.54199 2.84399 4.06723
1205 1 H -1.68929 3.2565 3.756
745 1 H -2.07084 2.98734 8.22673
2074 2 O -1.90916 1.10753 6.27012
297 1 H -2.33461 1.38329 7.15596
7 1 H 0.925627 1.38864 3.94676
1684 2 O 1.68295 1.90861 4.28274
967 1 H 4.96181 20.2049 5.61049
617 1 H 4.77683 20.5405 3.3841
45 1 H 5.46913 3.32106 3.17827
1616 2 O 4.76462 3.01473 5.63944
351 1 H 4.05609 2.35399 5.85308
900 1 H 7.00084 0.577407 4.19051
1814 2 O 6.81108 1.20381 4.89592
840 1 H 8.026 2.88965 6.03858
883 1 H 10.2457 2.00332 3.90141
436 1 H 9.95242 2.14741 5.41882
1658 2 O 10.4297 2.59917 4.64874
47 1 H 12.6358 2.38567 4.67749
1722 2 O 11.7479 0.695654 6.91633
564 1 H 11.3429 0.256255 6.13809
48 1 H 14.1169 2.78359 4.77196
521 1 H 14.9079 0.294995 7.2584
1365 1 H 16.6836 2.55285 4.99674
1483 2 O 15.9532 2.40604 5.69038
406 1 H 16.1242 3.25472 6.13623
522 1 H 15.5448 0.54116 5.89586
2001 2 O 19.5733 1.04496 5.59814
666 1 H 18.6328 20.076 5.27064
354 1 H 20.1264 1.11215 4.81533
161 1 H 18.9295 1.72736 5.41067
2147 2 O 22.6383 1.24597 4.65302
1253 1 H 22.0257 0.522653 4.26888
1414 1 H 22.1631 1.47745 5.52889
85 1 H 22.5335 3.46696 6.5928
2112 2 O -0.0431449 4.13517 4.88207
758 1 H 0.194406 9.10193 5.90323
1158 1 H 3.51686 6.29416 3.76742
1343 1 H -0.298638 4.94887 4.33038
1317 1 H 0.770165 3.7203 4.54835
804 1 H 2.37372 5.68624 5.80154
1842 2 O 2.50105 5.05657 6.49061
835 1 H 2.53752 4.14022 6.19429
352 1 H 5.0625 3.47863 6.44343
1076 1 H 4.0074 6.6172 6.26759
597 1 H 5.47981 6.72614 5.88532
110 1 H 6.33244 5.32558 3.81796
1495 2 O 6.85543 5.81837 4.42154
2100 2 O 8.39537 3.76363 6.2953
109 1 H 7.10461 5.17319 5.08051
839 1 H 9.34816 3.75675 6.53862
1464 2 O 13.1781 3.14018 4.99149
1646 2 O 13.2688 5.83217 3.93895
412 1 H 12.9082 4.96974 4.24367
411 1 H 12.4831 6.45863 3.93395
915 1 H 14.0861 6.73022 5.34444
1730 2 O 15.7617 5.61414 3.14215
580 1 H 14.903 5.44107 3.52537
384 1 H 17.629 5.6319 4.19806
383 1 H 18.8873 4.72776 4.22495
1632 2 O 18.5229 5.56077 4.60796
667 1 H 20.6591 7.49411 4.90724
1528 2 O 22.919 5.74423 3.73785
563 1 H -2.81 3.86927 5.45779
1498 2 O -3.20956 4.56209 6.06601
116 1 H 23.8147 5.08296 5.29346
1987 2 O 20.8321 5.72496 6.29819
175 1 H 23.6326 6.19492 3.18215
282 1 H -1.56838 6.61372 2.91123
277 1 H 0.127765 7.64012 5.61252
1899 2 O 0.470881 8.45131 5.18107
281 1 H -2.01488 6.7474 4.31373
885 1 H -2.53328 8.48309 7.48516
1963 2 O -3.37079 8.93904 7.25817
658 1 H -0.987699 10.943 6.7782
2019 2 O 2.56395 6.521 3.849
997 1 H 2.53294 7.4679 3.86897
523 1 H 2.68026 9.53012 5.05602
524 1 H 4.31204 8.99922 4.8858
1702 2 O 3.40393 9.36877 4.38627
372 1 H 7.12828 9.41932 2.85466
708 1 H 6.16571 7.989 7.47601
739 1 H 7.50736 7.38241 7.90181
627 1 H 7.06341 9.04304 5.35507
1450 2 O 6.60014 9.65545 4.7833
1794 2 O 7.09276 7.92162 7.25125
388 1 H 10.4394 7.48691 3.19883
1634 2 O 11.2672 7.84338 3.48587
1861 2 O 9.78232 9.12633 5.68706
842 1 H 10.4839 8.93935 5.0154
451 1 H 16.3501 8.87861 6.48356
1947 2 O 15.8429 9.57076 4.87699
853 1 H 15.6605 8.9197 4.17075
420 1 H 16.5715 7.92207 7.82522
1774 2 O 20.4399 8.04706 4.15105
668 1 H 21.282 8.46263 3.9602
74 1 H 19.472 9.79108 8.65741
1477 2 O 18.9717 10.1073 7.89995
176 1 H 22.3563 6.50701 3.89658
145 1 H 23.4426 8.7447 5.65272
1094 1 H 21.5614 5.48946 6.90622
960 1 H 23.6919 9.04452 4.10551
1920 2 O 23.0208 8.67722 4.76555
692 1 H -1.28559 11.7189 3.63644
1868 2 O 1.04233 12.0684 4.4216
855 1 H 1.0007 11.206 4.94908
2096 2 O -2.55894 11.6456 6.3713
1311 1 H -2.67231 11.7091 5.34035
280 1 H -0.728606 13.4603 4.84305
1705 2 O -0.235821 10.3583 7.08562
689 1 H 0.628044 10.8809 7.27716
437 1 H 4.17111 11.5951 4.00625
154 1 H 4.39173 13.0602 4.5797
1739 2 O 4.36986 12.0687 4.86652
1882 2 O 6.88678 12.4537 5.86062
1331 1 H 6.26828 12.6028 6.62649
884 1 H 6.63511 13.2238 5.32968
516 1 H 9.43078 11.4765 3.46828
547 1 H 8.64539 9.99086 3.61696
20 1 H 6.64928 10.5314 5.17308
773 1 H 8.55 12.6956 4.95505
1907 2 O 9.31633 12.9951 4.46598
1998 2 O 11.1545 11.1954 6.58029
1115 1 H 10.5861 10.391 6.30453
1017 1 H 11.8676 12.5488 5.69712
1949 2 O 12.2172 13.0966 4.96079
1018 1 H 11.9719 12.6096 4.16481
2005 2 O 14.8531 12.7233 4.27672
1130 1 H 13.9397 12.5563 4.55969
1129 1 H 15.3659 12.6869 5.10241
1334 1 H 16.4146 10.2207 4.56256
73 1 H 18.3518 9.32286 7.58757
529 1 H 20.4249 13.0947 4.17132
2038 2 O 22.0034 12.0149 3.97152
1215 1 H 21.8439 11.9054 4.94122
1196 1 H 21.3612 11.4777 3.49723
1058 1 H 23.8068 14.3146 3.03633
642 1 H 0.136731 17.6244 4.08296
1580 2 O -0.907071 14.1421 5.56423
1873 2 O 23.6999 13.583 2.42087
609 1 H 0.376617 16.0809 3.61345
209 1 H -0.200006 16.6116 5.96549
1505 2 O 0.571822 16.8085 4.34696
866 1 H 2.06248 17.3191 4.90322
1290 1 H 0.655356 14.4623 6.36668
983 1 H 4.29332 15.9673 4.66939
2109 2 O 3.97859 15.0157 4.70937
1338 1 H 3.32974 15.0395 5.46264
334 1 H 6.63713 15.0337 3.54247
1607 2 O 7.47624 15.0938 4.0343
333 1 H 7.2534 15.5722 4.86281
624 1 H 9.33455 17.0099 3.50489
2116 2 O 8.00979 16.3003 6.3639
934 1 H 8.97258 13.9421 4.26686
1589 2 O 9.33884 17.9092 3.16665
871 1 H 9.01494 16.3869 6.10464
1114 1 H 11.0748 14.8081 5.27292
1997 2 O 10.6409 15.702 5.17762
1268 1 H 11.1172 16.2394 5.85158
535 1 H 14.5651 15.9367 4.62551
536 1 H 13.1482 15.811 5.32874
1708 2 O 13.8994 16.3918 5.18427
1140 1 H 17.4315 15.5659 4.90114
1167 1 H 17.2115 13.254 6.57295
2010 2 O 18.0811 15.4435 5.5723
307 1 H 18.6323 14.6035 5.20566
379 1 H 18.0954 16.4801 7.27189
337 1 H -2.71374 15.6007 4.14353
466 1 H 23.7685 15.0264 5.09236
1442 2 O 23.3525 14.3023 6.85513
18 1 H 23.3015 13.299 6.73258
2033 2 O -2.80976 18.8858 5.89238
418 1 H -2.86357 19.833 5.95327
225 1 H -1.88298 18.7441 5.96731
1444 2 O 4.16436 20.5241 5.0571
968 1 H 3.60932 19.7405 5.15713
650 1 H -0.103659 19.7557 5.18125
1537 2 O 3.01413 17.8254 5.01709
673 1 H 2.96109 17.8031 6.1368
1765 2 O -0.353518 19.1934 4.37919
70 1 H 6.58564 18.4211 5.32865
1475 2 O 6.68078 19.1552 5.9429
872 1 H 7.70342 17.2406 6.29856
102 1 H 9.26533 20.1269 4.15926
1491 2 O 9.75659 20.3299 5.04356
1825 2 O 13.6402 20.3129 4.15029
1249 1 H 13.7336 20.4822 5.1173
598 1 H 12.7202 17.6802 4.25826
1282 1 H 12.9904 19.5463 4.12387
421 1 H 10.0886 19.4538 5.30085
725 1 H 14.5568 17.1587 6.8178
1701 2 O 15.0775 20.4723 6.44536
357 1 H 16.6038 19.4612 4.29584
1244 1 H 15.3344 18.5558 6.66763
1409 1 H 19.9929 16.8117 3.73764
1905 2 O 19.7026 17.665 4.08342
962 1 H 19.2203 17.6053 4.93972
1773 2 O 17.9662 19.3402 5.26653
665 1 H 17.8739 19.3284 6.27935
299 1 H 21.2406 18.4006 4.43133
1529 2 O 23.9074 15.737 4.42726
300 1 H 22.8079 18.7421 4.83347
1590 2 O 21.8467 19.0069 4.99201
724 1 H 21.6073 18.7867 6.55708
1041 1 H 0.108867 0.554896 6.43968
1813 2 O -2.72218 2.33139 8.5019
746 1 H -2.58158 2.05639 9.40518
2121 2 O 0.845867 20.6042 6.44554
1010 1 H 0.695437 20.208 7.35052
25 1 H 2.05513 1.37225 6.39701
26 1 H 2.35785 2.16798 7.73986
1453 2 O 2.43402 2.23937 6.77077
177 1 H 1.73457 0.926839 9.28052
1449 2 O 2.56227 1.22738 9.66949
772 1 H 0.0626171 4.15194 7.5591
219 1 H 5.62296 0.732145 7.35261
1550 2 O 5.9991 1.32026 8.03233
182 1 H 4.16483 4.43353 8.10806
1141 1 H 4.84181 2.92218 8.45963
1611 2 O 4.99158 3.93728 8.41213
1858 2 O 10.8135 3.52496 7.63566
867 1 H 11.0696 2.69544 8.08991
220 1 H 5.91719 0.742134 8.81597
1798 2 O 8.67429 2.34842 9.29602
715 1 H 9.03773 3.07985 8.76174
716 1 H 8.00192 1.96811 8.72668
836 1 H 11.3335 4.18823 8.1358
1956 2 O 11.0666 20.4767 11.0111
552 1 H 11.7504 0.515052 10.7816
364 1 H 12.8528 4.60532 6.88578
722 1 H 9.56404 4.08121 12.0873
1435 1 H 13.2913 1.96759 7.54189
2060 2 O 14.1357 2.01734 7.94474
1240 1 H 14.3672 3.03888 7.90932
435 1 H 16.6082 1.595 7.88826
2154 2 O 17.1507 1.82054 8.65161
961 1 H 19.2857 3.00068 10.1432
754 1 H 19.6708 0.497528 9.37027
1428 1 H 17.9838 2.16326 8.22854
1613 2 O 18.3172 0.431112 10.6309
345 1 H 17.6554 0.372793 9.98943
566 1 H 23.1046 2.68748 7.75779
1803 2 O 22.282 2.75057 7.15376
489 1 H 21.8863 0.207679 9.25875
785 1 H 20.1446 0.663138 7.88401
1753 2 O 20.3619 0.921039 8.81759
1826 2 O -0.851194 4.52928 7.53525
208 1 H 1.93747 4.31801 10.6067
10 1 H -2.88367 5.62386 8.76936
173 1 H 2.38439 6.09851 9.49951
643 1 H -1.29308 4.56576 6.67261
174 1 H 1.8007 5.21493 8.42401
1527 2 O 1.56883 5.53235 9.34005
1284 1 H -0.695859 6.59072 7.65377
2059 2 O 4.65386 7.18678 5.83582
1584 2 O 4.09543 5.86362 10.4804
287 1 H 4.59102 5.0266 10.5908
288 1 H 4.79423 6.57295 10.5477
2004 2 O 7.54322 5.32809 8.99326
648 1 H 7.99647 5.05827 8.13125
647 1 H 6.60941 5.08358 8.75562
403 1 H 6.80179 6.79926 10.5802
1092 1 H 10.7712 6.7762 7.5866
1674 2 O 14.2908 7.17238 6.2306
1622 2 O 13.342 4.85591 7.70022
963 1 H 11.4471 6.42616 6.38536
363 1 H 13.7595 5.72858 7.50095
1986 2 O 10.5127 6.42968 6.72498
1835 2 O 13.6203 3.90751 12.2166
1328 1 H 17.467 5.09553 6.25567
2104 2 O 16.632 4.91923 6.73903
1327 1 H 15.9607 5.51955 6.47189
216 1 H 16.192 6.19621 9.9091
215 1 H 16.9592 5.33589 8.82389
1548 2 O 17.0569 6.12346 9.41355
1703 2 O 19.7346 7.28416 8.68064
1336 1 H 19.9423 4.21945 6.78449
2108 2 O 19.628 3.61856 7.50836
1335 1 H 20.4556 3.26383 7.91236
9 1 H 23.9519 4.92299 7.69925
1413 1 H 20.138 6.12325 6.82918
1445 2 O 23.856 5.09965 8.66721
706 1 H 22.5786 6.52961 9.1002
711 1 H 22.6998 3.86934 9.99056
1315 1 H -0.255981 7.8968 7.92537
2082 2 O -1.07183 7.43152 7.96361
1569 2 O -1.17246 9.58254 9.99592
1238 1 H -1.97376 9.93697 10.4898
737 1 H -0.505666 9.51335 10.6847
815 1 H 4.78055 8.73234 9.56799
992 1 H 4.78929 10.5486 7.71037
816 1 H 3.34833 9.20921 9.11624
1848 2 O 4.33512 9.2715 8.89977
1319 1 H 6.78198 10.5593 10.1975
1620 2 O 7.36905 10.5165 9.40459
1320 1 H 7.02968 9.64656 9.06609
793 1 H 9.35152 10.4872 9.76004
841 1 H 9.69763 8.2399 6.23108
468 1 H 13.8994 8.161 6.21519
151 1 H 11.8548 8.2899 9.70262
360 1 H 13.2194 9.93065 8.04801
2078 2 O 12.3547 9.90028 10.0776
1275 1 H 11.4269 10.0914 9.90933
1516 2 O 11.7267 7.31962 9.52618
152 1 H 10.9069 7.10472 10.0489
359 1 H 12.7495 10.3808 6.75903
1860 2 O 13.2683 9.67773 7.13264
952 1 H 13.1768 6.51504 10.0967
1900 2 O 14.1011 6.54248 10.4582
920 1 H 14.2345 7.42203 10.7335
1669 2 O 15.523 9.80476 9.77718
1650 2 O 16.7846 8.79713 7.39786
526 1 H 19.4348 6.3343 8.89131
525 1 H 20.592 7.40402 9.20824
457 1 H 16.4623 9.4603 9.75402
458 1 H 15.4249 9.85552 8.74582
1366 1 H 23.4481 8.83797 7.93898
465 1 H 22.641 10.4909 10.1624
1312 1 H -3.06349 10.8814 6.77027
1242 1 H -1.27716 13.8746 8.70427
417 1 H -0.743268 11.5386 9.33732
2129 2 O -0.13238 12.1924 9.73754
604 1 H 1.73119 12.8436 7.61919
603 1 H 2.67567 11.5936 7.32746
1742 2 O 1.8057 11.8466 7.75763
130 1 H 0.805305 11.9619 9.48551
1936 2 O 4.40464 11.3645 7.39668
991 1 H 4.53234 11.4373 6.37784
292 1 H 4.74837 12.3762 9.04143
1586 2 O 4.38238 12.6311 9.94825
1358 1 H 10.0088 12.9573 8.94828
2083 2 O 8.53376 12.9205 8.8792
1125 1 H 8.2725 12.6108 7.96364
1286 1 H 8.13587 13.8122 8.86771
1116 1 H 11.0059 11.4273 7.51828
1276 1 H 12.7073 10.7562 10.4204
2119 2 O 11.0806 12.8407 8.92004
1357 1 H 11.19 12.8515 9.85352
2024 2 O 16.6491 12.4726 6.41329
1168 1 H 16.0858 12.343 7.14624
2028 2 O 14.8854 13.4761 8.30728
1175 1 H 14.6331 13.04 9.13811
1176 1 H 13.9935 13.9148 7.98793
576 1 H 20.6003 10.9075 7.00221
1621 2 O 19.291 12.9428 8.19733
361 1 H 18.5954 13.5338 8.46935
362 1 H 18.8222 12.0553 8.23666
453 1 H 19.9709 13.5919 10.0367
575 1 H 20.7915 12.4673 7.14838
1609 2 O 23.1885 11.4688 8.98683
146 1 H 22.5436 11.5723 8.22742
17 1 H 23.1897 12.3854 9.29943
1728 2 O 21.2741 11.6265 6.94198
178 1 H -1.16933 16.4604 7.09812
279 1 H -1.34341 13.6125 6.28621
1241 1 H -2.13384 14.8014 9.52721
2061 2 O -1.95612 14.6076 8.59051
1465 2 O -0.613398 17.1356 6.63754
517 1 H -2.72229 18.3913 7.75904
1779 2 O -2.47395 17.9003 8.56904
30 1 H 0.0767433 17.4662 8.36066
2085 2 O 1.42562 14.4001 7.01081
1289 1 H 1.64638 15.2897 7.23985
29 1 H 0.693839 17.478 9.83413
1455 2 O 0.726564 17.8909 8.94902
784 1 H 3.30064 16.5025 7.90072
2143 2 O 4.22329 14.9917 7.79559
599 1 H 4.12436 14.0268 7.92838
1405 1 H 5.08767 15.1035 8.25547
1863 2 O 6.8988 15.3254 9.32768
846 1 H 7.77231 15.7781 9.36741
1852 2 O 9.36082 16.8325 9.55616
824 1 H 9.49285 17.028 10.5143
269 1 H 11.8417 14.1684 8.0047
2135 2 O 12.6027 16.0385 10.5366
276 1 H 12.5011 15.3478 8.76736
1362 1 H 10.4591 17.8785 8.10556
1575 2 O 12.5249 14.863 7.87434
1389 1 H 12.5804 16.9682 10.337
1069 1 H 16.4122 14.1242 9.03958
380 1 H 16.594 17.0843 7.52377
1975 2 O 17.3379 14.4677 9.36492
1070 1 H 17.3762 15.3243 8.86255
1630 2 O 17.5392 16.9692 7.88038
1699 2 O 22.9275 13.8681 10.2322
518 1 H 22.7339 14.6725 9.62787
1500 2 O 22.7389 16.4254 9.16609
120 1 H 23.5411 17.0061 9.13883
4 1 H -3.30034 14.3503 7.35644
119 1 H 22.2003 16.9171 9.81706
678 1 H -2.42466 18.5602 9.31968
67 1 H -0.411863 20.5656 9.78212
88 1 H -3.06535 20.0338 10.6207
783 1 H 2.20675 17.6356 8.05063
36 1 H 0.401449 19.5426 9.17395
1458 2 O 0.391138 20.5482 9.17496
1832 2 O 3.07958 17.455 7.66095
42 1 H 3.75489 17.5459 10.5517
389 1 H 7.42541 19.6771 5.72491
538 1 H 6.10614 16.8909 9.97902
1709 2 O 5.75378 17.78 10.2457
1461 2 O 2.94229 17.5911 11.0346
448 1 H 8.91756 20.2341 9.31754
823 1 H 9.01158 17.7297 9.26318
148 1 H 8.73989 19.6482 7.7784
1514 2 O 8.49156 19.5209 8.71244
2057 2 O 10.47 17.8608 7.13104
1011 1 H 12.3309 20.7233 7.25793
1393 1 H 11.3267 18.3353 7.06987
1144 1 H 13.025 19.2734 9.07838
2012 2 O 12.8621 19.2881 8.12555
551 1 H 11.3314 20.0522 11.868
2062 2 O 15.0102 17.8985 7.38232
1143 1 H 13.7333 18.8937 7.81533
265 1 H 16.9134 16.753 9.7921
987 1 H 19.9343 18.7452 7.65719
989 1 H 18.564 18.905 8.41455
1934 2 O 19.0871 19.212 7.67525
1171 1 H 21.7541 17.5997 7.53494
1802 2 O 21.6036 18.5294 7.57071
490 1 H 22.3611 19.4775 9.51667
1685 2 O 22.5708 20.3435 9.76963
233 1 H -1.64452 1.62039 11.4469
2068 2 O -0.0791434 1.41475 11.8811
776 1 H 0.340213 2.26383 11.6348
1224 1 H 0.105859 1.30084 12.8684
1557 2 O -2.52394 2.02185 11.2091
234 1 H -3.14638 1.27973 11.0921
306 1 H 2.28339 2.06982 10.1233
1204 1 H 3.95367 1.37714 10.4349
2042 2 O 4.67862 1.70004 11.0316
1185 1 H 4.35221 2.61708 12.2153
211 1 H 5.36871 1.04922 11.0362
1973 2 O 6.71855 20.4802 11.1907
509 1 H 7.40028 3.17089 12.4914
1695 2 O 7.76316 3.79647 11.812
1066 1 H 6.49248 20.0389 12.0163
510 1 H 7.78339 3.38103 10.9396
1065 1 H 7.46355 0.27207 11.4949
1781 2 O 9.1529 0.92797 12.5361
681 1 H 9.84836 0.589733 11.8553
682 1 H 9.42153 1.84011 12.7124
753 1 H 10.7679 3.28689 11.4943
1737 2 O 10.5655 4.00902 12.1258
1957 2 O 14.4891 2.29388 14.0939
258 1 H 13.1497 2.53583 10.8794
1974 2 O 12.9697 1.83649 10.2613
1067 1 H 13.3651 2.06222 9.40526
1133 1 H 17.7483 1.58098 13.2299
1132 1 H 17.6392 2.71964 11.2387
1403 1 H 13.9617 19.5955 10.9763
532 1 H 19.4896 1.93276 11.2057
1706 2 O 19.3472 2.84982 11.096
2007 2 O 18.6248 1.87179 13.4842
1134 1 H 18.948 1.13089 14.0012
720 1 H 19.6216 3.67745 13.301
712 1 H 21.6363 2.76783 10.0853
217 1 H 23.7062 0.224864 13.4176
1549 2 O 23.1765 20.2859 12.9364
571 1 H -2.00065 7.69404 10.6976
101 1 H -2.38548 3.8362 11.8274
572 1 H -2.34742 6.34868 11.3572
1571 2 O -2.47409 4.71363 12.2747
1544 2 O 1.75022 3.50282 11.1561
1884 2 O 0.518807 7.20102 12.0055
887 1 H 0.804367 6.2819 12.078
1195 1 H 2.52222 3.31895 11.7269
1804 2 O 2.1935 5.08067 13.5656
727 1 H 2.00972 5.60194 14.3888
728 1 H 3.07424 5.0196 13.2292
1793 2 O 4.29064 3.39105 12.8568
2138 2 O 6.23256 7.56055 10.5007
573 1 H 8.63824 6.08452 13.8833
1551 2 O 11.485 3.19808 14.6069
1396 1 H 6.31646 7.86039 11.4864
574 1 H 7.21003 5.97089 13.347
1727 2 O 7.94873 6.51202 13.3072
1755 2 O 9.11063 7.1597 10.9197
222 1 H 10.9592 3.60308 13.8204
432 1 H 8.73701 6.74076 11.7001
2102 2 O 11.4302 6.43116 13.1899
630 1 H 13.8839 4.74309 11.7643
1034 1 H 15.0603 2.68048 14.7803
1131 1 H 16.1655 2.44833 10.9392
149 1 H 14.3264 3.58439 12.7493
1020 1 H 16.752 4.18625 12.8774
2006 2 O 16.7352 2.79252 11.6277
1950 2 O 16.5622 5.05599 13.2947
404 1 H 14.6945 6.56947 14.8135
1236 1 H 18.3226 5.57982 11.5545
2058 2 O 19.2839 5.664 11.3531
243 1 H 19.6941 4.82678 11.3432
33 1 H 16.8865 6.5699 13.1495
226 1 H 17.1413 7.73946 12.0756
719 1 H 19.6439 5.10128 13.6108
1800 2 O 19.7621 4.26709 14.061
2036 2 O 21.926 3.55436 10.5294
262 1 H -3.44016 4.64671 12.5843
1398 1 H 21.8035 5.69925 13.0851
1152 1 H 22.0753 3.11286 12.5883
2016 2 O 22.3283 3.18679 13.5158
513 1 H 21.7939 6.48133 10.4329
1979 2 O 22.0239 6.43123 12.4383
917 1 H 22.8453 6.88439 12.6667
888 1 H -0.453769 7.14421 12.1769
1726 2 O -2.12981 7.31357 11.5873
1030 1 H 0.913108 10.2039 12.6707
1955 2 O 0.290327 10.9455 12.273
1718 2 O 1.59164 8.74592 9.85403
556 1 H 1.30168 7.84642 9.80961
555 1 H 1.51882 8.83262 10.8134
1349 1 H 0.933884 11.4088 11.6905
2053 2 O 2.40355 8.99147 12.9387
1731 2 O 5.43089 8.63694 12.6262
901 1 H 5.46161 8.63529 13.5752
1402 1 H 3.33835 8.63748 12.7096
582 1 H 5.7266 9.52647 12.3556
950 1 H 8.50402 7.9195 10.8154
794 1 H 9.22656 10.4278 11.4231
1837 2 O 9.8372 10.1321 10.5739
1344 1 H 12.2676 6.7292 13.7138
1208 1 H 11.2549 9.54646 12.1684
1207 1 H 10.8963 8.22004 12.7635
2044 2 O 11.1401 9.13838 13.0728
655 1 H 14.5295 11.2958 10.1585
851 1 H 14.4257 6.91435 13.224
1642 2 O 14.0505 6.98178 14.169
2092 2 O 16.1399 11.034 12.8074
1304 1 H 15.3464 10.8129 13.2856
1303 1 H 16.0952 10.2587 12.0872
1467 2 O 18.0764 8.77028 10.7417
1333 1 H 18.5466 8.10803 10.1702
374 1 H 18.7847 9.42223 11.0574
1937 2 O 16.8976 7.56437 13.0065
1457 2 O 22.2182 7.10018 9.795
434 1 H 22.2171 9.02935 10.5441
1593 2 O 22.2978 9.98809 10.9412
66 1 H 20.7947 10.4337 11.4518
353 1 H 19.7257 10.6112 12.6099
1361 1 H 22.3117 10.8756 13.0379
1960 2 O -1.1744 13.4454 12.0053
1040 1 H -1.41339 12.6266 12.499
1039 1 H -0.777598 13.3012 11.0999
940 1 H 3.02 11.0666 13.5277
1910 2 O 3.73756 11.6715 13.8269
939 1 H 3.40056 12.5479 14.167
732 1 H 5.4205 11.7918 11.3333
1806 2 O 5.50651 11.1091 11.9854
731 1 H 4.89055 11.2948 12.7525
163 1 H 3.53196 12.1307 9.87723
1629 2 O 8.5372 10.9496 12.8665
378 1 H 7.73311 11.391 12.5538
377 1 H 8.31552 10.1929 13.454
480 1 H 10.7034 11.7071 11.5791
1363 1 H 7.10911 14.1613 12.4965
1680 2 O 10.8799 12.6208 11.8894
479 1 H 11.6783 12.6147 12.5395
1637 2 O 13.0637 12.1362 13.1216
1768 2 O 14.0838 12.1026 10.4114
656 1 H 14.0432 12.104 11.3963
393 1 H 13.5586 12.9671 13.3004
1397 1 H 17.5943 11.0965 13.3848
1507 2 O 20.4099 13.4422 10.9077
837 1 H 22.023 13.694 10.6389
2097 2 O 19.9123 10.8192 11.6313
2041 2 O 22.5611 10.392 13.895
134 1 H 20.213 12.4887 11.0173
1330 1 H 21.7647 10.1176 14.4801
366 1 H -2.14319 14.6658 12.0344
365 1 H 24.0673 14.683 11.2731
1623 2 O -2.93472 15.2572 11.9469
507 1 H -3.29651 16.8464 12.6211
539 1 H 3.46059 15.3483 11.9923
577 1 H 0.420868 14.0291 13.1976
608 1 H 0.564952 15.5709 12.8507
1517 2 O 0.661272 14.8936 13.5997
1710 2 O 3.66089 14.3885 12.1671
540 1 H 3.52975 14.0564 11.2514
845 1 H 6.96715 14.7921 10.1722
1147 1 H 5.671 15.6809 13.5635
1898 2 O 7.20441 15.0726 12.1852
916 1 H 8.20132 15.2351 12.1645
626 1 H 10.675 15.2251 12.6584
1849 2 O 9.95874 14.965 11.9797
1406 1 H 11.6422 15.821 10.7777
497 1 H 10.0967 13.9916 11.9333
2017 2 O 12.3287 15.1635 13.3143
386 1 H 12.6615 15.3634 12.3625
193 1 H 12.1908 15.9641 13.8512
266 1 H 16.3495 16.109 11.1355
1371 1 H 15.6979 13.0247 11.8989
2126 2 O 15.2571 13.8165 12.2911
1372 1 H 15.872 14.36 12.8505
31 1 H 20.0217 14.5941 13.5178
58 1 H 17.7221 15.8956 13.3404
32 1 H 19.6856 14.7515 12.0448
1456 2 O 19.7639 15.3081 12.8457
567 1 H 20.5092 16.6849 11.6145
644 1 H 23.8449 13.3362 13.8889
1762 2 O 22.9889 13.7644 13.6144
675 1 H 23.439 14.5042 13.1982
87 1 H -1.92845 19.7165 11.5803
508 1 H -2.50602 17.6575 13.7811
1694 2 O -3.23734 17.7182 13.0712
1484 2 O -2.12415 19.7526 10.6401
623 1 H -0.838348 19.9261 14.2991
1364 1 H -0.279544 17.578 12.0824
1752 2 O -0.797227 19.4722 13.4157
1111 1 H 0.139363 19.6902 13.1775
371 1 H 1.28429 17.5023 11.5785
2122 2 O 0.37748 17.1403 11.4852
514 1 H 2.53496 20.3351 13.2732
1601 2 O 2.0857 19.8801 12.5202
801 1 H 1.9067 20.584 11.8563
537 1 H 6.4528 18.4664 10.0211
41 1 H 3.13127 18.1509 11.7601
1563 2 O 5.73512 18.7323 13.0084
86 1 H 5.60079 18.0607 12.2688
94 1 H 9.22921 20.571 14.2748
1045 1 H 6.62805 18.5182 13.3932
1745 2 O 9.18031 18.2562 12.0202
1089 1 H 8.83283 17.971 12.8653
1122 1 H 8.94608 19.1696 12.0071
1712 2 O 11.7289 18.5451 12.8748
543 1 H 10.8776 18.3247 12.5557
544 1 H 12.2918 18.5899 12.0274
1573 2 O 16.5656 16.9824 10.7208
1914 2 O 13.5292 18.7786 10.6618
948 1 H 14.3878 18.2708 10.9459
413 1 H 15.3706 17.604 13.3
1053 1 H 17.6781 17.8505 11.2827
1028 1 H 19.2483 18.1686 11.5537
1724 2 O 20.7547 17.5673 11.1794
346 1 H 18.3484 20.1743 11.0876
1954 2 O 18.3264 18.5274 11.6072
1009 1 H 19.7535 19.2611 13.9665
2105 2 O 18.8469 19.6111 14.2694
978 1 H 18.2495 19.4135 13.4836
568 1 H 21.0491 18.0817 11.9653
218 1 H 23.5502 19.3565 13.1142
570 1 H 22.0242 19.3358 13.5584
1725 2 O 21.3356 18.6337 13.467
569 1 H 21.4382 17.9734 14.247
127 1 H -0.23518 2.68257 14.837
1807 2 O -1.73999 0.178697 16.006
733 1 H -2.55396 0.89297 15.941
734 1 H -1.04633 0.88787 16.375
200 1 H -1.99168 2.573 17.4356
1504 2 O 0.305883 1.90963 14.5724
341 1 H 0.199409 3.48697 17.7545
128 1 H 1.24455 1.91247 14.9241
1988 2 O 3.39389 2.09066 15.0407
615 1 H 3.85974 2.22185 15.9518
616 1 H 3.36925 1.10007 14.9862
1378 1 H 3.93208 2.95363 13.7081
1691 2 O 1.08151 3.85833 17.372
1250 1 H 6.9338 2.90797 15.0346
1057 1 H 7.7384 2.55717 16.3826
273 1 H 9.63057 0.297972 16.3409
1729 2 O 7.12499 2.21379 15.7284
1497 2 O 9.5733 0.705922 17.2377
1033 1 H 15.0071 1.48758 13.7613
314 1 H 12.9265 1.31887 15.5594
1597 2 O 12.5265 0.508567 15.8516
313 1 H 12.1013 0.901058 16.6204
192 1 H 11.3175 3.55647 16.5837
1536 2 O 11.7392 3.55732 17.401
949 1 H 14.942 3.5226 17.2401
1870 2 O 16.4552 1.15682 16.297
860 1 H 16.7485 0.301524 16.6004
206 1 H 16.4544 0.401488 14.7484
1543 2 O 16.2805 0.23099 13.7305
1664 2 O 20.1093 2.16487 16.874
293 1 H 20.4102 1.90971 15.9228
447 1 H 19.4789 2.8984 16.7955
2088 2 O 23.6417 1.81941 15.5291
318 1 H 22.128 20.1964 15.4678
1296 1 H 23.2279 2.28459 14.7267
1295 1 H 23.3499 2.44243 16.1707
1151 1 H 21.3626 3.32772 13.8783
103 1 H -1.73808 4.63094 14.9393
1200 1 H -2.0512 6.92111 13.707
1226 1 H -0.358471 6.21208 15.1027
1732 2 O -1.27056 3.95394 15.4595
104 1 H -1.82279 3.89131 16.1973
833 1 H -0.540144 6.21602 17.9707
2141 2 O 0.574706 6.16919 15.3334
757 1 H 0.718305 6.60901 16.2016
822 1 H 0.807314 4.38358 16.5695
15 1 H 2.98634 7.30643 17.6575
340 1 H 5.74854 4.04868 13.4936
1610 2 O 6.28865 4.50092 14.1831
944 1 H 5.63666 4.87699 14.7498
221 1 H 12.3562 3.61966 14.4936
548 1 H 9.11813 4.92544 16.6829
874 1 H 10.4664 5.56582 14.5506
1877 2 O 9.84239 5.70014 15.327
873 1 H 9.96004 6.65859 15.6832
1714 2 O 8.59799 4.34868 17.333
1324 1 H 11.6473 5.73369 12.5324
1430 1 H 13.7933 3.83688 16.3893
1995 2 O 14.7213 3.97986 16.43