LAMMPS (27 Jun 2024)
KOKKOS mode with Kokkos version 4.3.1 is enabled (src/KOKKOS/kokkos.cpp:72)
  will use up to 1 GPU(s) per node
WARNING: When using a single thread, the Kokkos Serial backend (i.e. Makefile.kokkos_mpi_only) gives better performance than the OpenMP backend (src/KOKKOS/kokkos.cpp:202)
  using 1 OpenMP thread(s) per MPI task
Reading data file ...
  orthogonal box = (0 0 0) to (20.164832 20.164648 35.107669)
  1 by 1 by 1 MPI processor grid
  reading atoms ...
  2160 atoms
  read_data CPU = 0.009 seconds
ACE/AL version: 2023.11.25
Loading /pc2/users/a/acepdw01/work/phase_diagram/pot_dir/interim_potential_ladder_step_1.yaml
Total number of basis functions
	H: 23 (r=1) 664 (r>1)
	O: 23 (r=1) 664 (r>1)
Mapping LAMMPS atom type #1(H) -> ACE species type #0
Mapping LAMMPS atom type #2(O) -> ACE species type #1
Loading ASI /pc2/users/a/acepdw01/work/phase_diagram/pot_dir/interim_potential_ladder_step_1.asi
LINEAR ASI is loaded

CITE-CITE-CITE-CITE-CITE-CITE-CITE-CITE-CITE-CITE-CITE-CITE-CITE

Your simulation uses code contributions which should be cited:
- Type Label Framework: https://doi.org/10.1021/acs.jpcb.3c08419
The log file lists these citations in BibTeX format.

CITE-CITE-CITE-CITE-CITE-CITE-CITE-CITE-CITE-CITE-CITE-CITE-CITE

Switching to 'neigh_modify every 1 delay 0 check yes' setting during minimization
Neighbor list info ...
  update: every = 1 steps, delay = 0 steps, check = yes
  max neighbors/atom: 2000, page size: 100000
  master list distance cutoff = 6.5
  ghost atom cutoff = 6.5
  binsize = 6.5, bins = 4 4 6
  1 neighbor lists, perpetual/occasional/extra = 1 0 0
  (1) pair pace/extrapolation/kk, perpetual
      attributes: full, newton on, kokkos_device
      pair build: full/bin/kk/device
      stencil: full/bin/3d
      bin: kk/device
Setting up cg/kk style minimization ...
  Unit style    : metal
  Current step  : 0
WARNING: Fix with atom-based arrays not compatible with sending data in Kokkos communication, switching to classic exchange/border communication (src/KOKKOS/comm_kokkos.cpp:754)
WARNING: Fix with atom-based arrays not compatible with Kokkos sorting on device, switching to classic host sorting (src/KOKKOS/atom_kokkos.cpp:216)
Per MPI rank memory allocation (min/avg/max) = 1829 | 1829 | 1829 Mbytes
   Step         TotEng         PotEng         KinEng         Press           Pxx            Pyy            Pzz            Temp          Volume        Density     c_max_pace_gamma
         0  -10281.845     -10281.845      0              16950.246      13433.38       21603.524      15813.832      0              14275.366      1.5088227      0.91118418   
       100  -10404.502     -10404.502      0              5518.4362      5107.9496      6174.8158      5272.5431      0              14275.366      1.5088227      0.91118418   
       200  -10407.444     -10407.444      0              5867.2069      5208.3897      6198.6611      6194.5701      0              14275.366      1.5088227      0.91118418   
       300  -10408.026     -10408.026      0              5846.0879      5362.1365      6135.7132      6040.4141      0              14275.366      1.5088227      0.91118418   
       400  -10408.22      -10408.22       0              6020.2946      5549.5378      6283.9558      6227.3902      0              14275.366      1.5088227      0.91118418   
       500  -10408.442     -10408.442      0              6196.691       5603.9673      6454.0494      6532.0562      0              14275.366      1.5088227      0.91118418   
       600  -10408.701     -10408.701      0              6089.0211      5527.7767      6403.4497      6335.8369      0              14275.366      1.5088227      0.91118418   
       700  -10408.708     -10408.708      0              6087.5343      5499.5731      6422.7767      6340.2532      0              14275.366      1.5088227      0.91118418   
       800  -10408.71      -10408.71       0              6078.1959      5487.0127      6424.5722      6323.0029      0              14275.366      1.5088227      0.91118418   
       900  -10408.71      -10408.71       0              6080.3251      5486.958       6425.8862      6328.1312      0              14275.366      1.5088227      0.91118418   
       973  -10408.71      -10408.71       0              6081.2278      5487.1747      6425.9829      6330.5256      0              14275.366      1.5088227      0.91118418   
Loop time of 9.46245 on 1 procs for 973 steps with 2160 atoms

99.8% CPU use with 1 MPI tasks x 1 OpenMP threads

Minimization stats:
  Stopping criterion = force tolerance
  Energy initial, next-to-last, final = 
     -10281.8446424671  -10408.7097760481  -10408.7097760545
  Force two-norm initial, final = 72.296861 0.00048576383
  Force max component initial, final = 4.463564 0.00017854204
  Final line search alpha, max atom move = 1 0.00017854204
  Iterations, force evaluations = 973 1941

MPI task timing breakdown:
Section |  min time  |  avg time  |  max time  |%varavg| %total
---------------------------------------------------------------
Pair    | 8.7053     | 8.7053     | 8.7053     |   0.0 | 92.00
Neigh   | 0.026904   | 0.026904   | 0.026904   |   0.0 |  0.28
Comm    | 0.062067   | 0.062067   | 0.062067   |   0.0 |  0.66
Output  | 0.0015283  | 0.0015283  | 0.0015283  |   0.0 |  0.02
Modify  | 0.41161    | 0.41161    | 0.41161    |   0.0 |  4.35
Other   |            | 0.2551     |            |       |  2.70

Nlocal:           2160 ave        2160 max        2160 min
Histogram: 1 0 0 0 0 0 0 0 0 0
Nghost:           5970 ave        5970 max        5970 min
Histogram: 1 0 0 0 0 0 0 0 0 0
Neighs:              0 ave           0 max           0 min
Histogram: 1 0 0 0 0 0 0 0 0 0
FullNghs:       372690 ave      372690 max      372690 min
Histogram: 1 0 0 0 0 0 0 0 0 0

Total # of neighbors = 372690
Ave neighs/atom = 172.54167
Neighbor list builds = 60
Dangerous builds = 0
Setting up Verlet run ...
  Unit style    : metal
  Current step  : 973
  Time step     : 0.0005
WARNING: Fix with atom-based arrays not compatible with Kokkos sorting on device, switching to classic host sorting (src/KOKKOS/atom_kokkos.cpp:216)
Per MPI rank memory allocation (min/avg/max) = 1828 | 1828 | 1828 Mbytes
   Step         TotEng         PotEng         KinEng         Press           Pxx            Pyy            Pzz            Temp          Volume        Density     c_max_pace_gamma
       973  -10298.476     -10408.71       110.2337       14329.182      13847.624      14789.298      14350.623      395            14275.366      1.5088227      0.91118418   
      1000  -10292.26      -10347.999      55.739172      13433.999      14358.194      12562.087      13381.714      199.72997      14272.935      1.5090797      0.85059983   
      1100  -10267.909     -10333.452      65.543268      21326.585      20691.159      21785.442      21503.156      234.86095      14242.322      1.5123233      0.85059983   
      1200  -10248.214     -10325.987      77.772976      23302.65       23314.553      23170.404      23422.994      278.68362      14192.356      1.5176477      0.85059983   
      1300  -10232.665     -10319.633      86.967907      27210.452      25656.546      25891.766      30083.045      311.63178      14131.308      1.524204       0.85059983   
      1400  -10219.657     -10310.2        90.543212      32520.918      32156.614      32926.566      32479.575      324.44316      14073.973      1.5304134      0.85059983   
      1500  -10211.399     -10306.471      95.071976      30834.066      30674.939      31281.912      30545.348      340.67106      14031.929      1.534999       0.85059983   
      1600  -10205.969     -10303.549      97.580298      31239.329      32481.54       29861.839      31374.607      349.65912      14008.452      1.5375715      0.85059983   
      1700  -10200.906     -10301.91       101.00347      30486.438      29940.983      29478.311      32040.021      361.92535      14002.73       1.5381998      0.85059983   
      1800  -10196.278     -10298.952      102.67388      33728.601      32447.046      32526.731      36212.026      367.91092      14013.377      1.5370311      0.85059983   
      1900  -10192.556     -10298.978      106.42273      31172.251      31000.113      32855.753      29660.888      381.34416      14038.119      1.5343221      0.85059983   
      2000  -10192.455     -10298.283      105.82723      30701.643      30418.959      29466.368      32219.602      379.21031      14070.998      1.530737       0.81623607   
      2100  -10188.481     -10295.184      106.70285      31952.87       32459.586      34527.601      28871.424      382.34792      14106.695      1.5268634      0.81623607   
      2200  -10185.825     -10295.241      109.41616      31716.076      32499.308      32651.755      29997.167      392.07053      14138.466      1.5234324      0.81623607   
      2300  -10183.071     -10293.527      110.45583      32530.633      33576.041      32420.631      31595.227      395.79595      14168.066      1.5202496      0.81623607   
      2400  -10182.338     -10292.745      110.40687      29081.467      31481.541      28321.071      27441.788      395.62053      14193.442      1.5175316      0.81623607   
      2500  -10184.936     -10295.276      110.3408       25249.028      26795.191      25472.213      23479.68       395.38377      14213.32       1.5154093      0.81623607   
      2600  -10181.992     -10292.278      110.28602      28485.149      31494.143      28862.355      25098.95       395.18747      14226.909      1.5139618      0.81623607   
      2700  -10180.856     -10290.244      109.38892      28181.568      29669.292      30513.972      24361.439      391.97291      14234.494      1.513155       0.81623607   
      2800  -10183.12      -10290.624      107.50403      26959.533      28035.363      27193.753      25649.483      385.2188       14234.983      1.5131031      0.81623607   
      2900  -10183.427     -10294.34       110.91271      23369.952      24319.121      25490.756      20299.979      397.43311      14226.931      1.5139595      0.81623607   
      3000  -10185.593     -10297.34       111.74648      27932.18       27316.04       28737.703      27742.797      400.42074      14208.682      1.5159039      0.8472145    
      3100  -10185.032     -10292.705      107.67342      29907.572      29740.685      33082.85       26899.181      385.82577      14178.323      1.5191498      0.8472145    
      3200  -10184.791     -10294.039      109.24803      29075.173      28949.789      30209.791      28065.938      391.46805      14139.849      1.5232833      0.8472145    
      3300  -10183.446     -10291.59       108.14346      27797.681      28807.038      28043.655      26542.35       387.51007      14099.494      1.5276432      0.8472145    
      3400  -10180.576     -10293.522      112.94585      28339.077      27568.899      28833.462      28614.87       404.71846      14062.197      1.531695       0.8472145    
      3500  -10181.908     -10293.405      111.49717      28899.151      29594.683      29851.126      27251.643      399.52738      14031.48       1.5350481      0.8472145    
      3600  -10182.864     -10294.72       111.8564       27398.523      26064.227      28864.771      27266.572      400.81461      14007.473      1.537679       0.8472145    
      3700  -10182.899     -10293.616      110.71742      30703.422      30603.904      30728.898      30777.463      396.73333      13990.877      1.539503       0.8472145    
      3800  -10180.666     -10292.578      111.9126       29867.112      30074.079      31116.979      28410.279      401.01601      13982.778      1.5403946      0.8472145    
      3900  -10182.361     -10292.7        110.33862      29915.811      27599.925      32332.932      29814.576      395.37596      13982.22       1.5404561      0.8472145    
      4000  -10184.548     -10293.434      108.88619      28494.363      29459.134      29279.66       26744.297      390.17147      13990.597      1.5395338      0.83584452   
      4100  -10185.471     -10294.58       109.10965      28869.919      28854.483      29070.204      28685.069      390.97219      14003.766      1.5380861      0.83584452   
      4200  -10187.012     -10298.019      111.00711      28435.924      27358.21       30337.719      27611.842      397.77137      14017.826      1.5365433      0.83584452   
      4300  -10186.336     -10294.453      108.11668      29487.744      32629.689      27203.343      28630.2        387.41409      14030.089      1.5352003      0.83584452   
      4400  -10184.917     -10297.023      112.10597      27245.677      27038.42       29284.152      25414.459      401.70892      14037.954      1.5343401      0.83584452   
      4500  -10187.842     -10297.897      110.0552       28888.429      28516.614      29702.269      28446.403      394.36039      14041.639      1.5339375      0.83584452   
      4600  -10187.975     -10297.901      109.9262       25110.181      24558.964      28115.006      22656.572      393.89813      14042.005      1.5338975      0.83584452   
      4700  -10187.729     -10296.488      108.7597       25169.076      27592.991      24465.815      23448.42       389.71821      14035.66       1.5345909      0.83584452   
      4800  -10188.793     -10299.571      110.77812      28106.497      28407.341      30297.82       25614.331      396.95081      14024.189      1.5358461      0.83584452   
      4900  -10186.946     -10296.43       109.48395      26704.447      26629.4        27688.095      25795.845      392.31342      14007.64       1.5376606      0.83584452   
      5000  -10182.625     -10295.666      113.04104      31859.612      30918.041      32971.688      31689.107      405.05956      13989.723      1.5396299      0.85781515   
      5100  -10183.922     -10295.529      111.6077       32002.236      32424.337      33328.251      30254.122      399.92345      13971.219      1.5416691      0.85781515   
      5200  -10183.562     -10296.326      112.76371      31916.906      30969.125      33109.284      31672.31       404.06579      13954.658      1.5434987      0.85781515   
      5300  -10183.294     -10297.703      114.40871      30733.841      29401.304      32595.027      30205.193      409.96029      13940.382      1.5450794      0.85781515   
      5400  -10184.639     -10298.524      113.88447      28412.404      29142.774      30157.381      25937.056      408.08179      13928.256      1.5464245      0.85781515   
      5500  -10185.628     -10298.239      112.61075      30790.321      32994.867      30600.703      28775.394      403.51769      13916.877      1.5476889      0.85781515   
      5600  -10184.092     -10296.681      112.58886      31571.714      32150.45       32529.901      30034.791      403.43924      13905.622      1.5489417      0.85781515   
      5700  -10183.766     -10299.862      116.09544      29986.851      29878.861      32451.568      27630.122      416.00437      13894.735      1.5501553      0.85781515   
      5800  -10183.753     -10297.548      113.79472      33275.934      31217.545      33570.042      35040.216      407.7602       13886.553      1.5510686      0.85781515   
      5900  -10185.412     -10298.757      113.3447       28847.492      29640.552      30334.793      26567.131      406.14766      13882.434      1.5515289      0.85781515   
      6000  -10184.99      -10296.109      111.11901      26186.326      27761.973      26804.995      23992.009      398.17233      13880.938      1.551696       0.86085263   
      6100  -10184.904     -10296.601      111.69685      25471.183      25773.827      24915.831      25723.891      400.24291      13881.705      1.5516103      0.86085263   
      6200  -10187.042     -10301.37       114.32773      27381.141      26900.625      28646.82       26595.978      409.67014      13882.263      1.5515479      0.86085263   
      6300  -10186.724     -10298.04       111.31586      29892.944      28535.688      29788.564      31354.58       398.87772      13882.472      1.5515246      0.86085263   
      6400  -10189.234     -10303.355      114.12149      26532.893      25781.324      29367.81       24449.544      408.9311       13888.56       1.5508445      0.86085263   
      6500  -10188.007     -10300.916      112.90863      29407.37       28562.865      30107.262      29551.984      404.58508      13896.435      1.5499657      0.86085263   
      6600  -10187.254     -10297.197      109.94319      30041.418      29868.523      33390.204      26865.528      393.95904      13904.39       1.5490788      0.86085263   
      6700  -10190.06      -10298.765      108.70436      29677.838      29727.681      29373.927      29931.907      389.51992      13910.618      1.5483853      0.86085263   
      6800  -10190.86      -10299.022      108.16228      28629.045      28787.552      30476.121      26623.462      387.57751      13913.499      1.5480647      0.86085263   
      6900  -10191.611     -10300.89       109.27934      27356.163      26290.092      30089.771      25688.627      391.58026      13911.296      1.5483098      0.86085263   
      7000  -10191.881     -10303.236      111.35519      30114.81       30072.692      31483.991      28787.746      399.01863      13903.716      1.5491539      0.85662543   
      7100  -10191.994     -10299.894      107.90023      29493.763      28557.166      30628.554      29295.569      386.63849      13890.662      1.5506098      0.85662543   
      7200  -10190.899     -10300.863      109.96415      29721.257      30618.028      31039.735      27506.009      394.03412      13872.863      1.5525993      0.85662543   
      7300  -10190.063     -10302.591      112.52762      29877.774      29099.766      32749.46       27784.096      403.2198       13853.061      1.5548186      0.85662543   
      7400  -10190.859     -10299.662      108.80283      29492.429      30424.57       29941.185      28111.533      389.87276      13833.148      1.5570567      0.85662543   
      7500  -10191.949     -10304.923      112.97413      28329.775      27134.55       28428.977      29425.798      404.81978      13817.14       1.5588607      0.85662543   
      7600  -10192.114     -10301.076      108.96211      26393.151      23882.291      28968.341      26328.821      390.44351      13805.886      1.5601314      0.85662543   
      7700  -10190.662     -10300.249      109.58695      31396.564      31544.937      31529.651      31115.105      392.68253      13797.279      1.5611046      0.85662543   
      7800  -10190.824     -10302.586      111.76262      29228.388      29786.508      28565.65       29333.005      400.47859      13792.309      1.5616671      0.85662543   
      7900  -10193.256     -10303.658      110.40212      29447.549      29253.045      30209.239      28880.362      395.60351      13793.395      1.5615442      0.85662543   
      8000  -10195.879     -10302.833      106.95366      30107.898      30799.201      31009.722      28514.77       383.24664      13797.673      1.56106        0.8341637    
      8100  -10196.899     -10305.353      108.45348      27295.884      26123.388      27856.172      27908.092      388.62097      13802.413      1.560524       0.8341637    
      8200  -10195.292     -10303.68       108.38854      29211.806      29418.588      30344.016      27872.814      388.38825      13808.212      1.5598686      0.8341637    
      8300  -10195.948     -10308.16       112.21137      25808.216      23338.453      28251.463      25834.732      402.08658      13813.117      1.5593147      0.8341637    
      8400  -10197.066     -10302.203      105.13716      24418.493      24965.912      25400.945      22888.623      376.7376       13816.695      1.5589109      0.8341637    
      8500  -10196.584     -10306.132      109.54761      25545.789      26331.996      26358.229      23947.142      392.54154      13818.161      1.5587455      0.8341637    
      8600  -10197.965     -10303.883      105.91806      25177.131      25381.407      25940.484      24209.502      379.5358       13815.44       1.5590525      0.8341637    
      8700  -10198.499     -10306.265      107.76582      29087.406      30965.271      29546.935      26750.011      386.15685      13806.612      1.5600493      0.8341637    
      8800  -10198.456     -10306.839      108.38297      30475.658      30204.916      29690.453      31531.606      388.36828      13793.91       1.5614859      0.8341637    
      8900  -10196.75      -10303.795      107.04493      29810.272      29323.358      31191.869      28915.59       383.57368      13779.301      1.5631414      0.8341637    
      9000  -10199.411     -10307.582      108.17148      27752.072      29375.587      27945.407      25935.222      387.61046      13765.126      1.5647511      0.84276115   
      9100  -10199.974     -10307.292      107.31758      28499.277      28963.261      28326.72       28207.849      384.55067      13750.659      1.5663973      0.84276115   
      9200  -10197.73      -10304.505      106.77493      30533.407      30659.556      30577.67       30362.994      382.60621      13739.584      1.56766        0.84276115   
      9300  -10195.985     -10303.04       107.0549       30185.992      30298.304      30006.257      30253.415      383.60941      13734.608      1.568228       0.84276115   
      9400  -10195.743     -10304.294      108.5516       29856.47       30094.821      29144.662      30329.926      388.97253      13737.017      1.567953       0.84276115   
      9500  -10193.511     -10305.811      112.3001       29628.729      27409.624      30769.014      30707.548      402.40452      13747.521      1.5667549      0.84276115   
      9600  -10191.874     -10305.389      113.51531      29307.764      29709.089      29422.76       28791.444      406.759        13765.739      1.5646814      0.84276115   
      9700  -10190.261     -10300.773      110.51145      31696.1        31749.217      31844.681      31494.401      395.99525      13788.719      1.5620738      0.84276115   
      9800  -10191.277     -10305.539      114.26125      30242.178      29515.851      32473.51       28737.172      409.43191      13814.8        1.5591247      0.84276115   
      9900  -10189.002     -10301.414      112.41202      32812.021      32665.524      33166.999      32603.539      402.80558      13838.838      1.5564166      0.84276115   
     10000  -10189.115     -10301.024      111.90918      32681.037      33286.735      32925.668      31830.708      401.00375      13858.193      1.5542428      0.86158566   
     10100  -10190.352     -10303.785      113.43319      24267.08       24310.037      26118.521      22372.683      406.46471      13872.67       1.5526209      0.86158566   
     10200  -10191.994     -10303.038      111.04451      28412.93       28257.156      29178.8        27802.833      397.90539      13880.281      1.5517694      0.86158566   
     10300  -10193.88      -10306.335      112.45451      28224.722      27499.83       28487.866      28686.472      402.95781      13879.676      1.5518372      0.86158566   
     10400  -10193.204     -10304.181      110.97651      29195.254      29397.595      29375.459      28812.708      397.66171      13870.558      1.5528572      0.86158566   
     10500  -10193.731     -10305.955      112.22397      31269.849      33152.418      31146.003      29511.124      402.13172      13851.024      1.5550472      0.86158566   
     10600  -10191.456     -10301.667      110.2103       30715.247      31407.07       32723.145      28015.526      394.91614      13824.368      1.5580457      0.86158566   
     10700  -10188.741     -10303.22       114.47895      28457.252      27561.742      29335.033      28474.981      410.21199      13793.28       1.5615573      0.86158566   
     10800  -10190.667     -10301.798      111.13054      29058.416      28285.151      30330.927      28559.17       398.21366      13759.921      1.565343       0.86158566   
     10900  -10190.796     -10301.743      110.94731      26582.085      24853.286      27509.208      27383.762      397.5571       13731.803      1.5685483      0.86158566   
     11000  -10191.273     -10304.325      113.05237      28373.499      28921.787      26918.978      29279.733      405.10012      13712.262      1.5707836      0.80599773   
     11100  -10193.524     -10304.925      111.4003       30172.386      29828.187      31858.725      28830.245      399.18027      13700.241      1.5721619      0.80599773   
     11200  -10193.55      -10303.783      110.23353      32087.879      31795.773      30314.498      34153.366      394.99939      13696.003      1.5726484      0.80599773   
     11300  -10192.828     -10302.966      110.13796      31972.683      31898.19       34098.37       29921.49       394.65693      13699.441      1.5722537      0.80599773   
     11400  -10192.808     -10305.239      112.43171      33007.57       32925.379      31765.359      34331.972      402.87611      13711.501      1.5708708      0.80599773   
     11500  -10196.271     -10304.503      108.23197      30297.568      30338.204      30559.016      29995.484      387.82721      13731.714      1.5685585      0.80599773   
     11600  -10195.269     -10304.609      109.34019      27858.064      28388.677      28142.723      27042.792      391.79828      13756.304      1.5657546      0.80599773   
     11700  -10193.965     -10307.8        113.83502      28687.583      27941.643      29375.192      28745.914      407.90459      13782.169      1.5628161      0.80599773   
     11800  -10196.834     -10303.65       106.81568      26781.308      28068.863      26938.297      25336.763      382.75221      13806.274      1.5600876      0.80599773   
     11900  -10193.84      -10305.514      111.67364      28867.906      29204.174      29766.562      27632.983      400.15975      13828.055      1.5576302      0.80599773   
     12000  -10193.247     -10302.429      109.18183      28729.276      29796.891      27659.307      28731.628      391.23084      13846.597      1.5555444      0.83742296   
     12100  -10193.691     -10304.703      111.0126       25662.269      25643.534      27168.817      24174.457      397.79103      13861.618      1.5538588      0.83742296   
     12200  -10195.197     -10301.973      106.77566      26947.532      27832.503      28832.634      24177.458      382.60882      13866.352      1.5533283      0.83742296   
     12300  -10194.703     -10304.174      109.47142      25518.753      27518.945      26116.196      22921.117      392.26853      13859.853      1.5540566      0.83742296   
     12400  -10193.628     -10305.346      111.71825      28688.185      29552.861      27577.336      28934.359      400.31961      13843.666      1.5558738      0.83742296   
     12500  -10196.64      -10307.063      110.42275      25186.93       25066.697      27977.817      22516.275      395.67743      13818.624      1.5586933      0.83742296   
     12600  -10194.684     -10304.888      110.20412      26412.952      26296.826      26200.689      26741.341      394.894        13785.725      1.562413       0.83742296   
     12700  -10194.261     -10303.246      108.98499      29101.946      30423.822      28646.951      28235.065      390.52553      13748.853      1.5666032      0.83742296   
     12800  -10195.052     -10307.137      112.08507      28919.359      27598.465      29335.131      29824.482      401.63401      13711.545      1.5708658      0.83742296   
     12900  -10192.549     -10304.323      111.77487      30133.3        29098.442      31813.916      29487.543      400.52247      13677.659      1.5747575      0.83742296   
     13000  -10193.97      -10304.271      110.30099      31545.782      31257.516      30801.18       32578.65       395.24112      13654.561      1.5774213      0.8482576    
     13100  -10192.196     -10301.987      109.79099      29954.517      30281.691      31645.278      27936.583      393.41363      13645.375      1.5784832      0.8482576    
     13200  -10194.086     -10302.948      108.86222      27752.397      25861.503      27123.108      30272.581      390.08558      13649.559      1.5779994      0.8482576    
     13300  -10195.141     -10304.254      109.11269      33363.291      33058.179      32513.799      34517.894      390.98311      13669.26       1.5757251      0.8482576    
     13400  -10195.554     -10305.826      110.27142      29700.677      27874.594      30094.506      31132.931      395.13519      13697.836      1.5724379      0.8482576    
     13500  -10197.277     -10303.947      106.66954      29171.984      29367.083      28301.7        29847.168      382.22858      13730.762      1.5686673      0.8482576    
     13600  -10200.759     -10307.175      106.41587      28018.187      27176.237      30620.524      26257.799      381.31959      13765.489      1.5647099      0.8482576    
     13700  -10202.853     -10308.201      105.34766      27963.078      26864.679      29398.632      27625.924      377.49186      13796.716      1.5611684      0.8482576    
     13800  -10202.886     -10311.831      108.94436      26070.12       26514.362      27370.801      24325.199      390.37992      13818.138      1.5587481      0.8482576    
     13900  -10202.085     -10307.023      104.93748      26680.997      26493.117      28295.664      25254.209      376.02209      13825.887      1.5578745      0.8482576    
     14000  -10204.813     -10311.514      106.70023      28205.679      29636.516      28565.897      26414.623      382.33854      13822.822      1.5582199      0.84684147   
     14100  -10204.101     -10309.094      104.99343      28717.437      26566.356      30572.381      29013.574      376.22256      13807.72       1.5599242      0.84684147   
     14200  -10197.339     -10307.948      110.60868      30219.16       31602.973      31219.64       27834.868      396.34366      13785.026      1.5624923      0.84684147   
     14300  -10194.27      -10304.922      110.65206      29643.038      31148.455      29847.778      27932.881      396.4991       13758.401      1.565516       0.84684147   
     14400  -10190.512     -10303.435      112.92353      28590.319      29822.248      28312.714      27635.996      404.63847      13733.55       1.5683488      0.84684147   
     14500  -10187.988     -10300.812      112.8241       27247.297      27145.316      27066.949      27529.625      404.28216      13715.123      1.570456       0.84684147   
     14600  -10189.446     -10301.852      112.40526      30812.56       31529.19       31426.165      29482.323      402.78135      13705.004      1.5716155      0.84684147   
     14700  -10193.522     -10306.44       112.91862      31477.194      30962.015      32230.648      31238.919      404.62088      13705.398      1.5715703      0.84684147   
     14800  -10193.828     -10304.265      110.43671      33799.108      32483.299      37134.56       31779.465      395.72746      13712.85       1.5707163      0.84684147   
     14900  -10193.155     -10305.152      111.99729      28297.355      28252.451      28855.125      27784.49       401.31946      13724.011      1.5694389      0.84684147   
     15000  -10192.029     -10302.693      110.66461      30024.708      27882.435      32452.87       29738.819      396.54408      13737.84       1.567859       0.86711294   
     15100  -10189.753     -10302.869      113.11609      29219.919      29852.335      30407.877      27399.543      405.32847      13752.159      1.5662266      0.86711294   
     15200  -10189.581     -10301.289      111.70708      30102.942      27394.776      32218.616      30695.435      400.27955      13765.943      1.5646582      0.86711294   
     15300  -10192.51      -10303.285      110.7749       27217.95       26796.216      29783.896      25073.739      396.9393       13779.414      1.5631286      0.86711294   
     15400  -10194.847     -10304.168      109.3213       29282.573      28661.927      29915.04       29270.752      391.7306       13789.196      1.5620198      0.86711294   
     15500  -10195.026     -10306.924      111.89869      27749.092      28143.384      29529.997      25573.894      400.96614      13794.805      1.5613847      0.86711294   
     15600  -10193.435     -10306.055      112.62033      27599.073      28520.896      27502.12       26774.203      403.55201      13794.543      1.5614143      0.86711294   
     15700  -10192.405     -10305.441      113.03619      28145.249      25722.991      30602.901      28109.854      405.04216      13789.371      1.5619999      0.86711294   
     15800  -10192.341     -10304.353      112.01186      25800.862      26076.041      25106.207      26220.338      401.37167      13781.495      1.5628926      0.86711294   
     15900  -10192.875     -10302.858      109.98233      27986.261      26351.856      29741.192      27865.735      394.09928      13771.564      1.5640196      0.86711294   
     16000  -10195.859     -10306.545      110.68652      28877.837      28036.148      30876.53       27720.832      396.62259      13761.976      1.5651093      0.91323174   
     16100  -10194.094     -10303.849      109.7552       26906.965      27421.943      27499.617      25799.336      393.28539      13752.126      1.5662303      0.91323174   
     16200  -10195.095     -10305.742      110.6475       30145.65       30961.024      30838.205      28637.721      396.48279      13744.369      1.5671143      0.91323174   
     16300  -10196.661     -10309.814      113.15305      29316.136      28190.082      31734.937      28023.388      405.46091      13736.245      1.568041       0.91323174   
     16400  -10195.695     -10303.024      107.32859      26896.546      27580.565      25072.332      28036.741      384.59015      13727.047      1.5690918      0.91323174   
     16500  -10196.849     -10308.989      112.13945      26933.763      25470.235      28004.266      27326.787      401.82887      13721.255      1.5697541      0.91323174   
     16600  -10197.581     -10304.511      106.92946      28685.75       27001.687      29096.379      29959.184      383.15993      13718.414      1.5700792      0.91323174   
     16700  -10199.14      -10306.738      107.59793      28608.688      27560.729      31723.033      26542.301      385.55525      13719.015      1.5700105      0.91323174   
     16800  -10197.091     -10308.807      111.71657      26343.448      26791.927      25690.84       26547.579      400.31358      13723.441      1.5695041      0.91323174   
     16900  -10198.512     -10308.021      109.50876      26596.761      26147.014      27952.352      25690.916      392.40232      13729.893      1.5687666      0.91323174   
     17000  -10197.902     -10304.908      107.00613      27652.251      28639.91       28062.373      26254.47       383.43468      13737.104      1.567943       0.80101784   
     17100  -10199.919     -10312.267      112.3479       26210.182      25791.794      26750.652      26088.099      402.57582      13745.308      1.5670072      0.80101784   
     17200  -10200.676     -10308.713      108.03708      29078.474      29177.278      30457.254      27600.892      387.12885      13751.475      1.5663044      0.80101784   
     17300  -10202.251     -10308.278      106.02726      27384.021      28675.54       27963.964      25512.559      379.9271       13754.135      1.5660015      0.80101784   
     17400  -10200.185     -10309.708      109.52244      30891.899      29353.025      31844.366      31478.308      392.45136      13752.236      1.5662178      0.80101784   
     17500  -10200.488     -10308.458      107.97001      27903.376      27283.536      27511.171      28915.422      386.88853      13748.364      1.5666588      0.80101784   
     17600  -10200.813     -10308.478      107.66447      27701.315      26033.451      29288.542      27781.951      385.79371      13742.064      1.5673771      0.80101784   
     17700  -10197.406     -10309.295      111.88842      28888.658      29518.703      28940.671      28206.601      400.92937      13733.339      1.5683729      0.80101784   
     17800  -10193.736     -10304.836      111.09991      30022.713      28496.607      33063.052      28508.481      398.10388      13725.045      1.5693207      0.80101784   
     17900  -10194.147     -10307.895      113.74809      28417.414      29005.528      28189.182      28057.532      407.59312      13718.987      1.5700136      0.80101784   
     18000  -10194.172     -10305.843      111.67163      29554.298      29991.739      31180.281      27490.875      400.15255      13714.837      1.5704887      0.89920563   
     18100  -10194.279     -10303.377      109.09802      28015.949      25938.689      31375.598      26733.561      390.93051      13714.526      1.5705243      0.89920563   
     18200  -10197.409     -10307.33       109.92138      28454.981      28680.316      26544.313      30140.315      393.88087      13718.422      1.5700783      0.89920563   
     18300  -10200.371     -10306.358      105.98798      26091.015      24607.432      27975.128      25690.486      379.78633      13723.943      1.5694467      0.89920563   
     18400  -10199.623     -10307.107      107.48449      26642.06       27648.782      24731.361      27546.035      385.14878      13730.656      1.5686794      0.89920563   
     18500  -10200.45      -10307.404      106.95419      27230.859      24968.4        30612.654      26111.522      383.24856      13737.191      1.5679332      0.89920563   
     18600  -10200.55      -10308.981      108.43132      29717.43       29356.181      29650.201      30145.906      388.54155      13741.184      1.5674774      0.89920563   
     18700  -10198.696     -10308.997      110.30105      34097.41       32656.886      36133.315      33502.028      395.24134      13741.055      1.5674922      0.89920563   
     18800  -10201.201     -10311.015      109.81359      30881.287      30170.895      31491.179      30981.786      393.49462      13737.606      1.5678858      0.89920563   
     18900  -10199.269     -10307.618      108.3492       31083.444      31440.766      33005.825      28803.742      388.24728      13732.261      1.568496       0.89920563   
     19000  -10198.679     -10307.392      108.71296      27468.732      28248.508      27465.874      26691.813      389.55073      13724.506      1.5693823      0.80612261   
     19100  -10198.672     -10309.02       110.34717      24367.717      23780.242      25410.106      23912.804      395.40662      13714.654      1.5705097      0.80612261   
     19200  -10198.512     -10307.803      109.29171      25081.393      25329.284      24565.767      25349.127      391.62457      13703.273      1.5718141      0.80612261   
     19300  -10198.838     -10308.187      109.34857      26384.54       26285.717      24941.414      27926.489      391.82832      13693.145      1.5729766      0.80612261   
     19400  -10198.258     -10307.435      109.17698      27503.088      26846.575      27056.588      28606.1        391.21345      13687.636      1.5736096      0.80612261   
     19500  -10199.771     -10308.106      108.33536      28675.302      29414.083      28103.969      28507.854      388.19768      13687.675      1.5736051      0.80612261   
     19600  -10199.967     -10306.25       106.28247      27713.533      27801.7        27253.154      28085.746      380.84159      13690.5        1.5732805      0.80612261   
     19700  -10197.089     -10306.629      109.53988      28049.88       27544.431      28628.123      27977.086      392.51384      13697.311      1.5724982      0.80612261   
     19800  -10198.827     -10307.3        108.47319      28178.32       27043.226      29274.358      28217.377      388.6916       13706.239      1.5714739      0.80612261   
     19900  -10202.121     -10309.185      107.0632       31181.277      30035.498      32448.384      31059.948      383.63915      13716.889      1.5702538      0.80612261   
     20000  -10202.778     -10310.929      108.15135      31111.509      31429.142      31168.559      30736.826      387.53832      13727.785      1.5690075      0.87082159   
     20100  -10201.766     -10309.064      107.29734      28628.1        27940.698      29609.042      28334.56       384.47815      13736.4        1.5680234      0.87082159   
     20200  -10200.689     -10306.831      106.14264      27006.636      28232.883      26985.51       25801.515      380.34054      13740.967      1.5675023      0.87082159   
     20300  -10200.982     -10306.695      105.71353      25579.043      25995.181      25081.564      25660.385      378.8029       13742.277      1.5673528      0.87082159   
     20400  -10201.473     -10309.358      107.8854       24663.277      25596.051      24471.596      23922.183      386.58534      13739.021      1.5677242      0.87082159   
     20500  -10200.563     -10304.759      104.19595      28959.939      27798.21       31118.463      27963.143      373.36497      13731.748      1.5685546      0.87082159   
     20600  -10201.035     -10308.235      107.20003      29892.063      31869.337      29180.006      28626.845      384.12946      13721.506      1.5697254      0.87082159   
     20700  -10199.468     -10307.386      107.91769      29793.824      30766.853      29603.134      29011.486      386.70107      13708.869      1.5711724      0.87082159   
     20800  -10198.021     -10305.877      107.85561      28163.353      28113.087      27204.698      29172.274      386.47862      13695.283      1.572731       0.87082159   
     20900  -10197.218     -10305.952      108.73389      30772.275      29614.649      30462.462      32239.714      389.62574      13684.304      1.5739928      0.87082159   
     20973  -10195.055     -10306.528      111.47393      27372.742      26806.628      29488.139      25823.459      399.44413      13679.45       1.5745513      0.87082159   
Loop time of 116.01 on 1 procs for 20000 steps with 2160 atoms

Performance: 7.448 ns/day, 3.222 hours/ns, 172.399 timesteps/s, 372.382 katom-step/s
99.8% CPU use with 1 MPI tasks x 1 OpenMP threads

MPI task timing breakdown:
Section |  min time  |  avg time  |  max time  |%varavg| %total
---------------------------------------------------------------
Pair    | 95.286     | 95.286     | 95.286     |   0.0 | 82.14
Neigh   | 0.88996    | 0.88996    | 0.88996    |   0.0 |  0.77
Comm    | 0.9709     | 0.9709     | 0.9709     |   0.0 |  0.84
Output  | 0.032487   | 0.032487   | 0.032487   |   0.0 |  0.03
Modify  | 18.368     | 18.368     | 18.368     |   0.0 | 15.83
Other   |            | 0.4626     |            |       |  0.40

Nlocal:           2160 ave        2160 max        2160 min
Histogram: 1 0 0 0 0 0 0 0 0 0
Nghost:           5959 ave        5959 max        5959 min
Histogram: 1 0 0 0 0 0 0 0 0 0
Neighs:              0 ave           0 max           0 min
Histogram: 1 0 0 0 0 0 0 0 0 0
FullNghs:       390946 ave      390946 max      390946 min
Histogram: 1 0 0 0 0 0 0 0 0 0

Total # of neighbors = 390946
Ave neighs/atom = 180.99352
Neighbor list builds = 1999
Dangerous builds = 1996
Setting up Verlet run ...
  Unit style    : metal
  Current step  : 20973
  Time step     : 0.0005
WARNING: Fix with atom-based arrays not compatible with Kokkos sorting on device, switching to classic host sorting (src/KOKKOS/atom_kokkos.cpp:216)
Per MPI rank memory allocation (min/avg/max) = 1840 | 1840 | 1840 Mbytes
   Step         TotEng         PotEng         KinEng         Press           Pxx            Pyy            Pzz            Temp          Volume        Density     c_max_pace_gamma
     20973  -10196.295     -10306.528      110.2337       27275.902      26648.204      29544.206      25635.296      395            13679.45       1.5745513      0.87082159   
     21000  -10195.727     -10307.417      111.68955      31849.754      33663.155      28919.867      32966.239      400.21675      13679.615      1.5745324      0.87174648   
     21100  -10196.746     -10307.514      110.7671       32175.337      32165.45       32020.997      32339.564      396.91135      13685.421      1.5738644      0.87174648   
     21200  -10197.57      -10306.486      108.91603      29926.603      29783.607      31236.429      28759.773      390.27841      13699.112      1.5722914      0.87174648   
     21300  -10196.849     -10308.928      112.07891      29858.963      29832.288      29310.436      30434.166      401.61193      13716.363      1.570314       0.87174648   
     21400  -10195.11      -10301.259      106.14918      29437.439      29465.614      29868.794      28977.91       380.36395      13736.125      1.5680548      0.87174648   
     21500  -10196.384     -10303.295      106.91131      26749.526      24711.583      30177.011      25359.983      383.09491      13760.008      1.5653332      0.87174648   
     21600  -10198.159     -10308.49       110.33148      27883.093      27390.631      30184.955      26073.692      395.3504       13782.378      1.5627924      0.87174648   
     21700  -10198.63      -10306.616      107.98595      27421.926      27226.966      28594.083      26444.73       386.94564      13799.232      1.5608837      0.87174648   
     21800  -10197.746     -10308.301      110.55513      28572.908      30151.062      29392.31       26175.352      396.15177      13808.765      1.5598062      0.87174648   
     21900  -10195.856     -10305.449      109.59322      28358.411      28639.867      28932.524      27502.842      392.70498      13811.681      1.5594769      0.87174648   
     22000  -10197.755     -10306.974      109.21825      28743.491      32069.08       28568.158      25593.234      391.36135      13807.459      1.5599536      0.80293882   
     22100  -10194.626     -10305.211      110.58462      27340.352      27991.986      26999.349      27029.72       396.25748      13798.54       1.5609619      0.80293882   
     22200  -10193.111     -10306.018      112.9067       26671.346      27595.691      27185.962      25232.384      404.57817      13787.766      1.5621818      0.80293882   
     22300  -10191.298     -10305.239      113.94103      28320.872      29719.557      28026.246      27216.811      408.28447      13775.041      1.5636249      0.80293882   
     22400  -10190.992     -10302.608      111.61597      30346.646      29524.565      30427.986      31087.387      399.9531       13762.132      1.5650915      0.80293882   
     22500  -10194.074     -10304.47       110.39643      26441.359      26246.393      27927.886      25149.799      395.58312      13753.032      1.5661271      0.80293882   
     22600  -10191.944     -10302.311      110.36682      24491.267      21766.136      25769.429      25938.236      395.47702      13747.851      1.5667174      0.80293882   
     22700  -10191.123     -10304.497      113.37442      28978.809      30921.304      30071.714      25943.408      406.25414      13747.099      1.566803       0.80293882   
     22800  -10194.902     -10305.92       111.01821      28103.963      29066.167      27290.895      27954.826      397.81112      13751.1        1.5663472      0.80293882   
     22900  -10195.494     -10303.725      108.23101      26415.319      27064.283      26849.163      25332.511      387.82377      13756.938      1.5656825      0.80293882   
     23000  -10197.697     -10306.235      108.53757      28815.521      28973.321      30096.941      27376.3        388.92226      13764.085      1.5648694      0.91777189   
     23100  -10196.959     -10306.227      109.26785      31462.133      29812.331      33301.174      31272.893      391.53907      13772.526      1.5639104      0.91777189   
     23200  -10197.332     -10304.203      106.87069      27962.189      29550.898      25944.693      28390.976      382.94934      13781.916      1.5628448      0.91777189   
     23300  -10196.628     -10306.485      109.85714      27434.755      27596.551      29591.574      25116.14       393.65069      13791.858      1.5617182      0.91777189   
     23400  -10194.425     -10306.908      112.48224      28532.443      27404.932      27806.811      30385.587      403.0572       13802.025      1.5605679      0.91777189   
     23500  -10195.857     -10305.751      109.89427      28505.092      32042.586      26924.143      26548.547      393.78374      13811.56       1.5594905      0.91777189   
     23600  -10196.923     -10306.744      109.82113      28374.312      28071.876      27710.779      29340.282      393.52166      13820.441      1.5584883      0.91777189   
     23700  -10196.673     -10307.204      110.53088      27774.444      28829.414      27711.309      26782.61       396.06488      13824.691      1.5580092      0.91777189   
     23800  -10193.742     -10306.046      112.30475      25048.829      24509.83       26578.268      24058.389      402.42118      13820.793      1.5584487      0.91777189   
     23900  -10195.116     -10303.562      108.44516      24387.864      25192.422      25529.755      22441.415      388.59114      13809.162      1.5597613      0.91777189   
     24000  -10196.448     -10304.172      107.72385      26179.377      26998.228      28162.099      23377.804      386.00646      13789.973      1.5619318      0.85679008   
     24100  -10196.525     -10308.589      112.06362      27583.559      28567.585      27083.42       27099.674      401.55717      13766.017      1.5646498      0.85679008   
     24200  -10197.765     -10306.723      108.9576       30763.317      30892.542      30177.882      31219.527      390.42737      13739.149      1.5677097      0.85679008   
     24300  -10196.223     -10303.499      107.27584      30941.486      30543.483      31462.186      30818.789      384.4011       13711.156      1.5709103      0.85679008   
     24400  -10193.857     -10304.261      110.4046       33606.829      33533.543      33984.41       33302.534      395.61238      13686.099      1.5737864      0.85679008   
     24500  -10196.373     -10306.193      109.8197       29114.523      29197.321      29404.2        28742.047      393.51653      13666.985      1.5759874      0.85679008   
     24600  -10196.208     -10306.188      109.98021      28995.625      27639.825      30291.628      29055.421      394.09166      13656.034      1.5772513      0.85679008   
     24700  -10196.736     -10307.222      110.48605      30631.764      28708.841      32732.689      30453.763      395.90425      13654.7        1.5774053      0.85679008   
     24800  -10198.255     -10308.838      110.58255      27825.74       28002.595      27592.072      27882.552      396.25003      13663.863      1.5763476      0.85679008   
     24900  -10196.668     -10307.583      110.91559      30770.698      30011.864      32267.875      30032.354      397.44343      13681.602      1.5743037      0.85679008   
     25000  -10192.519     -10301.407      108.88753      30120.761      29678.138      31989.834      28694.311      390.1763       13707.376      1.5713435      0.86746424   
     25100  -10194.187     -10303.716      109.52921      27185.504      26176.142      28264.765      27115.606      392.47562      13739.369      1.5676845      0.86746424   
     25200  -10194.266     -10302.942      108.67612      24362.877      23850.055      25197.989      24040.585      389.41875      13775.015      1.5636278      0.86746424   
     25300  -10193.873     -10305.967      112.09453      25886.742      26498.166      26640.953      24521.108      401.6679       13810.326      1.5596298      0.86746424   
     25400  -10195.55      -10306.795      111.24525      25608.038      25152.588      26859.223      24812.305      398.62469      13840.9        1.5561847      0.86746424   
     25500  -10195.704     -10306.697      110.9931       23665.177      24425.153      23837.576      22732.803      397.72116      13863.518      1.5536458      0.86746424   
     25600  -10193.73      -10307.416      113.68634      25349.256      23291.636      28816.194      23939.939      407.37183      13874.294      1.5524391      0.86746424   
     25700  -10193.057     -10303.64       110.58358      27651.012      29376.152      25810.499      27766.385      396.25372      13874.335      1.5524346      0.86746424   
     25800  -10192.223     -10303.287      111.06479      26052.577      27224.139      28104.388      22829.204      397.97805      13863.063      1.5536968      0.86746424   
     25900  -10192.645     -10304.467      111.82203      26853.729      27171.78       27715.199      25674.209      400.69148      13839.286      1.5563661      0.86746424   
     26000  -10191.931     -10306          114.06908      26905.208      25151.224      28989.817      26574.581      408.74333      13805.69       1.5601536      0.84184909   
     26100  -10191.324     -10305.303      113.97952      25377.141      26259.196      26312.696      23559.531      408.4224       13765.186      1.5647443      0.84184909   
     26200  -10192.195     -10303.332      111.13734      30468.219      28414.3        31907.429      31082.927      398.238        13722.223      1.5696433      0.84184909   
     26300  -10191.265     -10303.858      112.59392      32490.7        31280.404      34451.357      31740.337      403.45737      13686.115      1.5737846      0.84184909   
     26400  -10193.925     -10306.444      112.51833      34588.637      34131.311      34158.934      35475.666      403.1865       13660.884      1.5766913      0.84184909   
     26500  -10192.295     -10307.11       114.81537      32862.607      31573.597      33247.27       33766.953      411.41748      13648.497      1.5781223      0.84184909   
     26600  -10191.731     -10302.531      110.8          31682.115      30452.036      31341.487      33252.822      397.02922      13647.942      1.5781864      0.84184909   
     26700  -10195.058     -10306.521      111.46312      30303.504      29153.117      31528.186      30229.209      399.40537      13659.626      1.5768365      0.84184909   
     26800  -10196.702     -10307.02       110.3172       32154.291      31996.081      32043.23       32423.561      395.29923      13680.355      1.5744472      0.84184909   
     26900  -10197.632     -10309.145      111.51275      26981.476      26264.199      27573.858      27106.373      399.58321      13707.125      1.5713723      0.84184909   
     27000  -10198.437     -10305.359      106.92182      28554.794      27579.463      30207.483      27877.436      383.13258      13739.264      1.5676966      0.98344573   
     27100  -10198.386     -10306.897      108.51109      25975.045      27228.724      28093.569      22602.84       388.8274       13772.564      1.5639061      0.98344573   
     27200  -10198.057     -10305.663      107.60625      29086.979      29235.822      28685.06       29340.056      385.58509      13799.734      1.560827       0.98344573   
     27300  -10196.926     -10306.101      109.17494      30795.613      31594.096      31397.788      29394.956      391.20616      13820.658      1.5584639      0.98344573   
     27400  -10197.909     -10306.213      108.30485      27925.247      27528.531      28948.29       27298.921      388.08838      13833.575      1.5570087      0.98344573   
     27500  -10199.601     -10308.814      109.21365      25611.124      25322.347      27101.938      24409.088      391.34487      13838.61       1.5564421      0.98344573   
     27600  -10199.356     -10308.561      109.20589      26291.593      27774.137      27440.784      23659.856      391.31707      13833.848      1.5569779      0.98344573   
     27700  -10196.751     -10307.588      110.8372       28852.18       27439.61       31083.705      28033.225      397.16251      13820.371      1.5584962      0.98344573   
     27800  -10196.442     -10307.349      110.90747      29327.524      31399.017      29000.856      27582.699      397.41434      13801.417      1.5606365      0.98344573   
     27900  -10198.642     -10306.479      107.83702      30938.057      30736.293      30610.464      31467.413      386.412        13779.044      1.5631706      0.98344573   
     28000  -10200.352     -10307.205      106.85309      30372.373      30175.237      31740.751      29201.13       382.88627      13754.503      1.5659596      0.78926941   
     28100  -10200.801     -10310.338      109.53653      28315.051      28346.034      29593.015      27006.103      392.50185      13731.17       1.5686206      0.78926941   
     28200  -10198.781     -10307.921      109.13984      26600.513      26689.281      27460.538      25651.721      391.08037      13708.789      1.5711815      0.78926941   
     28300  -10198.818     -10308.811      109.99288      27273.219      27188.272      27655.041      26976.345      394.13706      13690.298      1.5733037      0.78926941   
     28400  -10199.865     -10308.164      108.29891      27811.216      26722.728      28990.019      27720.901      388.06709      13679.11       1.5745904      0.78926941   
     28500  -10199.399     -10310.039      110.63961      27763.168      29396.235      26408.789      27484.481      396.45449      13676.8        1.5748564      0.78926941   
     28600  -10200.718     -10307.67       106.95192      26493.07       26249.43       26936.566      26293.215      383.24041      13681.121      1.5743591      0.78926941   
     28700  -10201.326     -10309.402      108.0765       28863.259      29158.502      28845.827      28585.449      387.27014      13688.346      1.573528       0.78926941   
     28800  -10202.205     -10309.986      107.78145      27822.285      27471.146      29914.861      26080.847      386.21288      13699.382      1.5722604      0.78926941   
     28900  -10200.919     -10309.935      109.01572      28621.908      27971.551      29491.944      28402.23       390.63563      13710.972      1.5709314      0.78926941   
     29000  -10203.47      -10309.888      106.41734      28137.968      28045.33       29380.464      26988.109      381.32488      13720.759      1.5698108      0.90183966   
     29100  -10203.889     -10310.828      106.9391       30073.594      29268.592      30032.199      30919.991      383.19447      13728.188      1.5689613      0.90183966   
     29200  -10202.326     -10306.231      103.90535      29135.249      29974.116      29700.748      27730.883      372.32367      13734.791      1.5682071      0.90183966   
     29300  -10200.048     -10309.08       109.03269      28433.375      28395.784      28482.507      28421.835      390.69645      13739.604      1.5676577      0.90183966   
     29400  -10199.987     -10309.068      109.08118      30013.511      28980.109      29571.426      31488.998      390.8702       13742.358      1.5673436      0.90183966   
     29500  -10197.588     -10310.185      112.59663      31636.716      32524.927      31258.841      31126.381      403.46708      13743.993      1.5671571      0.90183966   
     29600  -10194.624     -10303.003      108.37868      29866.462      28016.273      29790.106      31793.008      388.35292      13746.015      1.5669266      0.90183966   
     29700  -10192.252     -10303.394      111.14203      25861.296      25571.339      27007.291      25005.257      398.25482      13751.098      1.5663474      0.90183966   
     29800  -10193.26      -10304.883      111.62331      27973.02       26942.358      27731.223      29245.478      399.97939      13757.657      1.5656007      0.90183966   
     29900  -10190.238     -10302.867      112.6289       31025.242      31127.055      32726.54       29222.129      403.58272      13767.088      1.5645281      0.90183966   
     30000  -10190.845     -10302.41       111.56494      30259.144      27464.845      31107.391      32205.196      399.77025      13778.285      1.5632567      0.8616145    
     30100  -10192.117     -10303.812      111.69447      27565.337      28319.845      28781.537      25594.63       400.23437      13788.984      1.5620438      0.8616145    
     30200  -10193.642     -10304.652      111.00938      27213.834      26492.343      30652.27       24496.89       397.77951      13795.809      1.561271       0.8616145    
     30300  -10196.035     -10303.715      107.68069      27879.187      28360.132      28306.19       26971.239      385.85181      13798.607      1.5609544      0.8616145    
     30400  -10195.214     -10305.726      110.51189      25328.255      25338.149      26237.315      24409.301      395.99683      13796.831      1.5611553      0.8616145    
     30500  -10195.706     -10306.145      110.43859      28648.052      27991.827      29681.392      28270.936      395.7342       13792.521      1.5616432      0.8616145    
     30600  -10194.136     -10306.42       112.28401      28181.542      29390.154      27640.821      27513.651      402.34689      13785.165      1.5624765      0.8616145    
     30700  -10191.567     -10306.257      114.68994      29290.392      28889.386      30923.687      28058.102      410.96802      13776.026      1.563513       0.8616145    
     30800  -10193.384     -10302.62       109.23628      27294.705      25521.144      27853.452      28509.52       391.42594      13765.727      1.5646828      0.8616145    
     30900  -10193.699     -10304.81       111.11106      27718.854      25830.374      27765.94       29560.247      398.14384      13755.621      1.5658324      0.8616145    
     31000  -10194.403     -10305.641      111.23775      25714.538      23878.695      26670.573      26594.345      398.59781      13746.13       1.5669135      0.93532439   
     31100  -10195.781     -10304.018      108.23743      26447.235      24769.48       28604.587      25967.638      387.84677      13739.601      1.5676581      0.93532439   
     31200  -10195.855     -10305.514      109.65906      31382.13       32843.169      30481.74       30821.481      392.94092      13737.295      1.5679213      0.93532439   
     31300  -10194.643     -10303.021      108.37839      28658.625      28129.764      29091.831      28754.28       388.35187      13736.172      1.5680494      0.93532439   
     31400  -10194.327     -10305.575      111.24837      28204.776      27363.913      31019.534      26230.881      398.63588      13738.711      1.5677596      0.93532439   
     31500  -10197.596     -10306.338      108.74219      28943.466      30191.568      28689.89       27948.94       389.65548      13741.564      1.5674341      0.93532439   
     31600  -10196.432     -10307.775      111.34324      31475.69       31330.9        32663.999      30432.169      398.97582      13744.405      1.5671102      0.93532439   
     31700  -10194.728     -10304.746      110.0186       29353.106      29196.34       29816.395      29046.582      394.22925      13747.805      1.5667226      0.93532439   
     31800  -10197.214     -10308.572      111.3581       27932.527      27408.684      28963.637      27425.259      399.02907      13751.562      1.5662946      0.93532439   
     31900  -10194.601     -10304.445      109.84405      28770.582      26923.085      30189.827      29198.835      393.60379      13755.163      1.5658845      0.93532439   
     32000  -10194.457     -10307.674      113.21661      25619.013      25196.092      26200.906      25460.04       405.68865      13760.052      1.5653281      0.86358781   
     32100  -10194.574     -10308.14       113.56526      27769.962      26546.94       29485.557      27277.391      406.93796      13767.089      1.564528       0.86358781   
     32200  -10196.11      -10305.671      109.56045      31992.65       32740.899      31122.149      32114.901      392.58754      13774.908      1.5636399      0.86358781   
     32300  -10196.372     -10311.174      114.80221      27494.81       26749.194      29112.294      26622.941      411.37034      13783.156      1.5627043      0.86358781   
     32400  -10195.738     -10305.129      109.39172      28583.412      26069.831      32189.62       27490.786      391.98295      13787.328      1.5622314      0.86358781   
     32500  -10198.723     -10308.149      109.42561      27097.832      28391.217      27944.724      24957.555      392.10437      13787.309      1.5622335      0.86358781   
     32600  -10197.145     -10307.375      110.22971      27311.06       26016.525      29059.702      26856.952      394.98572      13783.577      1.5626565      0.86358781   
     32700  -10197.308     -10309.256      111.94859      26542.773      27439.364      27314.503      24874.452      401.14496      13775.828      1.5635355      0.86358781   
     32800  -10197.91      -10308.032      110.12205      30103.584      29909.768      31743.333      28657.65       394.59995      13764.961      1.5647699      0.86358781   
     32900  -10195.933     -10308.123      112.18963      28866.338      28520.608      29519.97       28558.435      402.00867      13752.55       1.566182       0.86358781   
     33000  -10197.232     -10308.238      111.00632      26977.691      29512.577      25826.52       25593.978      397.76852      13741.235      1.5674717      0.84625534   
     33100  -10194.866     -10306.634      111.7681       28183.368      27161.434      30217.057      27171.611      400.49821      13731.009      1.568639       0.84625534   
     33200  -10196.676     -10305.553      108.87727      29073.875      27268.718      30122.883      29830.025      390.13952      13724.054      1.569434       0.84625534   
     33300  -10197.115     -10307.725      110.60996      30081.956      31073.004      30947.36       28225.502      396.34826      13722.495      1.5696123      0.84625534   
     33400  -10196.616     -10305.893      109.27778      26852.431      28036.797      25818.134      26702.362      391.57468      13724.428      1.5693912      0.84625534   
     33500  -10197.898     -10306.605      108.70751      25266.277      24986.078      25459.341      25353.41       389.53123      13728.464      1.5689298      0.84625534   
     33600  -10201.495     -10308.819      107.32354      26825.333      27393.573      26576.572      26505.853      384.57206      13733.432      1.5683622      0.84625534   
     33700  -10203.456     -10310.716      107.26012      28621.425      28179.488      30052.329      27632.46       384.34477      13735.748      1.5680979      0.84625534   
     33800  -10203         -10309.039      106.03864      28517.058      27990.825      29781.682      27778.666      379.96788      13732.984      1.5684135      0.84625534   
     33900  -10202.258     -10309.909      107.65126      27812.824      27515.117      29641.048      26282.307      385.74635      13726.161      1.569193       0.84625534   
     34000  -10205.105     -10310.17       105.06522      29963.175      30948.575      29637.663      29303.287      376.47982      13718.612      1.5700565      0.87981349   
     34100  -10205.154     -10311.345      106.19098      27400.468      27726.649      27984.157      26490.599      380.51373      13709.899      1.5710544      0.87981349   
     34200  -10198.245     -10305.643      107.39766      28458.84       28366.013      27643.804      29366.704      384.83763      13700.783      1.5720997      0.87981349   
     34300  -10195.821     -10306.101      110.27967      31583.675      30432.919      32355.346      31962.762      395.16473      13693.86       1.5728945      0.87981349   
     34400  -10192.455     -10303.817      111.36235      29183.415      30071.277      29244.52       28234.449      399.04431      13690.821      1.5732436      0.87981349   
     34500  -10190.127     -10303.683      113.55527      26299.172      24712.175      27072.883      27112.456      406.90216      13695.759      1.5726764      0.87981349   
     34600  -10192.121     -10303.349      111.22747      28428.135      28553.357      29240.579      27490.471      398.56099      13707.931      1.5712799      0.87981349   
     34700  -10196.297     -10304.903      108.6056       29043.681      28196.09       29076.775      29858.18       389.16603      13723.984      1.5694419      0.87981349   
     34800  -10196.539     -10307.652      111.11283      28729.322      29025.594      29244.773      27917.6        398.1502       13743.227      1.5672445      0.87981349   
     34900  -10195.319     -10308.829      113.51089      26436.116      26698.252      27982.548      24627.548      406.74313      13762.739      1.5650225      0.87981349   
     35000  -10194.316     -10304.776      110.45999      28584.88       28559.413      30992.519      26202.709      395.81085      13779.246      1.5631476      0.81545218   
     35100  -10191.305     -10303.901      112.5965       27764.317      26793.642      29051.451      27447.859      403.46662      13793.062      1.5615819      0.81545218   
     35200  -10191.191     -10304.972      113.78063      29752.38       30285.838      28397.755      30573.548      407.70969      13804.247      1.5603167      0.81545218   
     35300  -10193.914     -10306.195      112.28074      29152.941      29614.245      28195.675      29648.902      402.33518      13811.237      1.5595269      0.81545218   
     35400  -10195.999     -10308.23       112.23077      28715.944      29258.158      29395.62       27494.055      402.15612      13813.416      1.559281       0.81545218   
     35500  -10196.24      -10307.738      111.49779      28220.439      28446.048      28462.63       27752.64       399.52963      13808.018      1.5598905      0.81545218   
     35600  -10194.217     -10306.681      112.46469      30292.652      29606.958      32427.796      28843.202      402.99432      13795.138      1.561347       0.81545218   
     35700  -10193.111     -10303.552      110.44126      26060.134      26946.556      25435.706      25798.14       395.74375      13775.446      1.5635789      0.81545218   
     35800  -10193.173     -10307.68       114.50653      28005.338      27752.13       30765.186      25498.698      410.31082      13752.468      1.5661913      0.81545218   
     35900  -10193.502     -10306.157      112.65519      28300.438      30417.101      27195.791      27288.422      403.67692      13726.458      1.5691591      0.81545218   
     36000  -10196.5       -10308.888      112.38808      29048.828      29364.398      27810.059      29972.028      402.7198       13700.273      1.5721582      0.94967646   
     36100  -10194.639     -10305.609      110.96984      30376.098      29440.058      29807.93       31880.307      397.63782      13676.143      1.5749321      0.94967646   
     36200  -10195.588     -10308.178      112.5897       28356.809      27568.236      28514.193      28987.999      403.44225      13657.227      1.5771135      0.94967646   
     36300  -10197.003     -10305.954      108.95051      27401.074      26490.679      27345.344      28367.197      390.40196      13644.794      1.5785505      0.94967646   
     36400  -10196.381     -10305.136      108.75562      30216.88       30466.324      29378.267      30806.049      389.7036       13641.685      1.5789103      0.94967646   
     36500  -10197.605     -10310.022      112.41678      27247.27       25561.645      28587.544      27592.622      402.82263      13650.076      1.5779397      0.94967646   
     36600  -10199.042     -10305.898      106.85559      31043.977      29674.488      33713.236      29744.207      382.89522      13667.692      1.5759059      0.94967646   
     36700  -10200.862     -10308.067      107.2051       27048.568      24953.138      28128.287      28064.279      384.14764      13693.69       1.572914       0.94967646   
     36800  -10199.266     -10306.586      107.32029      28503.478      28085.429      29979.323      27445.682      384.56041      13723.211      1.5695304      0.94967646   
     36900  -10200.195     -10309.185      108.9908       27754.808      27006.619      27025.931      29231.875      390.54634      13754.341      1.5659781      0.94967646   
     37000  -10199.919     -10309.933      110.01392      27354.69       26834.771      28587.377      26641.922      394.21248      13783.645      1.5626488      0.8619358    
     37100  -10202.041     -10310.438      108.39787      25699.159      24480.154      26193.481      26423.842      388.42169      13807.634      1.5599339      0.8619358    
     37200  -10202.426     -10310.443      108.01621      26680.765      27310.713      27722.381      25009.2        387.05409      13823.004      1.5581994      0.8619358    
     37300  -10203.761     -10311.855      108.09435      25120.044      25736.524      26375.047      23248.561      387.33407      13827.236      1.5577225      0.8619358    
     37400  -10201.633     -10310.636      109.00316      24743.239      25383.57       25140.768      23705.378      390.59063      13820.764      1.5584519      0.8619358    
     37500  -10201.795     -10310.313      108.51868      25589.143      25585.417      26268.263      24913.749      388.85459      13804.682      1.5602675      0.8619358    
     37600  -10201.858     -10309.838      107.98039      29999.928      30713.98       29001.033      30284.77       386.92572      13779.442      1.5631255      0.8619358    
     37700  -10198.01      -10305.522      107.51214      28363.735      27419.289      31383.619      26288.297      385.24784      13748.942      1.566593       0.8619358    
     37800  -10194.387     -10304.868      110.4814       26169.187      26648.116      25914.695      25944.748      395.88759      13717.84       1.5701448      0.8619358    
     37900  -10193.891     -10305.464      111.57311      28496.125      29209.737      29009.962      27268.675      399.79952      13690.639      1.5732645      0.8619358    
     38000  -10194.338     -10308.28       113.9416       30788.466      31465.646      31115.074      29784.678      408.2865       13670.311      1.575604       0.87253283   
     38100  -10193.865     -10306.412      112.54742      30928.651      29682.418      30301.173      32802.361      403.29074      13656.449      1.5772033      0.87253283   
     38200  -10197.062     -10308.373      111.31124      33508.34       34345.784      32338.331      33840.904      398.86114      13654.453      1.5774339      0.87253283   
     38300  -10200.277     -10309.442      109.16457      30849.638      31360.898      29471.328      31716.689      391.16901      13662.671      1.576485       0.87253283   
     38400  -10200.1       -10310.133      110.03322      32839.849      32261.407      31659.861      34598.279      394.28163      13677.457      1.5747807      0.87253283   
     38500  -10201.594     -10308.573      106.97823      29675.991      29121.587      30443          29463.385      383.33469      13696.244      1.5726207      0.87253283   
     38600  -10201.887     -10311.485      109.59837      28870.355      31017.414      28267.569      27326.083      392.72344      13717.146      1.5702243      0.87253283   
     38700  -10200.136     -10308.893      108.75682      28307.157      28860.254      27968.149      28093.067      389.70792      13737.541      1.5678931      0.87253283   
     38800  -10203.183     -10311.893      108.71035      27458.929      27350.236      28477.844      26548.707      389.54141      13756.41       1.5657426      0.87253283   
     38900  -10201.677     -10310.683      109.006        25856.178      26023.353      26030.96       25514.222      390.60078      13770.804      1.564106       0.87253283   
     39000  -10200.68      -10307.457      106.77694      28345.446      28945.012      29252.91       26838.417      382.6134       13778.949      1.5631813      0.84802733   
     39100  -10201.018     -10310.284      109.26564      26647.595      25744.438      26876.111      27322.235      391.53117      13781.022      1.5629462      0.84802733   
     39200  -10200.469     -10306.095      105.62649      27966.865      28682.409      27428.112      27790.074      378.49101      13776.554      1.5634531      0.84802733   
     39300  -10200.85      -10309.79       108.93929      28319.218      28260.434      30328.609      26368.612      390.36175      13765.351      1.5647256      0.84802733   
     39400  -10200.067     -10306.861      106.79467      29391.409      30269.083      29034.349      28870.796      382.67694      13747.095      1.5668035      0.84802733   
     39500  -10201.08      -10309.947      108.86766      27497.517      28831.815      28434.674      25226.062      390.10507      13727.519      1.5690378      0.84802733   
     39600  -10200.962     -10309.203      108.24104      25981.424      26257.558      26080.096      25606.619      387.85972      13707.51       1.5713282      0.84802733   
     39700  -10198.097     -10307.491      109.39352      28611.397      30668.404      29537.642      25628.143      391.98941      13688.399      1.5735219      0.84802733   
     39800  -10199.308     -10307.519      108.21186      29467.853      28895.181      28665.653      30842.726      387.75516      13676.1        1.5749371      0.84802733   
     39900  -10202.89      -10310.559      107.6691       29281.715      29647.101      28786.812      29411.232      385.8103       13672.767      1.575321       0.84802733   
     40000  -10203.206     -10310.817      107.61098      30355.263      30365.486      31444.194      29256.111      385.60203      13677.783      1.5747432      0.89137518   
     40100  -10202.609     -10309.377      106.76802      29821.126      29702.518      30227.728      29533.132      382.58146      13690.049      1.5733324      0.89137518   
     40200  -10201.908     -10309.454      107.54684      29590.142      28985.522      29913.229      29871.674      385.37219      13706.621      1.5714301      0.89137518   
     40300  -10202.696     -10309.371      106.67522      28331.583      30252.107      28559.4        26183.242      382.24891      13726.221      1.5691862      0.89137518   
     40400  -10203.278     -10310.53       107.2525       30014.105      30001.152      30090.016      29951.146      384.31749      13746.513      1.5668699      0.89137518   
     40500  -10202.829     -10310.855      108.02598      28257.355      27281.309      28874.644      28616.111      387.08908      13764.087      1.5648693      0.89137518   
     40600  -10203.659     -10312.019      108.3603       25648.099      25079.553      26718.261      25146.485      388.28707      13775.944      1.5635224      0.89137518   
     40700  -10201.885     -10310.552      108.6666       28894.957      29292.625      27830.835      29561.41       389.38462      13780.896      1.5629606      0.89137518   
     40800  -10200.822     -10307.428      106.60633      30710.331      29939.131      32712.701      29479.162      382.00205      13780.66       1.5629873      0.89137518   
     40900  -10199.408     -10308.714      109.30594      27363.715      29744.865      27191.69       25154.588      391.67556      13776.029      1.5635128      0.89137518   
     41000  -10197.573     -10308.964      111.39164      26974.062      28152.786      27236.455      25532.947      399.14923      13765.91       1.564662       0.98246479   
     41100  -10199.019     -10310.216      111.19714      31205.832      32021.657      30598.205      30997.635      398.45228      13751.159      1.5663404      0.98246479   
     41200  -10196.958     -10309.08       112.1218       31779.611      30068.997      33959.26       31310.577      401.76563      13734.216      1.5682727      0.98246479   
[...]
   2010500  -10199.888     -10314.409      114.52094      26143.471      27681.757      26263.165      24485.493      410.36246      13704.122      1.5717166      0.81731312   
   2010600  -10199.342     -10310.694      111.35133      28781.961      29609.119      29100.291      27636.473      399.00479      13726.755      1.5691251      0.81731312   
   2010700  -10201.156     -10312.969      111.81282      24636.602      25641.431      26354.175      21914.2        400.65848      13745.648      1.5669684      0.81731312   
   2010800  -10198.002     -10307.734      109.73149      26194.006      27074.343      26909.836      24597.838      393.20043      13756.982      1.5656774      0.81731312   
   2010900  -10199.667     -10309.234      109.56706      28913.784      31870.277      27705.83       27165.245      392.61123      13761.005      1.5652197      0.81731312   
   2011000  -10199.925     -10311.335      111.4094       28101.74       26578.168      29887.808      27839.245      399.2129       13755.767      1.5658158      0.8698781    
   2011100  -10199.198     -10311.615      112.41758      28053.852      29079.899      28421.962      26659.696      402.82551      13740.853      1.5675153      0.8698781    
   2011200  -10197.187     -10309.524      112.33697      28934.36       28013.68       30647.808      28141.593      402.53665      13716.805      1.5702633      0.8698781    
   2011300  -10199.318     -10310.435      111.11738      26614.454      28149.01       27058.185      24636.167      398.16648      13687.638      1.5736095      0.8698781    
   2011400  -10199.326     -10308.871      109.5447       28904.424      28954.817      30099.257      27659.196      392.53112      13655.198      1.5773478      0.8698781    
   2011500  -10198.716     -10310.09       111.37366      29141.421      28817.536      29847.029      28759.698      399.08482      13622.767      1.5811029      0.8698781    
   2011600  -10200.227     -10309.632      109.4057       27436.466      28781.945      26004.988      27522.466      392.03302      13593.851      1.5844662      0.8698781    
   2011700  -10202.497     -10315.7        113.20294      25743.537      24136.204      25507.641      27586.766      405.63967      13572.17       1.5869973      0.8698781    
   2011800  -10201.285     -10312.704      111.41859      28335.26       25946.546      27909.343      31149.89       399.24583      13558.601      1.5885855      0.8698781    
   2011900  -10202.867     -10314.628      111.76117      31346          31876.727      32607.003      29554.271      400.4734       13556.316      1.5888532      0.8698781    
   2012000  -10204.131     -10313.309      109.17774      30834.44       30624.678      30733.934      31144.709      391.21619      13565.307      1.5878002      0.85284446   
   2012100  -10205.19      -10314.392      109.20198      31104.774      30782.961      31229.756      31301.605      391.30305      13585.113      1.5854853      0.85284446   
   2012200  -10204.102     -10314.116      110.0138       31284.505      30728.462      31480.63       31644.423      394.21205      13613.324      1.5821996      0.85284446   
   2012300  -10204.098     -10311.624      107.52614      29569.27       29454.722      29779.087      29474.002      385.29801      13646.073      1.5784025      0.85284446   
   2012400  -10199.219     -10311.799      112.58042      28438.032      27579.141      28479.365      29255.59       403.409        13681.274      1.5743414      0.85284446   
   2012500  -10198.969     -10311.427      112.45817      26759.889      28080.799      26492.327      25706.54       402.97095      13715.987      1.570357       0.85284446   
   2012600  -10200.252     -10312.495      112.243        24915.739      25394.249      24395.235      24957.732      402.19994      13744.402      1.5671104      0.85284446   
   2012700  -10201.083     -10312.332      111.24885      22006.307      23940.831      20388.842      21689.247      398.63758      13764.531      1.5648187      0.85284446   
   2012800  -10202.565     -10312.291      109.7259       25381.496      24182.078      28265.173      23697.237      393.18041      13773.578      1.563791       0.85284446   
   2012900  -10204.373     -10311.147      106.77377      24559.716      26328.981      24027.055      23323.112      382.60206      13770.225      1.5641717      0.85284446   
   2013000  -10200.341     -10310.574      110.23322      24640.422      25951.875      24906.141      23063.248      394.99828      13752.633      1.5661726      0.98993648   
   2013100  -10198.541     -10309.756      111.21432      25222.122      24156.24       26316.79       25193.337      398.51385      13725.442      1.5692752      0.98993648   
   2013200  -10199.696     -10312.997      113.30103      26212.765      25261.971      26508.319      26868.005      405.99115      13692.903      1.5730044      0.98993648   
   2013300  -10200.831     -10311.461      110.63025      26247.772      24914.436      27314.066      26514.813      396.42095      13659.235      1.5768816      0.98993648   
   2013400  -10204.217     -10314.765      110.54886      24964.748      25277.803      23754.054      25862.387      396.12933      13628.51       1.5804366      0.98993648   
   2013500  -10207.544     -10316.227      108.68324      28512.432      28621.571      27541.199      29374.527      389.44427      13600.06       1.5837428      0.98993648   
   2013600  -10209.072     -10316.891      107.81927      32001.792      32367.946      32347.894      31289.535      386.34838      13575.221      1.5866406      0.98993648   
   2013700  -10208.505     -10314.701      106.19585      29536.91       27346.847      28061.097      33202.785      380.53119      13555.507      1.588948       0.98993648   
   2013800  -10208.013     -10316.954      108.94129      29626.348      28943.22       30717.378      29218.447      390.36891      13544.661      1.5902204      0.98993648   
   2013900  -10208.504     -10314.802      106.29762      28954.999      28448.143      28331.599      30085.254      380.89588      13543.02       1.5904131      0.98993648   
   2014000  -10204.561     -10316.351      111.78972      30583.328      32660.891      29406.881      29682.212      400.5757       13551.307      1.5894405      1.0556482    
   2014100  -10202.445     -10313.759      111.31439      29758.495      30875.014      28101.007      30299.463      398.87244      13568.723      1.5874005      1.0556482    
   2014200  -10203.059     -10313.262      110.20294      27759.334      28184.558      26733.086      28360.359      394.88979      13592.895      1.5845776      1.0556482    
   2014300  -10199.93      -10313.273      113.34378      28628.914      28310.291      28164.532      29411.919      406.14433      13620.023      1.5814215      1.0556482    
   2014400  -10198.613     -10309.666      111.05334      32100.2        32614.418      34519.981      29166.202      397.93701      13648.597      1.5781107      1.0556482    
   2014500  -10201.098     -10311.622      110.52452      29289.877      29691.534      27624.743      30553.353      396.04209      13677.234      1.5748064      1.0556482    
   2014600  -10202.081     -10312.093      110.01192      28263.9        29161.284      30993.485      24636.931      394.20529      13701.86       1.5719761      1.0556482    
   2014700  -10201.322     -10310.985      109.66289      28004.39       30062.043      27048.186      26902.94       392.95462      13717.136      1.5702254      1.0556482    
   2014800  -10199.326     -10311.687      112.36098      28425.586      29106.709      28949.227      27220.823      402.62267      13724.069      1.5694323      1.0556482    
   2014900  -10200.404     -10313.101      112.69658      28228.768      29947.407      27249.459      27489.439      403.82523      13723.699      1.5694745      1.0556482    
   2015000  -10200.06      -10313.028      112.96776      26085.573      25904.102      25977.941      26374.675      404.79696      13717.225      1.5702153      0.90241515   
   2015100  -10202.032     -10311.482      109.45006      25581.839      24356.253      27255.294      25133.971      392.19199      13706.498      1.5714442      0.90241515   
   2015200  -10203.008     -10311.88       108.87204      29879.428      28887.695      31222.767      29527.824      390.12078      13691.934      1.5731157      0.90241515   
   2015300  -10206.317     -10316.919      110.60209      26412.39       24518.133      27977.404      26741.634      396.32006      13675.299      1.5750293      0.90241515   
   2015400  -10205.888     -10315.671      109.78338      26623.491      26942.251      26335.536      26592.685      393.38638      13655.361      1.577329       0.90241515   
   2015500  -10205.248     -10314.114      108.86593      25226.316      26771.791      23539.623      25367.534      390.09888      13634.432      1.5797502      0.90241515   
   2015600  -10205.699     -10315.095      109.39544      30741.566      29956.328      30957.562      31310.809      391.99626      13615.117      1.5819913      0.90241515   
   2015700  -10205.678     -10314.958      109.27952      29376.552      28645.685      29469.027      30014.944      391.58088      13600.603      1.5836795      0.90241515   
   2015800  -10205.62      -10315.324      109.70407      29927.59       28813.635      30676.465      30292.671      393.10218      13591.93       1.5846901      0.90241515   
   2015900  -10204.277     -10312.021      107.74454      31905.037      31645.914      30735.207      33333.989      386.08062      13589.249      1.5850028      0.90241515   
   2016000  -10202.68      -10309.702      107.02235      29561.988      27685.757      30771.27       30228.936      383.49277      13592.683      1.5846023      0.84469347   
   2016100  -10201.327     -10312.658      111.33105      31178.393      31629.493      29659.483      32246.203      398.93215      13604.128      1.5832691      0.84469347   
   2016200  -10202.567     -10311.077      108.51031      29020.622      26447.672      30061.884      30552.31       388.82459      13621.118      1.5812944      0.84469347   
   2016300  -10202.154     -10313.494      111.33932      26888.241      27078.593      26323.256      27262.874      398.96177      13642.084      1.5788641      0.84469347   
   2016400  -10204.038     -10315.472      111.43316      26877.545      27907.985      27950.404      24774.244      399.29802      13665.018      1.5762143      0.84469347   
   2016500  -10201.775     -10311.308      109.53217      28168.024      28003.166      28253.526      28247.381      392.48622      13684.587      1.5739603      0.84469347   
   2016600  -10202.172     -10311.735      109.56274      29005.538      30886.139      28877.66       27252.816      392.59577      13700.877      1.5720889      0.84469347   
   2016700  -10201.773     -10311.01       109.23701      26929.376      27076.163      26545.505      27166.461      391.42857      13713.582      1.5706324      0.84469347   
   2016800  -10202.7       -10311.875      109.17489      28405.023      28592.319      29148.321      27474.43       391.20596      13721.232      1.5697567      0.84469347   
   2016900  -10203.106     -10314.608      111.50234      28538.311      27896.855      28617.489      29100.588      399.54593      13721.709      1.5697022      0.84469347   
   2017000  -10201.968     -10310.81       108.84177      29731.82       29853.178      28701.228      30641.054      390.01232      13716.105      1.5703435      0.98757919   
   2017100  -10202.96      -10313.932      110.97211      31243.597      32842.007      31035.028      29853.756      397.64595      13705.664      1.5715398      0.98757919   
   2017200  -10204.567     -10312.797      108.2302       29070.078      30316.087      30695.991      26198.155      387.82089      13691.028      1.5732198      0.98757919   
   2017300  -10203.457     -10313.574      110.11648      26909.91       27814.133      26465.111      26450.486      394.57999      13672.257      1.5753798      0.98757919   
   2017400  -10205.904     -10315.377      109.47334      28915.762      28252.911      29945.433      28548.943      392.27542      13652.392      1.577672       0.98757919   
   2017500  -10206.047     -10315.597      109.54925      30106.736      31801.36       30007.27       28511.58       392.54743      13633.81       1.5798223      0.98757919   
   2017600  -10205.388     -10314.463      109.07477      27846.398      26891.579      28963.423      27684.193      390.84721      13618.055      1.58165        0.98757919   
   2017700  -10207.329     -10315.441      108.11244      27597.831      26757.334      28453.501      27582.66       387.39892      13605.52       1.5831072      0.98757919   
   2017800  -10205.996     -10312.266      106.27042      29955.163      30922.645      27378.191      31564.654      380.79839      13598.161      1.583964       0.98757919   
   2017900  -10202.905     -10312.174      109.26901      32011.972      30385.088      32805.358      32845.469      391.54322      13597.25       1.58407        0.98757919   
   2018000  -10204.59      -10313.188      108.59772      28482.236      29279.74       28695.166      27471.802      389.13782      13602.654      1.5834407      1.0170837    
   2018100  -10203.373     -10312.651      109.27763      26219.909      24953.151      25656.894      28049.682      391.57414      13612.745      1.5822669      1.0170837    
   2018200  -10204.583     -10314.257      109.6742       28396.694      28437.611      29026.528      27725.943      392.99514      13626.75       1.5806407      1.0170837    
   2018300  -10201.208     -10311.006      109.79753      26830.272      27810.647      24563.154      28117.013      393.43708      13643.823      1.5786629      1.0170837    
   2018400  -10205.928     -10315.793      109.86452      28796.993      28290.467      29625.986      28474.526      393.67713      13664.159      1.5763133      1.0170837    
   2018500  -10207.382     -10316.239      108.85742      27938.535      28963.297      27689.705      27162.605      390.0684       13683.021      1.5741404      1.0170837    
   2018600  -10206.845     -10317.44       110.59489      27617.121      27111.474      27607.76       28132.13       396.29426      13695.103      1.5727517      1.0170837    
   2018700  -10204.039     -10312.434      108.3951       28341.34       27091.493      28888.138      29044.389      388.41177      13702.03       1.5719567      1.0170837    
   2018800  -10202.931     -10313.09       110.15899      25204.127      25508.223      27557.914      22546.245      394.73231      13704.576      1.5716645      1.0170837    
   2018900  -10204.521     -10311.598      107.07788      27015.334      27076.784      28656.938      25312.28       383.69178      13702.11       1.5719474      1.0170837    
   2019000  -10206.786     -10317.258      110.47175      27540.414      27738.327      27815.547      27067.368      395.85301      13695.076      1.5727548      0.82330031   
   2019100  -10207.669     -10315.45       107.78123      28758.473      28933.604      28999.009      28342.805      386.21209      13682.136      1.5742423      0.82330031   
   2019200  -10206.522     -10314.046      107.52398      27850.927      28804.581      27773.573      26974.626      385.29028      13664.226      1.5763057      0.82330031   
   2019300  -10203.091     -10313.114      110.0229       30783.686      31211.745      29901.946      31237.368      394.24467      13644.434      1.5785922      0.82330031   
   2019400  -10203.926     -10314.569      110.64283      31232.499      31226.713      31175.448      31295.336      396.46604      13626.821      1.5806325      0.82330031   
   2019500  -10200.816     -10310.539      109.72231      30751.117      29916.803      30946.572      31389.976      393.16753      13613.907      1.5821319      0.82330031   
   2019600  -10200.866     -10313.249      112.38324      31282.53       31743.853      30734.561      31369.176      402.70246      13608.979      1.5827048      0.82330031   
   2019700  -10204.104     -10316.052      111.94767      29446.554      28016.184      29458.924      30864.555      401.14167      13611.755      1.582382       0.82330031   
   2019800  -10204.842     -10316.203      111.36028      25425.741      26317.212      25331.145      24628.866      399.03687      13620.838      1.5813268      0.82330031   
   2019900  -10203.852     -10311.373      107.52088      26851.453      26491.768      25767.981      28294.609      385.27916      13633.76       1.5798281      0.82330031   
   2020000  -10205.33      -10315.678      110.3472       27421.531      28345.118      26593.647      27325.829      395.40672      13650.918      1.5778423      0.88588513   
   2020100  -10205.184     -10313.135      107.95104      28612.439      28113.525      30052.742      27671.051      386.82056      13668.628      1.5757979      0.88588513   
   2020200  -10206.323     -10319.231      112.9085       28340.074      29146.627      27965.212      27908.384      404.58461      13684.988      1.5739142      0.88588513   
   2020300  -10206.248     -10315.017      108.76965      27264.237      25486.09       26511.88       29794.742      389.7539       13696.636      1.5725756      0.88588513   
   2020400  -10206.425     -10315.833      109.4085       30555.998      30298.226      30769.442      30600.327      392.04308      13703.878      1.5717446      0.88588513   
   2020500  -10205.873     -10315.958      110.08494      27875.228      29122.004      26824.872      27678.807      394.46695      13705.96       1.5715059      0.88588513   
   2020600  -10205.269     -10314.274      109.00474      25597.168      26254.64       25308.934      25227.931      390.59628      13702.972      1.5718485      0.88588513   
   2020700  -10204.731     -10314.448      109.71665      26670.236      27901.3        27304.488      24804.918      393.14726      13693.78       1.5729037      0.88588513   
   2020800  -10200.971     -10312.022      111.05053      28539.467      27414.853      28217.468      29986.08       397.92694      13680.193      1.5744658      0.88588513   
   2020900  -10203.95      -10314.26       110.30973      26576.808      27796.065      26149.065      25785.294      395.27243      13663.592      1.5763787      0.88588513   
   2020973  -10202.656     -10315.39       112.73417      32080.849      32495.001      33246.637      30500.909      403.95992      13650.283      1.5779157      0.88588513   
Loop time of 11710.8 on 1 procs for 2000000 steps with 2160 atoms

Performance: 7.378 ns/day, 3.253 hours/ns, 170.783 timesteps/s, 368.891 katom-step/s
99.8% CPU use with 1 MPI tasks x 1 OpenMP threads

MPI task timing breakdown:
Section |  min time  |  avg time  |  max time  |%varavg| %total
---------------------------------------------------------------
Pair    | 9646       | 9646       | 9646       |   0.0 | 82.37
Neigh   | 88.439     | 88.439     | 88.439     |   0.0 |  0.76
Comm    | 96.492     | 96.492     | 96.492     |   0.0 |  0.82
Output  | 7.7051     | 7.7051     | 7.7051     |   0.0 |  0.07
Modify  | 1826.3     | 1826.3     | 1826.3     |   0.0 | 15.60
Other   |            | 45.85      |            |       |  0.39

Nlocal:           2160 ave        2160 max        2160 min
Histogram: 1 0 0 0 0 0 0 0 0 0
Nghost:           5975 ave        5975 max        5975 min
Histogram: 1 0 0 0 0 0 0 0 0 0
Neighs:              0 ave           0 max           0 min
Histogram: 1 0 0 0 0 0 0 0 0 0
FullNghs:       392422 ave      392422 max      392422 min
Histogram: 1 0 0 0 0 0 0 0 0 0

Total # of neighbors = 392422
Ave neighs/atom = 181.67685
Neighbor list builds = 200000
Dangerous builds = 200000
Total wall time: 3:17:17
