LAMMPS (7 Feb 2024 - Update 1)
KOKKOS mode with Kokkos version 4.2.0 is enabled (src/KOKKOS/kokkos.cpp:72)
  will use up to 4 GPU(s) per node
  using 1 OpenMP thread(s) per MPI task
package kokkos
package kokkos newton on neigh half

units		metal						## E in [eV], t in [ps], P in [10000 Pa], l in [A]
atom_style	atomic						## mass x y z vx vy vz

neighbor	0.5 bin						## neighbor list, skin = 0.5 Angstrom
neigh_modify	every 2 delay 10 check yes			## update of neighbor list

############################## main variables
variable        seed equal 12647

variable	temperature equal 320
variable	tempDamp equal 0.1

variable        pressure equal 10000
variable        pressureDamp equal 1.0 				# This is 1 ps

##############################

read_data water.dat
Reading data file ...
  triclinic box = (0 0 0) to (24.989956 24.989919 23.167336) with tilt (-0.22207236 -0.16357316 -0.098737559)
  2 by 2 by 1 MPI processor grid
  reading atoms ...
  1920 atoms
  read_data CPU = 0.013 seconds

mass		1 1.008    # H
mass		2 15.9994  # O


pair_style	pace/extrapolation
ACE/AL version: 2023.11.25
pair_coeff	* * /home/cicn/cicn607503/pd/pot_dir/interim_potential_ladder_step_1.yaml /home/cicn/cicn607503/pd/pot_dir/interim_potential_ladder_step_1.asi H O
Loading /home/cicn/cicn607503/pd/pot_dir/interim_potential_ladder_step_1.yaml
Total number of basis functions
	H: 23 (r=1) 664 (r>1)
	O: 23 (r=1) 664 (r>1)
Mapping LAMMPS atom type #1(H) -> ACE species type #0
Mapping LAMMPS atom type #2(O) -> ACE species type #1
Loading ASI /home/cicn/cicn607503/pd/pot_dir/interim_potential_ladder_step_1.asi
LINEAR ASI is loaded

fix pace_gamma all pair 1000 pace/extrapolation gamma 1
compute max_pace_gamma all reduce max f_pace_gamma
variable dump_skip equal "c_max_pace_gamma < 10"

dump pace_dump all custom 1000 extrapolative_structures.dump id type x y z f_pace_gamma
dump_modify pace_dump skip v_dump_skip
dump_modify pace_dump element H O

variable max_pace_gamma equal c_max_pace_gamma

timestep	0.0005						## timestep = 0.0005*ps = 0.5 fs

thermo		100
thermo_style custom step etotal pe ke press temp vol density c_max_pace_gamma


min_style cg/kk
minimize 0.0 5.0e-4 10000 100000
Switching to 'neigh_modify every 1 delay 0 check yes' setting during minimization
Neighbor list info ...
  update: every = 1 steps, delay = 0 steps, check = yes
  max neighbors/atom: 2000, page size: 100000
  master list distance cutoff = 6.5
  ghost atom cutoff = 6.5
  binsize = 6.5, bins = 4 4 4
  1 neighbor lists, perpetual/occasional/extra = 1 0 0
  (1) pair pace/extrapolation/kk, perpetual
      attributes: full, newton on, kokkos_device
      pair build: full/bin/kk/device
      stencil: full/bin/3d
      bin: kk/device
WARNING: Fix with atom-based arrays not compatible with sending data in Kokkos communication, switching to classic exchange/border communication (src/KOKKOS/comm_kokkos.cpp:666)
WARNING: Fix with atom-based arrays not compatible with Kokkos sorting on device, switching to classic host sorting (src/KOKKOS/atom_kokkos.cpp:218)
Per MPI rank memory allocation (min/avg/max) = 423.1 | 425.6 | 428.5 Mbytes
   Step         TotEng         PotEng         KinEng         Press           Temp          Volume        Density     c_max_pace_gamma
         0  -9186.3912     -9186.3912      0              71325.798      0              14467.932      1.3233249      0.69469969   
       100  -9273.0206     -9273.0206      0             -8111.1919      0              14467.932      1.3233249      0.69469969   
       200  -9273.1149     -9273.1149      0             -8131.3494      0              14467.932      1.3233249      0.69469969   
       293  -9273.1151     -9273.1151      0             -8129.2692      0              14467.932      1.3233249      0.69469969   
Loop time of 1.18851 on 4 procs for 293 steps with 1920 atoms

99.6% CPU use with 4 MPI tasks x 1 OpenMP threads

Minimization stats:
  Stopping criterion = force tolerance
  Energy initial, next-to-last, final = 
     -9186.39119087423  -9273.11512023679  -9273.11512024178
  Force two-norm initial, final = 64.044178 0.00046765519
  Force max component initial, final = 2.4633048 9.4422067e-05
  Final line search alpha, max atom move = 1 9.4422067e-05
  Iterations, force evaluations = 293 585

MPI task timing breakdown:
Section |  min time  |  avg time  |  max time  |%varavg| %total
---------------------------------------------------------------
Pair    | 0.77395    | 0.77839    | 0.78806    |   0.6 | 65.49
Neigh   | 0.0029391  | 0.0030945  | 0.0032277  |   0.2 |  0.26
Comm    | 0.18603    | 0.19676    | 0.20218    |   1.4 | 16.56
Output  | 0.0003025  | 0.00030444 | 0.00030547 |   0.0 |  0.03
Modify  | 0.13       | 0.13156    | 0.13365    |   0.4 | 11.07
Other   |            | 0.0784     |            |       |  6.60

Nlocal:            480 ave         482 max         478 min
Histogram: 1 0 0 0 0 2 0 0 0 1
Nghost:         2630.5 ave        2633 max        2629 min
Histogram: 1 0 2 0 0 0 0 0 0 1
Neighs:              0 ave           0 max           0 min
Histogram: 4 0 0 0 0 0 0 0 0 0
FullNghs:      75285.5 ave       75714 max       74890 min
Histogram: 1 0 0 1 0 1 0 0 0 1

Total # of neighbors = 301142
Ave neighs/atom = 156.84479
Neighbor list builds = 7
Dangerous builds = 0

################## equilibration of main calculation
# Equilibrate to specified number of ice

fix             3 all nph tri ${pressure} ${pressure} ${pressureDamp}
fix             3 all nph tri 10000 ${pressure} ${pressureDamp}
fix             3 all nph tri 10000 10000 ${pressureDamp}
fix             3 all nph tri 10000 10000 1
fix             4 all temp/csvr ${temperature} ${temperature} ${tempDamp} ${seed}
fix             4 all temp/csvr 320 ${temperature} ${tempDamp} ${seed}
fix             4 all temp/csvr 320 320 ${tempDamp} ${seed}
fix             4 all temp/csvr 320 320 0.1 ${seed}
fix             4 all temp/csvr 320 320 0.1 12647
velocity 	all create ${temperature} ${seed} dist gaussian
velocity 	all create 320 ${seed} dist gaussian
velocity 	all create 320 12647 dist gaussian

run 200000
WARNING: Fix with atom-based arrays not compatible with sending data in Kokkos communication, switching to classic exchange/border communication (src/KOKKOS/comm_kokkos.cpp:666)
WARNING: Fix with atom-based arrays not compatible with Kokkos sorting on device, switching to classic host sorting (src/KOKKOS/atom_kokkos.cpp:218)
Per MPI rank memory allocation (min/avg/max) = 424.7 | 426.4 | 427.6 Mbytes
   Step         TotEng         PotEng         KinEng         Press           Temp          Volume        Density     c_max_pace_gamma
       293  -9193.7391     -9273.1151      79.37607      -2269.2068      320            14467.932      1.3233249      0.69469969   
       300  -9193.5015     -9248.3091      54.807594     -11524.569      220.95362      14467.312      1.3233816      0.69469969   
       400  -9174.8059     -9220.8922      46.086261      114.45317      185.79408      14345.713      1.334599       0.69469969   
       500  -9159.3948     -9214.8266      55.43176       7586.7409      223.46991      14104.108      1.3574609      0.69469969   
       600  -9145.7203     -9209.6618      63.941566      11757.782      257.7767       13865.545      1.3808166      0.69469969   
       700  -9139.5802     -9205.5199      65.939723      12463.32       265.83215      13709.863      1.3964964      0.69469969   
       800  -9133.119      -9200.7878      67.668814      13866.766      272.80288      13651.493      1.4024675      0.69469969   
       900  -9130.6862     -9202.1128      71.426559      16302.971      287.95201      13682.095      1.3993306      0.69469969   
      1000  -9127.2719     -9200.0112      72.739349      14631.637      293.24445      13784.088      1.3889765      0.67881121   
      1100  -9125.8457     -9199.409       73.563245      9634.0497      296.56593      13921.817      1.3752353      0.67881121   
      1200  -9121.9105     -9198.0893      76.178892      9812.3781      307.11076      14065.363      1.3612002      0.67881121   
      1300  -9118.015      -9194.6557      76.640735      9026.8048      308.97266      14187.111      1.3495189      0.67881121   
      1400  -9118.6071     -9193.4937      74.886644      9355.6912      301.90114      14269.778      1.341701       0.67881121   
      1500  -9118.4253     -9192.6096      74.184267      6978.8784      299.06955      14310.14       1.3379167      0.67881121   
      1600  -9115.2333     -9193.174       77.940687      7938.0374      314.21334      14308.271      1.3380915      0.67881121   
      1700  -9114.5413     -9193.1274      78.586113      7177.0308      316.81534      14266.732      1.3419874      0.67881121   
      1800  -9113.6781     -9188.7133      75.03526       6120.5508      302.50028      14201.111      1.3481885      0.67881121   
      1900  -9113.5739     -9189.611       76.037072      8238.052       306.53902      14135.022      1.3544921      0.67881121   
      2000  -9112.0034     -9191.341       79.337605      11204.863      319.84493      14081.101      1.3596788      0.70966324   
      2100  -9111.5654     -9190.6352      79.069797      10006.213      318.76528      14051.405      1.3625523      0.70966324   
      2200  -9112.6403     -9192.5011      79.860819      9578.71        321.95424      14051.605      1.3625329      0.70966324   
      2300  -9110.7287     -9188.6251      77.896376      8814.1315      314.0347       14076.925      1.3600821      0.70966324   
      2400  -9110.526      -9188.5519      78.025984      11105.332      314.55721      14124.658      1.3554859      0.70966324   
      2500  -9108.5882     -9190.5978      82.009616      13201.588      330.61699      14184.893      1.3497299      0.70966324   
      2600  -9108.006      -9188.0522      80.046247      10543.98       322.70178      14242.79       1.3442433      0.70966324   
      2700  -9108.6323     -9188.1851      79.552721      9332.1139      320.71216      14286.181      1.3401605      0.70966324   
      2800  -9107.4851     -9187.0554      79.570315      9754.1757      320.78309      14307.357      1.3381769      0.70966324   
      2900  -9108.9784     -9188.3626      79.384231      11830.579      320.0329       14302.303      1.3386497      0.70966324   
      3000  -9108.8083     -9188.2391      79.430759      10150.143      320.22048      14275.936      1.3411222      0.70281229   
      3100  -9109.255      -9188.5503      79.295303      8470.6605      319.67439      14236.708      1.3448176      0.70281229   
      3200  -9108.8181     -9187.0521      78.234003      10832.173      315.39583      14192.762      1.3489816      0.70281229   
      3300  -9110.0682     -9190.944       80.875815      9764.4329      326.04613      14150.37       1.3530229      0.70281229   
      3400  -9109.7367     -9189.8206      80.083896      8855.046       322.85356      14118.984      1.3560306      0.70281229   
      3500  -9111.1593     -9188.9567      77.797391      10142.809      313.63565      14101.554      1.3577067      0.70281229   
      3600  -9110.8145     -9190.3203      79.505795      12006.647      320.52298      14101.488      1.3577131      0.70281229   
      3700  -9109.6096     -9190.0221      80.412452      12187.5        324.17812      14120.888      1.3558478      0.70281229   
      3800  -9111.668      -9190.0826      78.414661      10621.077      316.12414      14154.933      1.3525867      0.70281229   
      3900  -9111.2579     -9191.2555      79.997575      9650.9224      322.50556      14193.113      1.3489482      0.70281229   
      4000  -9111.3352     -9189.3866      78.051404      10427.507      314.65969      14226.77       1.345757       0.70493742   
      4100  -9111.0458     -9187.2554      76.209536      7267.6766      307.2343       14249.651      1.343596       0.70493742   
      4200  -9111.1057     -9190.4987      79.393008      9676.1104      320.06829      14256.364      1.3429633      0.70493742   
      4300  -9110.2295     -9191.5085      81.279008      8044.3452      327.67159      14248.158      1.3437369      0.70493742   
      4400  -9112.3448     -9191.403       79.058184      8167.9106      318.71846      14224.803      1.345943       0.70493742   
      4500  -9109.9548     -9188.5386      78.583786      11259.289      316.80595      14186.004      1.3496242      0.70493742   
      4600  -9110.5327     -9189.3437      78.811026      7966.8954      317.72206      14142.929      1.3537348      0.70493742   
      4700  -9110.9938     -9190.2545      79.260718      10110.312      319.53497      14099.55       1.3578997      0.70493742   
      4800  -9111.5525     -9189.4551      77.902611      11502.373      314.05984      14061.589      1.3615655      0.70493742   
      4900  -9110.2863     -9189.4842      79.197917      11607.679      319.28179      14043.085      1.3633596      0.70493742   
      5000  -9110.3317     -9187.8272      77.495532      13719.543      312.41872      14050.448      1.3626452      0.65900119   
      5100  -9110.4654     -9188.7045      78.239116      11402.934      315.41644      14088.769      1.3589388      0.65900119   
      5200  -9111.7707     -9190.5321      78.761428      12896.421      317.52211      14151.355      1.3529287      0.65900119   
      5300  -9110.7955     -9191.2181      80.422605      10899.369      324.21904      14223.034      1.3461105      0.65900119   
      5400  -9111.58       -9189.9308      78.350766      9627.8089      315.86655      14285.065      1.3402651      0.65900119   
      5500  -9112.0905     -9189.014       76.92341       7782.1655      310.11224      14321.979      1.3368107      0.65900119   
      5600  -9111.266      -9190.1014      78.83539       4872.5912      317.82028      14328.19       1.3362312      0.65900119   
      5700  -9113.0556     -9189.4431      76.387493      6102.9466      307.95173      14298.962      1.3389625      0.65900119   
      5800  -9113.344      -9191.4115      78.067559      9832.3009      314.72482      14242.216      1.3442975      0.65900119   
      5900  -9112.9801     -9190.9552      77.975103      7152.6609      314.35208      14172.356      1.350924       0.65900119   
      6000  -9111.995      -9190.7176      78.722619      12014.914      317.36565      14104.624      1.3574112      0.75151801   
      6100  -9111.0423     -9189.208       78.165701      10708.679      315.12047      14054.672      1.3622356      0.75151801   
      6200  -9108.3937     -9188.2913      79.897608      13082.106      322.10255      14035.137      1.3641317      0.75151801   
      6300  -9108.4676     -9188.3723      79.904657      15507.511      322.13097      14049.002      1.3627853      0.75151801   
      6400  -9110.9053     -9190.531       79.62577       10776.01       321.00665      14093.84       1.3584498      0.75151801   
      6500  -9110.411      -9189.8402      79.429159      12536.681      320.21403      14157.147      1.3523752      0.75151801   
      6600  -9108.2672     -9188.0934      79.826124      8616.4093      321.81437      14222.602      1.3461513      0.75151801   
      6700  -9108.2736     -9187.0467      78.773074      11348.636      317.56906      14281.441      1.3406053      0.75151801   
      6800  -9111.2914     -9190           78.708624      9556.6867      317.30923      14321.082      1.3368944      0.75151801   
      6900  -9110.9562     -9191.728       80.771841      9889.2356      325.62697      14327.132      1.3363299      0.75151801   
      7000  -9109.0674     -9189.355       80.287552      8296.2997      323.67459      14298.594      1.338997       0.70088457   
      7100  -9109.2771     -9189.2105      79.933326      8395.1699      322.24655      14245.193      1.3440165      0.70088457   
      7200  -9107.9752     -9187.7452      79.769999      9146.1655      321.5881       14185.548      1.3496676      0.70088457   
      7300  -9107.4286     -9189.1631      81.734507      10805.954      329.5079       14133.677      1.3546209      0.70088457   
      7400  -9105.2452     -9187.5151      82.269965      13300.903      331.66657      14100.957      1.3577642      0.70088457   
      7500  -9104.3032     -9187.2201      82.916838      12609.452      334.2744       14098.986      1.357954       0.70088457   
      7600  -9107.2634     -9188.5403      81.276898      10113.299      327.66308      14126.75       1.3552851      0.70088457   
      7700  -9107.7423     -9188.2454      80.503033      7724.503       324.54329      14170.357      1.3511145      0.70088457   
      7800  -9108.6958     -9188.1256      79.42981       9157.507       320.21665      14219.63       1.3464327      0.70088457   
      7900  -9110.2068     -9189.0593      78.852409      8966.6797      317.88889      14258.523      1.34276        0.70088457   
      8000  -9110.9293     -9188.7999      77.870659      10536.743      313.93102      14274.262      1.3412795      0.67849942   
      8100  -9112.345      -9189.1384      76.793379      9558.9132      309.58803      14269.244      1.3417512      0.67849942   
      8200  -9112.2448     -9189.9986      77.753768      8678.2539      313.45978      14246.562      1.3438874      0.67849942   
      8300  -9110.0922     -9189.8263      79.734134      11511.204      321.44351      14208.542      1.3474834      0.67849942   
      8400  -9110.0881     -9188.3463      78.258198      11962.603      315.49336      14166.991      1.3514355      0.67849942   
      8500  -9109.909      -9190.7614      80.852391      11174.636      325.9517       14137.233      1.3542802      0.67849942   
      8600  -9109.9707     -9189.5957      79.624935      11553.545      321.00328      14124.668      1.355485       0.67849942   
      8700  -9113.2935     -9190.7987      77.505275      8995.1083      312.458        14123.838      1.3555646      0.67849942   
      8800  -9111.4972     -9189.5185      78.021315      10630.974      314.53838      14129.64       1.355008       0.67849942   
      8900  -9110.7784     -9190.0577      79.279341      13979.326      319.61004      14145.57       1.353482       0.67849942   
      9000  -9109.5556     -9190.2981      80.742479      9310.1853      325.5086       14171.31       1.3510237      0.76741634   
      9100  -9108.8535     -9190.6778      81.824235      7543.8607      329.86964      14201.173      1.3481827      0.76741634   
      9200  -9109.4635     -9187.2663      77.802754      7831.8952      313.65727      14226.306      1.3458009      0.76741634   
      9300  -9111.216      -9188.2883      77.07226       8726.1484      310.71232      14238.414      1.3446564      0.76741634   
      9400  -9110.0498     -9188.638       78.58819       7128.3842      316.82371      14235.421      1.3449391      0.76741634   
      9500  -9112.5625     -9189.7314      77.168908      7768.2421      311.10195      14216.479      1.3467311      0.76741634   
      9600  -9112.0014     -9191.2182      79.216864      9856.2607      319.35817      14182.344      1.3499725      0.76741634   
      9700  -9112.2584     -9189.4556      77.197206      10330.058      311.21604      14141.965      1.3538271      0.76741634   
      9800  -9111.3146     -9189.8103      78.495671      9432.9629      316.45072      14105.964      1.3572823      0.76741634   
      9900  -9112.051      -9190.7677      78.716712      9014.5694      317.34184      14081.18       1.3596712      0.76741634   
     10000  -9110.2029     -9191.2597      81.056788      13357.725      326.77572      14075.684      1.3602021      0.68979112   
     10100  -9110.708      -9191.1798      80.471714      12843.709      324.41702      14091.331      1.3586917      0.68979112   
     10200  -9110.1668     -9189.506       79.339226      11517.349      319.85146      14130.923      1.3548849      0.68979112   
     10300  -9110.121      -9187.5024      77.381455      10710.471      311.95882      14189.66       1.3492765      0.68979112   
     10400  -9111.3464     -9190.1342      78.787825      10022.307      317.62852      14258.035      1.342806       0.68979112   
     10500  -9111.8665     -9189.3356      77.469171      10238.832      312.31245      14312.451      1.3377006      0.68979112   
     10600  -9110.6699     -9188.9278      78.257904      10126.444      315.49218      14338.858      1.3352371      0.68979112   
     10700  -9108.6767     -9189.3216      80.644909      7703.2337      325.11525      14331.966      1.3358791      0.68979112   
     10800  -9109.9738     -9189.5426      79.568731      11167.301      320.7767       14291.792      1.3396343      0.68979112   
     10900  -9109.5276     -9188.3697      78.842052      10782.13       317.84714      14225.28       1.3458979      0.68979112   
     11000  -9106.6449     -9187.5821      80.937187      10728.559      326.29355      14153.434      1.35273        0.739791     
     11100  -9107.1518     -9188.404       81.252169      10021.583      327.56338      14096.636      1.3581804      0.739791     
     11200  -9105.4085     -9187.7372      82.328693      9856.9562      331.90333      14064.516      1.3612821      0.739791     
     11300  -9108.1654     -9189.0077      80.842311      11740.227      325.91107      14061.683      1.3615564      0.739791     
     11400  -9109.2218     -9188.6385      79.416739      7824.8741      320.16396      14089.262      1.3588912      0.739791     
     11500  -9109.0283     -9188.6711      79.642804      8648.2617      321.07532      14140.253      1.3539909      0.739791     
     11600  -9110.8481     -9191.6171      80.768955      10980.151      325.61533      14203.013      1.3480079      0.739791     
     11700  -9110.8565     -9189.7198      78.863277      10891.268      317.9327       14257.86       1.3428224      0.739791     
     11800  -9112.1558     -9189.8696      77.713767      9147.5501      313.29852      14290.483      1.339757       0.739791     
     11900  -9112.7082     -9189.041       76.33288       7894.5691      307.73156      14294.421      1.3393879      0.739791     
     12000  -9111.0821     -9190.2341      79.151989      6651.2426      319.09663      14270.385      1.3416439      0.71088843   
     12100  -9112.6411     -9190.8036      78.162483      10545.116      315.10749      14221.165      1.3462874      0.71088843   
     12200  -9110.5051     -9189.7242      79.219037      11059.24       319.36693      14163.187      1.3517985      0.71088843   
     12300  -9111.1923     -9190.5206      79.328331      9713.2639      319.80754      14107.074      1.3571754      0.71088843   
     12400  -9110.7981     -9190.823       80.024924      11871.715      322.61582      14067.007      1.3610411      0.71088843   
     12500  -9109.9375     -9190.9588      81.021384      10179.003      326.63299      14052.806      1.3624165      0.71088843   
     12600  -9109.6311     -9188.2871      78.655904      10501.815      317.09669      14067.771      1.3609671      0.71088843   
     12700  -9110.8201     -9190.2427      79.422639      11046.68       320.18774      14108.33       1.3570546      0.71088843   
     12800  -9108.4869     -9190.6355      82.148565      9400.5773      331.17715      14161.43       1.3519662      0.71088843   
     12900  -9109.3336     -9189.1757      79.842087      6387.2694      321.87872      14214.258      1.3469416      0.71088843   
     13000  -9110.6581     -9188.507       77.848933      9935.4777      313.84344      14256.864      1.3429163      0.6857218    
     13100  -9109.4826     -9187.2338      77.7512        9407.7177      313.44943      14282.105      1.3405429      0.6857218    
     13200  -9107.238      -9187.5492      80.311189      8949.2504      323.76988      14286.869      1.3400959      0.6857218    
     13300  -9109.4779     -9190.5203      81.042405      9950.9994      326.71773      14274.163      1.3412887      0.6857218    
     13400  -9110.7395     -9190.4029      79.663426      10097.687      321.15846      14245.11       1.3440243      0.6857218    
     13500  -9109.9046     -9189.3097      79.4051        10492.229      320.11703      14205.537      1.3477684      0.6857218    
     13600  -9107.9507     -9189.3946      81.443964      10359.466      328.33659      14166.455      1.3514866      0.6857218    
     13700  -9107.2855     -9187.1747      79.889157      9110.8143      322.06848      14134.648      1.3545279      0.6857218    
     13800  -9107.6204     -9186.9023      79.281926      10245.532      319.62046      14119.892      1.3559434      0.6857218    
     13900  -9108.0535     -9187.7642      79.710622      9764.5964      321.34873      14128.368      1.3551299      0.6857218    
     14000  -9108.0589     -9188.2825      80.223615      10613.046      323.41683      14151.989      1.3528681      0.72567624   
     14100  -9111.0636     -9189.8053      78.741749      9719.5488      317.44277      14185.108      1.3497095      0.72567624   
     14200  -9109.5785     -9190.5037      80.925217      10369.91       326.2453       14215.731      1.346802       0.72567624   
     14300  -9109.2808     -9188.6165      79.335679      7669.4295      319.83716      14234.874      1.3449908      0.72567624   
     14400  -9109.9766     -9189.3379      79.36122       7464.3911      319.94013      14237.947      1.3447005      0.72567624   
     14500  -9107.6811     -9187.1608      79.479687      8637.8963      320.41773      14227.163      1.3457198      0.72567624   
     14600  -9107.0913     -9187.1607      80.069419      8442.5165      322.7952       14208.589      1.3474789      0.72567624   
     14700  -9108.5489     -9187.5524      79.003436      10751.342      318.49775      14191.416      1.3491096      0.72567624   
     14800  -9109.0572     -9189.1035      80.04625       7529.1003      322.70179      14179.385      1.3502542      0.72567624   
     14900  -9109.8483     -9187.9043      78.056086      8579.9807      314.67856      14168.643      1.3512779      0.72567624   
     15000  -9109.9822     -9188.6823      78.700148      11066.715      317.27506      14159.116      1.3521872      0.73684143   
     15100  -9110.2342     -9189.0656      78.831341      10266.329      317.80396      14154.857      1.352594       0.73684143   
     15200  -9109.8917     -9187.5663      77.674614      11901.325      313.14068      14155.31       1.3525507      0.73684143   
     15300  -9112.6822     -9189.5912      76.908973      9368.7955      310.05404      14164.656      1.3516583      0.73684143   
     15400  -9111.4918     -9189.3921      77.900282      11698.472      314.05045      14177.753      1.3504096      0.73684143   
     15500  -9110.3416     -9190.0244      79.682755      11218.397      321.23639      14195.199      1.34875        0.73684143   
     15600  -9107.9365     -9188.3612      80.424704      11912.185      324.22751      14215.068      1.3468648      0.73684143   
     15700  -9108.7116     -9188.6777      79.966096      9858.4847      322.37866      14234.332      1.345042       0.73684143   
     15800  -9108.8133     -9186.959       78.145718      9449.756       315.03991      14246.752      1.3438695      0.73684143   
     15900  -9110.3841     -9190.3445      79.960397      8794.464       322.35568      14248.752      1.3436809      0.73684143   
     16000  -9110.4077     -9187.1942      76.786452      7881.5248      309.5601       14238.175      1.344679       0.66027056   
     16100  -9110.1628     -9189.0953      78.932524      8287.4014      318.21187      14220.472      1.346353       0.66027056   
     16200  -9109.5713     -9187.3062      77.734916      11486.229      313.38378      14197.054      1.3485738      0.66027056   
     16300  -9110.6343     -9188.3293      77.694967      13221.189      313.22273      14174.121      1.3507557      0.66027056   
     16400  -9108.7782     -9190.8311      82.052915      9097.6751      330.79155      14154.807      1.3525988      0.66027056   
     16500  -9111.8661     -9189.5229      77.656742      13564.606      313.06863      14138.125      1.3541947      0.66027056   
     16600  -9111.359      -9188.6698      77.310811      10379.554      311.67403      14128.098      1.3551558      0.66027056   
     16700  -9109.9715     -9189.3142      79.342717      10015.061      319.86554      14128.34       1.3551327      0.66027056   
     16800  -9111.5161     -9189.139       77.622909      12050.671      312.93224      14140.849      1.3539339      0.66027056   
     16900  -9109.0125     -9188.8072      79.794619      10603.288      321.68735      14164.147      1.3517069      0.66027056   
     17000  -9108.3601     -9188.6251      80.264969      8999.3019      323.58355      14201.746      1.3481282      0.62123625   
     17100  -9110.5128     -9189.2608      78.747988      10176.189      317.46792      14241.728      1.3443435      0.62123625   
     17200  -9109.7082     -9188.2769      78.568709      12020.139      316.74517      14270.789      1.3416059      0.62123625   
     17300  -9110.426      -9190.455       80.029012      6185.3751      322.6323       14283.733      1.3403901      0.62123625   
     17400  -9109.8992     -9189.401       79.501843      10191.411      320.50705      14275.074      1.3412032      0.62123625   
     17500  -9109.6061     -9188.9219      79.315739      9840.8552      319.75678      14249.42       1.3436178      0.62123625   
     17600  -9107.5163     -9187.6417      80.125388      8370.8346      323.02083      14216.975      1.3466842      0.62123625   
     17700  -9107.2118     -9188.607       81.395248      10946.753      328.1402       14186.219      1.3496038      0.62123625   
     17800  -9109.1764     -9189.082       79.905615      14474.43       322.13483      14163.572      1.3517617      0.62123625   
     17900  -9108.5334     -9189.175       80.641625      10500.938      325.10201      14152.92       1.3527791      0.62123625   
     18000  -9110.604      -9189.9223      79.318259      9831.6377      319.76694      14150.976      1.352965       0.66693341   
     18100  -9109.0913     -9188.3584      79.267092      10401.582      319.56066      14156.541      1.3524331      0.66693341   
     18200  -9107.6079     -9191.1348      83.526869      11269.33       336.7337       14175.084      1.3506639      0.66693341   
     18300  -9107.0803     -9187.4102      80.329898      12094.129      323.8453       14200.902      1.3482083      0.66693341   
     18400  -9107.9306     -9189.0528      81.122173      13732.143      327.03931      14229.212      1.345526       0.66693341   
     18500  -9107.6181     -9188.5532      80.935099      7463.4352      326.28514      14254.778      1.3431128      0.66693341   
     18600  -9108.1483     -9189.6626      81.514334      7751.594       328.62029      14267.139      1.3419491      0.66693341   
     18700  -9110.5018     -9189.5398      79.037986      5516.5236      318.63704      14264.499      1.3421975      0.66693341   
     18800  -9111.0371     -9190.286       79.248953      6773.2759      319.48754      14250.005      1.3435627      0.66693341   
     18900  -9110.3436     -9192.9444      82.600775      8295.7479      333.00021      14224.709      1.3459519      0.66693341   
     19000  -9109.9342     -9188.1545      78.220356      11874.104      315.3408       14189.78       1.3492651      0.64604406   
     19100  -9108.5569     -9188.4835      79.926567      11057.605      322.2193       14155.291      1.3525525      0.64604406   
     19200  -9109.9709     -9189.8744      79.903506      13163.37       322.12633      14131.07       1.3548708      0.64604406   
     19300  -9109.9795     -9189.3527      79.373217      9808.431       319.9885       14123.087      1.3556367      0.64604406   
     19400  -9110.0065     -9190.1173      80.110737      13070.657      322.96177      14130.476      1.3549278      0.64604406   
     19500  -9110.9881     -9189.9347      78.9466        11018.776      318.26862      14150.243      1.353035       0.64604406   
     19600  -9110.1264     -9189.1415      79.015072      7839.4603      318.54466      14174.478      1.3507217      0.64604406   
     19700  -9107.4731     -9186.8769      79.403756      9976.8653      320.11161      14198.612      1.3484258      0.64604406   
     19800  -9109.6453     -9190.0705      80.425152      11065.702      324.22931      14224.076      1.3460119      0.64604406   
     19900  -9109.0713     -9189.0486      79.977295      11350.758      322.4238       14239.795      1.344526       0.64604406   
     20000  -9107.2955     -9188.7978      81.50231       9421.1081      328.57181      14246.553      1.3438882      0.67881022   
     20100  -9106.86       -9188.9181      82.058146      10681.718      330.81263      14245.65       1.3439734      0.67881022   
     20200  -9105.3072     -9187.7274      82.420214      9137.7772      332.27229      14237.399      1.3447523      0.67881022   
     20300  -9104.7869     -9186.5831      81.796232      8439.1986      329.75674      14223.111      1.3461031      0.67881022   
     20400  -9103.5708     -9187.592       84.021203      8786.6249      338.72658      14204.024      1.3479121      0.67881022   
     20500  -9105.9259     -9188.0131      82.087163      11878.55       330.92961      14189.195      1.3493207      0.67881022   
     20600  -9103.5605     -9188.3182      84.757703      10832.794      341.69574      14183.524      1.3498602      0.67881022   
     20700  -9107.0132     -9189.0904      82.077198      8262.8164      330.88944      14188.059      1.3494287      0.67881022   
     20800  -9107.0894     -9186.2378      79.148371      9082.9387      319.08205      14200.734      1.3482243      0.67881022   
     20900  -9108.7658     -9189.5075      80.741699      10517.167      325.50546      14218.473      1.3465423      0.67881022   
     21000  -9108.6546     -9191.6849      83.030252      8684.0325      334.73162      14233.133      1.3451553      0.70793056   
     21100  -9109.4019     -9188.0623      78.660356      11510.289      317.11464      14240.516      1.3444579      0.70793056   
     21200  -9111.4082     -9192.1274      80.719255      7595.7733      325.41497      14237.586      1.3447346      0.70793056   
     21300  -9112.5481     -9190.5959      78.04787       10729.202      314.64544      14214.986      1.3468726      0.70793056   
     21400  -9110.8109     -9191.4073      80.596333      11365.656      324.91942      14177.829      1.3504024      0.70793056   
     21500  -9111.4373     -9191.1014      79.664046      11576.951      321.16096      14133.845      1.3546049      0.70793056   
     21600  -9110.0697     -9190.1578      80.088093      13687.561      322.87048      14094.636      1.3583731      0.70793056   
     21700  -9108.7916     -9190.5188      81.72718       11892.355      329.47836      14077.424      1.360034       0.70793056   
     21800  -9109.3352     -9188.6592      79.323991      10002.458      319.79005      14087.053      1.3591043      0.70793056   
     21900  -9111.0688     -9190.0336      78.964809      12663.651      318.34203      14118.837      1.3560448      0.70793056   
     22000  -9111.2116     -9191.5957      80.384135      10721.84       324.06395      14161.403      1.3519688      0.66774301   
     22100  -9109.9997     -9189.0138      79.014141      11184.018      318.5409       14205.957      1.3477286      0.66774301   
     22200  -9109.8291     -9187.9302      78.101149      8432.0304      314.86023      14244.311      1.3440997      0.66774301   
     22300  -9111.1669     -9189.8894      78.722499      7834.1154      317.36517      14270.042      1.3416761      0.66774301   
     22400  -9110.1722     -9188.1831      78.010902      10373.843      314.4964       14279.906      1.3407493      0.66774301   
     22500  -9111.7254     -9188.855       77.129549      9682.8331      310.94328      14277.172      1.3410061      0.66774301   
     22600  -9110.2906     -9189.4627      79.172056      10428.129      319.17753      14257.415      1.3428643      0.66774301   
     22700  -9110.5236     -9191.1604      80.636765      5930.1006      325.08242      14224.137      1.3460061      0.66774301   
     22800  -9111.8941     -9188.6698      76.775662      7495.2057      309.51661      14182.705      1.3499382      0.66774301   
     22900  -9110.7396     -9190.8588      80.11918       9107.0965      322.9958       14143.946      1.3536375      0.66774301   
     23000  -9111.5118     -9192.2068      80.694977      9305.3389      325.3171       14116.22       1.3562962      0.69762255   
     23100  -9110.2149     -9189.2789      79.06392       6471.3157      318.74159      14105.772      1.3573007      0.69762255   
     23200  -9109.2438     -9187.6858      78.442047      8863.4399      316.23454      14115.49       1.3563663      0.69762255   
     23300  -9110.5034     -9189.82        79.316634      8424.5434      319.76039      14143.457      1.3536842      0.69762255   
     23400  -9109.1129     -9188.1159      79.003017      9766.9097      318.49606      14183.789      1.349835       0.69762255   
     23500  -9108.5138     -9189.0724      80.558604      9255.6221      324.76732      14227.459      1.3456918      0.69762255   
     23600  -9108.5178     -9189.1993      80.681475      11553.546      325.26267      14263.595      1.3422826      0.69762255   
     23700  -9111.83       -9188.7679      76.93789       7793.4068      310.17062      14285.512      1.3402232      0.69762255   
     23800  -9110.7868     -9191.6254      80.838643      8374.1981      325.89628      14292.31       1.3395857      0.69762255   
     23900  -9109.6026     -9189.2127      79.61015       8132.6342      320.94368      14280.521      1.3406916      0.69762255   
     24000  -9109.3509     -9189.1774      79.826485      9852.3861      321.81582      14251.603      1.343412       0.62590038   
     24100  -9108.9938     -9189.2363      80.242566      13030.734      323.49323      14214.208      1.3469462      0.62590038   
     24200  -9106.5924     -9187.8991      81.306784      11750.793      327.78356      14182.584      1.3499497      0.62590038   
     24300  -9107.0165     -9187.8087      80.792162      14085.546      325.70889      14159.3        1.3521696      0.62590038   
     24400  -9110.0226     -9188.3499      78.327326      10480.31       315.77205      14147.897      1.3532594      0.62590038   
     24500  -9110.6267     -9191.1476      80.520824      9555.0163      324.61501      14143.153      1.3537133      0.62590038   
     24600  -9111.3456     -9190.1926      78.846978      9319.1159      317.867        14141.548      1.353867       0.62590038   
     24700  -9110.7408     -9189.4976      78.756816      13259.92       317.50351      14149.088      1.3531455      0.62590038   
     24800  -9109.5361     -9188.6248      79.088738      11351.516      318.84164      14168.902      1.3512532      0.62590038   
     24900  -9110.4437     -9187.0978      76.654075      8959.1896      309.02644      14191.202      1.3491299      0.62590038   
     25000  -9112.9076     -9190.1849      77.277302      8975.2586      311.53894      14216.016      1.346775       0.74314533   
     25100  -9112.2192     -9190.5872      78.367964      9381.3979      315.93588      14226.454      1.3457869      0.74314533   
     25200  -9111.7715     -9189.3199      77.548405      9356.469       312.63188      14217.524      1.3466321      0.74314533   
     25300  -9111.3243     -9189.0152      77.690832      9686.4365      313.20606      14196.355      1.3486402      0.74314533   
     25400  -9111.7599     -9190.5202      78.760313      11616.397      317.51761      14166.818      1.351452       0.74314533   
     25500  -9112.2514     -9190.489       78.237602      11663.347      315.41033      14132.408      1.3547426      0.74314533   
     25600  -9111.6017     -9190.2593      78.657542      9381.0388      317.1033       14098.39       1.3580114      0.74314533   
     25700  -9110.1415     -9189.4136      79.272148      12614.036      319.58105      14078.687      1.359912       0.74314533   
     25800  -9110.764      -9190.0478      79.283827      12357.65       319.62813      14086.98       1.3591114      0.74314533   
     25900  -9113.2642     -9190.2625      76.998318      6340.9256      310.41423      14121.393      1.3557993      0.74314533   
     26000  -9111.5558     -9190.0526      78.496735      7205.5516      316.45501      14166.701      1.3514631      0.69054135   
     26100  -9110.413      -9188.7301      78.317073      9103.4476      315.73072      14214.087      1.3469578      0.69054135   
     26200  -9110.0296     -9189.1774      79.147871      9983.714       319.08003      14251.759      1.3433973      0.69054135   
     26300  -9108.9737     -9189.1867      80.212969      9488.628       323.37391      14271.356      1.3415526      0.69054135   
     26400  -9110.9222     -9190.6496      79.727471      7003.2339      321.41665      14268.225      1.341847       0.69054135   
     26500  -9109.6437     -9190.7831      81.139475      8357.8384      327.10907      14243.331      1.3441922      0.69054135   
     26600  -9108.6692     -9187.8166      79.147377      11722.321      319.07804      14196.354      1.3486402      0.69054135   
     26700  -9110.7219     -9189.3714      78.649544      10316.672      317.07105      14136.704      1.3543309      0.69054135   
     26800  -9110.2894     -9190.8278      80.538373      8886.4637      324.68576      14077.24       1.3600518      0.69054135   
     26900  -9111.004      -9190.9788      79.974841      10751.901      322.41391      14032.506      1.3643875      0.69054135   
     27000  -9110.3157     -9189.3499      79.034167      11493.888      318.62164      14011.09       1.3664729      0.68930875   
     27100  -9109.402      -9186.3997      76.997711      10965.658      310.41179      14026.213      1.3649996      0.68930875   
     27200  -9109.7353     -9187.0022      77.266949      7825.3228      311.4972       14082.217      1.359571       0.68930875   
     27300  -9111.2919     -9190.8824      79.59045       8794.5228      320.86426      14169.308      1.3512145      0.68930875   
     27400  -9112.2249     -9190.3802      78.155299      7796.403       315.07853      14262.275      1.3424068      0.68930875   
     27500  -9113.208      -9189.9608      76.752868      7115.9331      309.42472      14337.566      1.3353574      0.68930875   
     27600  -9112.7728     -9190.9022      78.129463      7423.129       314.97438      14375.531      1.3318308      0.68930875   
     27700  -9111.2821     -9191.8071      80.52502       6948.9929      324.63193      14365.119      1.3327961      0.68930875   
     27800  -9111.4419     -9189.2695      77.827627      12212.18       313.75754      14313.405      1.3376114      0.68930875   
     27900  -9108.9987     -9189.5259      80.527203      11799.205      324.64073      14240.613      1.3444488      0.68930875   
     28000  -9108.5345     -9188.9652      80.430698      10351.792      324.25167      14165.412      1.3515862      0.69505614   
     28100  -9108.4518     -9188.3617      79.909925      12745.148      322.15221      14105.522      1.3573248      0.69505614   
     28200  -9108.3422     -9188.3444      80.002123      10516.189      322.5239       14075.942      1.3601772      0.69505614   
     28300  -9107.7229     -9188.7448      81.021871      10747.56       326.63495      14075.623      1.3602079      0.69505614   
     28400  -9109.5568     -9188.5598      79.002929      10628.287      318.49571      14101.268      1.3577342      0.69505614   
     28500  -9109.0381     -9188.8815      79.843467      11449.417      321.88428      14147.203      1.3533258      0.69505614   
     28600  -9109.9499     -9189.2277      79.277808      7895.5302      319.60386      14203.356      1.3479755      0.69505614   
     28700  -9108.1957     -9188.8718      80.676097      8064.2652      325.24098      14253.748      1.3432098      0.69505614   
     28800  -9109.4912     -9191.4883      81.997185      8019.546       330.56687      14286.804      1.340102       0.69505614   
     28900  -9110.4409     -9188.6414      78.200439      8425.7381      315.26051      14296.622      1.3391817      0.69505614   
     29000  -9110.1499     -9190.4836      80.333701      8589.9563      323.86064      14285.807      1.3401955      0.65569984   
     29100  -9109.1738     -9188.9012      79.72738       9955.908       321.41629      14255.9        1.3430071      0.65569984   
     29200  -9107.0467     -9188.5709      81.52421       13671.024      328.6601       14212.479      1.3471102      0.65569984   
     29300  -9106.1578     -9187.1998      81.041944      10658.963      326.71588      14171.783      1.3509785      0.65569984   
     29400  -9108.4812     -9187.4026      78.921431      11117.964      318.16715      14144.309      1.3536027      0.65569984   
     29500  -9111.0643     -9190.6199      79.555519      12665.991      320.72344      14131.693      1.3548112      0.65569984   
     29600  -9111.7147     -9190.4793      78.764595      9991.2778      317.53487      14131.285      1.3548502      0.65569984   
     29700  -9112.2998     -9190.9727      78.672859      7947.6751      317.16505      14142.198      1.3538048      0.65569984   
     29800  -9111.4719     -9191.3507      79.878767      9573.4916      322.02659      14161.98       1.3519137      0.65569984   
     29900  -9112.2458     -9190.6249      78.379061      8528.1507      315.98062      14188.527      1.3493843      0.65569984   
     30000  -9112.1329     -9191.0313      78.898402      8778.742       318.07431      14212.626      1.3470962      0.72584607   
     30100  -9111.7599     -9190.1557      78.395801      10050.154      316.0481       14231.728      1.3452881      0.72584607   
     30200  -9112.7328     -9190.3552      77.622373      9651.6431      312.93007      14243.103      1.3442137      0.72584607   
     30300  -9114.4907     -9194.3174      79.826683      9777.6403      321.81662      14240.918      1.34442        0.72584607   
     30400  -9111.9861     -9190.3557      78.369596      12473.962      315.94246      14219.028      1.3464897      0.72584607   
     30500  -9111.9494     -9190.8373      78.887933      9947.8225      318.0321       14188.971      1.349342       0.72584607   
     30600  -9108.6575     -9188.9768      80.319267      8149.7313      323.80244      14158.907      1.3522071      0.72584607   
     30700  -9106.4007     -9188.6433      82.242553      9422.5281      331.55606      14134.735      1.3545195      0.72584607   
     30800  -9108.3553     -9190.7411      82.385827      12229.583      332.13366      14124.953      1.3554576      0.72584607   
     30900  -9109.2532     -9187.7961      78.542888      12543.969      316.64108      14133.301      1.354657       0.72584607   
     31000  -9110.0793     -9189.5308      79.451522      14698.66       320.30418      14158.484      1.3522475      0.65246887   
     31100  -9111.9309     -9191.956       80.025121      10519.936      322.61661      14197.817      1.3485013      0.65246887   
     31200  -9113.4245     -9191.9346      78.510187      9547.3004      316.50924      14236.677      1.3448205      0.65246887   
     31300  -9111.8957     -9190.1739      78.278251      8378.3867      315.57421      14260.741      1.3425512      0.65246887   
     31400  -9112.4658     -9191.1457      78.679945      10235.948      317.19361      14268.075      1.3418611      0.65246887   
     31500  -9111.9113     -9188.782       76.870755      10882.004      309.89997      14258.819      1.3427322      0.65246887   
     31600  -9113.0916     -9190.6348      77.543241      8528.5249      312.61106      14239.523      1.3445517      0.65246887   
     31700  -9112.7719     -9191.5267      78.754763      9952.948       317.49524      14208.901      1.3474494      0.65246887   
     31800  -9111.7176     -9190.1117      78.394144      8978.4726      316.04142      14172.098      1.3509485      0.65246887   
     31900  -9110.6592     -9188.8597      78.200464      9042.0079      315.26061      14139.952      1.3540198      0.65246887   
     32000  -9110.9791     -9188.0485      77.069384      12606.151      310.70073      14121.347      1.3558037      0.66699529   
     32100  -9109.8349     -9190.7507      80.915838      11315.255      326.20749      14117.246      1.3561976      0.66699529   
     32200  -9114.4317     -9192.5708      78.139156      9919.5897      315.01346      14130.89       1.3548881      0.66699529   
     32300  -9114.1109     -9192.3889      78.278068      10106.283      315.57347      14151.928      1.352874       0.66699529   
     32400  -9114.1424     -9192.186       78.043604      11864.668      314.62824      14175.905      1.3505857      0.66699529   
     32500  -9111.0251     -9190.9679      79.942805      9691.4026      322.28476      14199.928      1.3483008      0.66699529   
     32600  -9113.772      -9192.5331      78.761058      7353.3156      317.52061      14220.817      1.3463203      0.66699529   
     32700  -9112.3513     -9192.6696      80.31826       9830.5651      323.79838      14228.17       1.3456245      0.66699529   
     32800  -9108.7447     -9186.1692      77.424434      9417.3676      312.1321       14225.061      1.3459187      0.66699529   
     32900  -9109.6422     -9187.9653      78.323054      8291.6097      315.75483      14219.161      1.3464771      0.66699529   
     33000  -9108.6511     -9190.5444      81.893312      8058.9802      330.14812      14211.028      1.3472477      0.70752875   
     33100  -9111.649      -9191.0094      79.3604        10140.851      319.93683      14202.736      1.3480342      0.70752875   
     33200  -9111.1228     -9190.6501      79.527348      9316.3188      320.60987      14190.934      1.3491554      0.70752875   
     33300  -9110.3506     -9189.4446      79.093992      11552.706      318.86282      14175.25       1.3506481      0.70752875   
     33400  -9111.1159     -9191.0158      79.899908      12203.038      322.11182      14169.432      1.3512027      0.70752875   
     33500  -9111.2402     -9189.6215      78.381298      10499.159      315.98963      14175.758      1.3505997      0.70752875   
     33600  -9110.9542     -9189.5837      78.629466      9820.7471      316.99011      14191.561      1.3490957      0.70752875   
     33700  -9110.1259     -9189.6702      79.544393      12737.222      320.67859      14212.742      1.3470852      0.70752875   
     33800  -9111.0166     -9190.4727      79.456092      10886.299      320.3226       14236.521      1.3448352      0.70752875   
     33900  -9109.5493     -9186.8141      77.264799      13993.358      311.48853      14257.436      1.3428624      0.70752875   
     34000  -9109.0294     -9189.95        80.920672      10543.123      326.22698      14271.115      1.3415752      0.70782612   
     34100  -9108.5957     -9189.7571      81.161396      9995.1888      327.19744      14271.32       1.341556       0.70782612   
     34200  -9108.0968     -9188.1875      80.090647      8991.0781      322.88078      14260.543      1.3425698      0.70782612   
     34300  -9108.0218     -9187.9246      79.902776      9708.2751      322.12339      14242.352      1.3442846      0.70782612   
     34400  -9108.6872     -9188.7124      80.025234      10351.098      322.61707      14223.867      1.3460316      0.70782612   
     34500  -9109.824      -9189.1713      79.347249      9535.3288      319.88381      14207.996      1.3475352      0.70782612   
     34600  -9112.3693     -9190.199       77.829623      14713.055      313.76559      14192.892      1.3489693      0.70782612   
     34700  -9113.1967     -9193.3898      80.193094      10650.842      323.29378      14179.02       1.350289       0.70782612   
     34800  -9114.8495     -9190.3126      75.463104      11204.454      304.2251       14163.168      1.3518003      0.70782612   
     34900  -9114.2595     -9191.7163      77.456775      9838.4445      312.26247      14149.144      1.3531401      0.70782612   
     35000  -9113.9116     -9190.7092      76.797519      10009.531      309.60472      14143.239      1.3537051      0.76099107   
     35100  -9114.0108     -9193.2191      79.208314      11126.087      319.3237       14141.275      1.3538931      0.76099107   
     35200  -9112.5632     -9191.4056      78.84232       11365.549      317.84822      14143.191      1.3537097      0.76099107   
     35300  -9111.2694     -9188.0097      76.740298      10723.117      309.37404      14156.39       1.3524475      0.76099107   
     35400  -9110.8484     -9190.1707      79.322264      8072.8898      319.78309      14178.348      1.350353       0.76099107   
     35500  -9111.5648     -9190.7037      79.138969      9841.1285      319.04414      14203.97       1.3479171      0.76099107   
     35600  -9110.7127     -9188.9678      78.255037      9634.1841      315.48062      14226.532      1.3457795      0.76099107   
     35700  -9108.8271     -9188.6156      79.788545      10669.162      321.66287      14241.999      1.3443179      0.76099107   
     35800  -9110.9785     -9189.1923      78.213764      12394.314      315.31423      14251.719      1.3434011      0.76099107   
     35900  -9109.7234     -9188.9625      79.239145      11400.752      319.44799      14254.236      1.3431638      0.76099107   
     36000  -9108.5593     -9188.81        80.250629      9437.398       323.52573      14247.402      1.3438081      0.72585522   
     36100  -9108.6535     -9190.6109      81.957324      10425.465      330.40618      14235.313      1.3449493      0.72585522   
     36200  -9110.3383     -9189.9713      79.632927      10512.411      321.0355       14218.916      1.3465003      0.72585522   
     36300  -9110.7359     -9189.779       79.043078      12201.02       318.65756      14200.296      1.3482659      0.72585522   
     36400  -9110.1869     -9189.9808      79.793887      11487.314      321.6844       14184.945      1.349725       0.72585522   
     36500  -9111.5578     -9190.6895      79.131664      10046.744      319.01469      14174.935      1.3506781      0.72585522   
     36600  -9113.6186     -9190.6762      77.057563      10714.749      310.65308      14172.688      1.3508923      0.72585522   
     36700  -9113.4477     -9190.776       77.328244      11701.979      311.74431      14177.556      1.3504284      0.72585522   
     36800  -9115.28       -9190.5181      75.238157      8920.3658      303.31825      14185.677      1.3496554      0.72585522   
     36900  -9111.9465     -9191.0676      79.121089      11797.572      318.97206      14192.848      1.3489734      0.72585522   
     37000  -9113.8837     -9191.5179      77.634222      7307.4843      312.97784      14197.797      1.3485032      0.68874914   
     37100  -9112.9454     -9190.314       77.368583      11291.289      311.90693      14198.505      1.3484359      0.68874914   
     37200  -9112.0172     -9191.9383      79.92108       11836.151      322.19717      14201.354      1.3481655      0.68874914   
     37300  -9109.1976     -9189.2787      80.081156      10197.634      322.84252      14205.716      1.3477515      0.68874914   
     37400  -9109.9859     -9189.7989      79.813022      10714.977      321.76155      14213.636      1.3470005      0.68874914   
     37500  -9111.1837     -9190.4445      79.260778      9321.2595      319.53521      14221.899      1.3462179      0.68874914   
     37600  -9109.6171     -9187.9212      78.304091      9636.7629      315.67838      14225.817      1.3458471      0.68874914   
     37700  -9112.408      -9190.7228      78.314819      12466.167      315.72163      14229.366      1.3455114      0.68874914   
     37800  -9109.5176     -9188.6449      79.12726       11296.866      318.99694      14227.936      1.3456467      0.68874914   
     37900  -9110.4005     -9191.0535      80.653029      7306.8054      325.14799      14224.372      1.3459838      0.68874914   
     38000  -9108.6331     -9191.2799      82.64675       10157.05       333.18556      14220.43       1.3463569      0.71075864   
     38100  -9109.7745     -9188.3916      78.61712       11541.451      316.94034      14219          1.3464923      0.71075864   
     38200  -9108.3251     -9188.3882      80.063095      12955.846      322.7697       14222.646      1.3461471      0.71075864   
     38300  -9105.6714     -9185.95        80.278543      11055.582      323.63827      14228.708      1.3455737      0.71075864   
     38400  -9106.2255     -9186.1982      79.972763      8635.218       322.40554      14240.487      1.3444607      0.71075864   
     38500  -9105.8235     -9187.9052      82.081664      7882.8126      330.90745      14258.929      1.3427218      0.71075864   
     38600  -9105.8818     -9185.5292      79.647472      11972.888      321.09414      14277.391      1.3409855      0.71075864   
     38700  -9106.0832     -9186.5993      80.51615       10272.696      324.59617      14289.431      1.3398557      0.71075864   
     38800  -9107.3803     -9187.8482      80.467849      10518.966      324.40144      14287.061      1.3400779      0.71075864   
     38900  -9107.3797     -9188.3288      80.949139      7241.9192      326.34174      14267.799      1.341887       0.71075864   
     39000  -9108.165      -9188.7149      80.549846      8536.9586      324.73201      14237.164      1.3447745      0.67874047   
     39100  -9107.6906     -9188.2042      80.513643      13095.489      324.58606      14206.032      1.3477215      0.67874047   
     39200  -9109.1223     -9188.6335      79.511219      11067.538      320.54485      14181.766      1.3500275      0.67874047   
     39300  -9110.6926     -9189.7321      79.039491      8436.7024      318.6431       14164.772      1.3516472      0.67874047   
     39400  -9111.0156     -9189.4604      78.444839      7664.9861      316.2458       14156.77       1.3524112      0.67874047   
     39500  -9107.8138     -9188.261       80.447276      9606.9079      324.31851      14158.106      1.3522836      0.67874047   
     39600  -9107.9601     -9188.0398      80.079745      9267.5614      322.83683      14176.292      1.3505488      0.67874047   
     39700  -9108.0844     -9188.7481      80.663713      9407.5516      325.19106      14206.411      1.3476855      0.67874047   
     39800  -9108.4847     -9189.4291      80.944491      8220.0541      326.323        14241.822      1.3443346      0.67874047   
     39900  -9110.0259     -9189.9084      79.882437      6322.9991      322.04139      14268.785      1.3417943      0.67874047   
     40000  -9108.6362     -9188.6941      80.057824      7161.8275      322.74845      14283.873      1.340377       0.64051233   
     40100  -9107.6929     -9187.773       80.080037      8997.3273      322.838        14285.349      1.3402385      0.64051233   
     40200  -9107.7463     -9186.719       78.972695      8315.4435      318.37382      14274.919      1.3412177      0.64051233   
     40300  -9111.2713     -9190.2204      78.949097      7914.4402      318.27869      14253.881      1.3431973      0.64051233   
     40400  -9109.3057     -9191.4568      82.151178      9151.7238      331.18769      14219.369      1.3464574      0.64051233   
     40500  -9110.6566     -9190.0363      79.37967       10940.384      320.01451      14182.349      1.3499721      0.64051233   
     40600  -9111.7252     -9190.0619      78.336777      12221.92       315.81015      14151.645      1.352901       0.64051233   
     40700  -9113.2231     -9190.4912      77.268176      12223.16       311.50215      14133.238      1.354663       0.64051233   
     40800  -9113.6543     -9191.6041      77.949763      11220.297      314.24993      14126.285      1.3553298      0.64051233   
     40900  -9110.8396     -9189.8537      79.014093      11589.123      318.54071      14133.083      1.3546779      0.64051233   
     41000  -9109.5969     -9190.2041      80.60718       8477.7526      324.96315      14155.854      1.3524987      0.67384304   
     41100  -9109.8993     -9190.3602      80.460948      9955.0331      324.37362      14191.66       1.3490863      0.67384304   
     41200  -9111.119      -9190.7104      79.591444      11808.542      320.86827      14230.74       1.3453816      0.67384304   
     41300  -9108.0584     -9187.4188      79.360391      12913.229      319.93679      14263.336      1.342307       0.67384304   
     41400  -9106.2958     -9186.2899      79.994181      8144.7261      322.49188      14287.034      1.3400804      0.67384304   
     41500  -9106.1505     -9188.0489      81.898404      7089.9001      330.16864      14301.11       1.3387614      0.67384304   
     41600  -9103.7616     -9185.5916      81.829928      11628.532      329.89258      14304.391      1.3384543      0.67384304   
     41700  -9105.3278     -9186.2868      80.959091      10378.976      326.38186      14298.414      1.3390139      0.67384304   
     41800  -9104.8084     -9188.4538      83.645376      9990.1687      337.21146      14282.239      1.3405304      0.67384304   
     41900  -9104.0078     -9187.1897      83.181925      9206.4444      335.34308      14258.086      1.3428012      0.67384304   
     42000  -9106.3523     -9185.3147      78.962368      10687.977      318.33219      14229.797      1.3454707      0.7206146    
     42100  -9104.1111     -9183.5056      79.394508      10302.656      320.07433      14202.283      1.3480772      0.7206146    
     42200  -9104.8166     -9187.1971      82.380487      11753.447      332.11213      14184.585      1.3497592      0.7206146    
     42300  -9105.1861     -9187.7209      82.534781      10767.644      332.73416      14185.361      1.3496854      0.7206146    
     42400  -9106.7709     -9186.2509      79.480033      11595.142      320.41912      14197.519      1.3485296      0.7206146    
     42500  -9109.0332     -9187.8764      78.843257      11440.953      317.85199      14216.069      1.34677        0.7206146    
     42600  -9111.2505     -9188.7856      77.535121      11932.279      312.57832      14233.293      1.3451402      0.7206146    
     42700  -9109.2326     -9188.9351      79.702454      8517.4386      321.3158       14243.09       1.3442149      0.7206146    
     42800  -9110.8061     -9190.4167      79.610598      12504.495      320.94549      14239.3        1.3445727      0.7206146    
     42900  -9110.3204     -9189.3073      78.986971      8378.7928      318.43137      14226.434      1.3457887      0.7206146    
     43000  -9109.5156     -9188.2999      78.78431       10072.56       317.61435      14206.86       1.347643       0.73278962   
     43100  -9107.3156     -9188.7307      81.415048      9803.2733      328.22002      14188.642      1.3493733      0.73278962   
     43200  -9107.9683     -9188.2773      80.309038      13407.966      323.76121      14174.908      1.3506807      0.73278962   
     43300  -9109.6889     -9190.8933      81.204412      10501.478      327.37086      14167.303      1.3514057      0.73278962   
     43400  -9109.8654     -9187.8146      77.949136      9239.7336      314.2474       14167.04       1.3514308      0.73278962   
     43500  -9109.3369     -9189.2315      79.894577      10552.413      322.09033      14179.097      1.3502816      0.73278962   
     43600  -9110.0864     -9189.5733      79.486856      11355.577      320.44663      14195.722      1.3487003      0.73278962   
     43700  -9111.027      -9188.7241      77.697172      9068.1501      313.23162      14211.371      1.3472151      0.73278962   
     43800  -9110.2275     -9189.6009      79.373343      8671.8748      319.98901      14221.908      1.346217       0.73278962   
     43900  -9111.827      -9190.6946      78.867578      10639.199      317.95004      14226.448      1.3457874      0.73278962   
     44000  -9111.9648     -9192.317       80.352152      9398.7756      323.93502      14221.641      1.3462423      0.66531647   
     44100  -9111.6931     -9190.4448      78.751677      9706.1699      317.4828       14207.503      1.347582       0.66531647   
     44200  -9111.9441     -9191.1033      79.159222      9406.3224      319.12579      14187.438      1.3494878      0.66531647   
     44300  -9109.8402     -9188.7082      78.867974      13890.715      317.95164      14163.73       1.3517466      0.66531647   
     44400  -9110.7858     -9190.4473      79.661423      12723.489      321.15039      14146.509      1.3533922      0.66531647   
     44500  -9110.8598     -9191.2478      80.387988      8353.7432      324.07949      14136.409      1.3543591      0.66531647   
     44600  -9111.2444     -9189.3699      78.12553       11462.507      314.95852      14133.886      1.3546009      0.66531647   
     44700  -9113.7136     -9189.363       75.64934       11915.285      304.97591      14141.481      1.3538734      0.66531647   
     44800  -9113.7238     -9190.734       77.010251      7952.5297      310.46234      14156.126      1.3524728      0.66531647   
     44900  -9113.5641     -9191.5019      77.937754      9474.3586      314.20152      14173.916      1.3507752      0.66531647   
     45000  -9112.9165     -9190.9944      78.077888      8814.0719      314.76645      14192.036      1.3490506      0.70993238   
     45100  -9112.411      -9191.3481      78.937015      11749.986      318.22998      14203.928      1.3479211      0.70993238   
     45200  -9110.4173     -9188.6736      78.256243      10914.029      315.48548      14207.645      1.3475685      0.70993238   
     45300  -9110.709      -9188.4022      77.69322       9053.4384      313.21569      14201.541      1.3481477      0.70993238   
     45400  -9111.0482     -9189.6619      78.613732      9965.1689      316.92668      14186.396      1.3495869      0.70993238   
     45500  -9109.341      -9191.3427      82.00175       8143.3975      330.58528      14167.829      1.3513555      0.70993238   
     45600  -9108.468      -9187.8681      79.400099      10702.472      320.09687      14147.393      1.3533077      0.70993238   
     45700  -9105.9409     -9185.0293      79.088387      9688.8398      318.84022      14139.634      1.3540503      0.70993238   
     45800  -9108.6604     -9189.4905      80.830135      10320.749      325.86198      14154.741      1.3526051      0.70993238   
     45900  -9107.621      -9189.0481      81.42708       8078.6614      328.26853      14181.762      1.350028       0.70993238   
     46000  -9109.5544     -9188.0397      78.485292      11983.985      316.40888      14209.627      1.3473805      0.62976908   
     46100  -9111.306      -9190.3657      79.059766      10360.797      318.72484      14226.101      1.3458202      0.62976908   
     46200  -9111.4122     -9189.7011      78.288941      10766.881      315.6173       14224.358      1.3459851      0.62976908   
     46300  -9111.1051     -9189.092       77.986836      8456.1948      314.39938      14208.658      1.3474724      0.62976908   
     46400  -9110.5092     -9190.6937      80.184581      10147.528      323.25947      14189.828      1.3492605      0.62976908   
     46500  -9110.3386     -9189.5644      79.225819      11832.141      319.39427      14169.793      1.3511682      0.62976908   
     46600  -9110.7854     -9189.5961      78.810728      10588.743      317.72086      14149.95       1.3530631      0.62976908   
     46700  -9110.4794     -9190.194       79.71465       8313.9611      321.36496      14134.21       1.3545698      0.62976908   
     46800  -9108.7366     -9189.5283      80.791628      12485.634      325.70674      14125.815      1.3553749      0.62976908   
     46900  -9108.3691     -9187.8325      79.463402      13609.585      320.35207      14123.118      1.3556337      0.62976908   
     47000  -9109.5136     -9188.0651      78.551504      11511.335      316.67581      14132.914      1.3546941      0.69526874   
     47100  -9109.9981     -9189.2402      79.242062      11837.892      319.45976      14150.827      1.3529792      0.69526874   
     47200  -9108.4431     -9188.8319      80.388758      9004.9719      324.08259      14170.4        1.3511104      0.69526874   
     47300  -9109.0106     -9189.7747      80.76409       10386.389      325.59572      14188.861      1.3493525      0.69526874   
     47400  -9109.5241     -9190.6153      81.091186      9464.1412      326.91439      14202.035      1.3481008      0.69526874   
     47500  -9110.3005     -9188.5173      78.216798      9992.9015      315.32646      14204.982      1.3478211      0.69526874   
     47600  -9109.4694     -9189.7653      80.295937      9062.5469      323.70839      14202.838      1.3480245      0.69526874   
     47700  -9111.2862     -9189.3052      78.018997      7886.5427      314.52904      14194.841      1.348784       0.69526874   
     47800  -9110.3513     -9188.2929      77.941659      8527.6388      314.21725      14183.853      1.3498289      0.69526874   
     47900  -9110.8618     -9189.7796      78.91776       11238.543      318.15235      14172.422      1.3509176      0.69526874   
     48000  -9109.683      -9188.1845      78.501474      10074.844      316.47412      14162.764      1.3518388      0.71220795   
     48100  -9107.9711     -9188.7489      80.777846      10066.394      325.65118      14160.05       1.352098       0.71220795   
     48200  -9107.4525     -9188.7878      81.335309      9805.8116      327.89856      14164.521      1.3516712      0.71220795   
     48300  -9108.7276     -9188.8898      80.162235      13248.335      323.16938      14174.679      1.3507026      0.71220795   
     48400  -9109.3289     -9190.8359      81.507017      12362.313      328.59079      14186.701      1.3495579      0.71220795   
     48500  -9110.9603     -9190.6305      79.670126      9665.9918      321.18547      14192.751      1.3489826      0.71220795   
     48600  -9110.0615     -9190.5616      80.500138      8650.7437      324.53161      14193.732      1.3488894      0.71220795   
     48700  -9108.6481     -9189.9142      81.266113      10586.68       327.6196       14190.772      1.3491708      0.71220795   
     48800  -9108.4734     -9188.9089      80.435535      7817.5627      324.27117      14184.9        1.3497293      0.71220795   
     48900  -9108.1399     -9189.0982      80.958314      7911.2292      326.37873      14176.642      1.3505155      0.71220795   
     49000  -9110.9353     -9188.7258      77.790479      12142.16       313.60778      14171.958      1.3509619      0.68257494   
     49100  -9109.8434     -9189.3263      79.482906      13082.479      320.4307       14171.739      1.3509827      0.68257494   
     49200  -9110.2357     -9188.1646      77.928924      12169.528      314.16592      14173.499      1.3508149      0.68257494   
     49300  -9110.5057     -9190.2854      79.779657      10836.27       321.62704      14177.313      1.3504516      0.68257494   
     49400  -9111.2014     -9188.8723      77.670905      11721.401      313.12573      14182.634      1.3499449      0.68257494   
     49500  -9110.4288     -9189.6928      79.26397       9495.1315      319.54808      14186.977      1.3495317      0.68257494   
     49600  -9109.6681     -9190.1312      80.463074      11207.255      324.38219      14186.98       1.3495314      0.68257494   
     49700  -9109.7676     -9189.1916      79.424052      11990.254      320.19344      14185.551      1.3496673      0.68257494   
     49800  -9107.5549     -9188.3508      80.795878      9964.484       325.72387      14185.609      1.3496618      0.68257494   
     49900  -9108.017      -9187.7278      79.710792      11000.445      321.34941      14190.031      1.3492413      0.68257494   
     50000  -9108.5705     -9190.4388      81.868326      6777.0434      330.04738      14198.177      1.3484671      0.68279028   
     50100  -9109.6113     -9190.0815      80.470171      10865.7        324.41081      14202.944      1.3480145      0.68279028   
     50200  -9108.9778     -9187.1154      78.137509      9858.3617      315.00681      14202.998      1.3480094      0.68279028   
     50300  -9108.1449     -9187.1539      79.009014      10815.057      318.52024      14204.08       1.3479067      0.68279028   
     50400  -9109.0981     -9191.0666      81.968443      10270.952      330.451        14204.246      1.3478909      0.68279028   
     50500  -9111.4097     -9190.8063      79.396543      8677.3192      320.08254      14198.351      1.3484505      0.68279028   
     50600  -9111.3212     -9189.3422      78.020908      8203.1145      314.53674      14187.224      1.3495082      0.68279028   
     50700  -9113.1438     -9190.9673      77.823443      9145.0181      313.74067      14171.723      1.3509843      0.68279028   
     50800  -9112.9306     -9191.5155      78.584893      6132.9836      316.81042      14153.829      1.3526922      0.68279028   
     50900  -9112.1665     -9193.1168      80.950367      9782.7437      326.34669      14140.151      1.3540007      0.68279028   
     51000  -9112.8997     -9190.2315      77.331808      9639.1634      311.75868      14129.141      1.3550558      0.68715241   
     51100  -9112.1755     -9189.6065      77.431036      10447.545      312.15871      14125.423      1.3554125      0.68715241   
     51200  -9112.2614     -9191.7432      79.481866      9714.7127      320.42651      14133.628      1.3546256      0.68715241   
     51300  -9111.8503     -9187.8215      75.971206      12053.807      306.27349      14153.897      1.3526857      0.68715241   
     51400  -9110.144      -9188.2463      78.102306      10917.711      314.86489      14179.241      1.350268       0.68715241   
     51500  -9108.6121     -9189.9796      81.367444      10896.407      328.02811      14202.117      1.348093       0.68715241   
     51600  -9109.3657     -9189.3207      79.955061      9057.2839      322.33417      14219.496      1.3464454      0.68715241   
     51700  -9107.782      -9188.3589      80.576904      9743.5413      324.84109      14233.019      1.3451661      0.68715241   
     51800  -9109.8016     -9189.2558      79.454242      9969.0811      320.31515      14239.303      1.3445724      0.68715241   
     51900  -9107.7397     -9188.8786      81.138858      7397.6913      327.10658      14236.643      1.3448237      0.68715241   
     52000  -9106.9333     -9188.0576      81.124331      8507.5562      327.04801      14230.308      1.3454224      0.67112466   
     52100  -9107.7145     -9188.885       81.170533      8551.4743      327.23427      14221.262      1.3462781      0.67112466   
     52200  -9108.4465     -9187.9998      79.553233      8630.3582      320.71422      14211.043      1.3472462      0.67112466   
     52300  -9108.6055     -9188.2974      79.691898      11583.28       321.27324      14201.388      1.3481622      0.67112466   
     52400  -9107.1135     -9189.2618      82.148329      8660.1157      331.1762       14194.489      1.3488174      0.67112466   
     52500  -9106.347      -9187.3286      80.981602      8975.556       326.47261      14186.362      1.3495902      0.67112466   
     52600  -9108.1431     -9189.9856      81.842481      9966.4328      329.94319      14180.047      1.3501912      0.67112466   
     52700  -9109.6271     -9190.9308      81.303747      9041.3397      327.77132      14174.789      1.350692       0.67112466   
     52800  -9109.4551     -9187.619       78.163917      9951.6861      315.11328      14171.454      1.3510099      0.67112466   
     52900  -9111.832      -9190.4919      78.659888      4977.5631      317.11275      14171.335      1.3510213      0.67112466   
     53000  -9112.4706     -9190.6846      78.213994      7122.8228      315.31516      14166.977      1.3514369      0.65578793   
     53100  -9113.1461     -9191.3235      78.177353      10963.11       315.16744      14161.384      1.3519706      0.65578793   
     53200  -9110.8897     -9189.1378      78.2481        10196.833      315.45266      14153.745      1.3527003      0.65578793   
     53300  -9113.0332     -9190.6204      77.587148      11767.665      312.78807      14147.566      1.3532911      0.65578793   
     53400  -9113.8569     -9191.0286      77.171689      11818.691      311.11317      14142.697      1.353757       0.65578793   
     53500  -9112.3158     -9188.668       76.352233      8872.0855      307.80958      14137.893      1.354217       0.65578793   
     53600  -9111.8956     -9188.0037      76.108067      8099.9358      306.82524      14137.649      1.3542403      0.65578793   
     53700  -9111.8074     -9190.7285      78.921091      9799.625       318.16578      14142.325      1.3537926      0.65578793   
     53800  -9113.3633     -9190.093       76.729717      8646.7981      309.33138      14152.469      1.3528223      0.65578793   
     53900  -9114.6157     -9192.1588      77.543133      12394.871      312.61062      14165.43       1.3515844      0.65578793   
     54000  -9114.8463     -9193.8143      78.96801       12250.994      318.35493      14176.434      1.3505353      0.75293148   
     54100  -9113.2398     -9188.6507      75.410828      9404.1717      304.01436      14181.566      1.3500466      0.75293148   
     54200  -9113.6842     -9189.413       75.728834      11724.409      305.29638      14185.472      1.3496748      0.75293148   
     54300  -9114.1922     -9192.8963      78.704085      11083.765      317.29093      14187.331      1.349498       0.75293148   
     54400  -9114.6643     -9192.3535      77.689197      10174.792      313.19947      14177.37       1.3504461      0.75293148   
     54500  -9113.1312     -9190.0397      76.908408      8476.4066      310.05177      14160.089      1.3520942      0.75293148   
     54600  -9110.7594     -9189.9067      79.14728       7501.9188      319.07765      14139.392      1.3540734      0.75293148   
     54700  -9110.5747     -9190.1026      79.527903      10305.8        320.61211      14127.01       1.3552602      0.75293148   
     54800  -9110.6097     -9190.6304      80.020788      12978.649      322.59914      14128.45       1.3551221      0.75293148   
     54900  -9110.7486     -9191.2619      80.513313      12984.599      324.58473      14142.228      1.3538018      0.75293148   
     55000  -9108.4122     -9189.1704      80.758213      11782.45       325.57203      14164.168      1.3517049      0.68684542   
     55100  -9107.8274     -9187.5103      79.682866      9139.5937      321.23683      14199.179      1.3483719      0.68684542   
     55200  -9109.0726     -9187.9853      78.912774      9084.7255      318.13225      14240.025      1.3445043      0.68684542   
     55300  -9109.0994     -9188.8415      79.742168      5361.358       321.4759       14274.698      1.3412385      0.68684542   
     55400  -9109.8965     -9189.0968      79.200317      8307.6671      319.29146      14290.398      1.339765       0.68684542   
     55500  -9110.9684     -9191.0904      80.121944      11263.367      323.00695      14281.487      1.3406009      0.68684542   
     55600  -9111.8194     -9191.5131      79.693709      9544.9278      321.28055      14248.814      1.3436749      0.68684542   
[...]
    386200  -9109.3449     -9191.2159      81.870997      10132.859      330.05815      14245.766      1.3439624      0.64817546   
    386300  -9110.3035     -9189.9593      79.655774      12067.321      321.12761      14223.156      1.3460989      0.64817546   
    386400  -9108.2344     -9189.8018      81.567448      8733.577       328.83441      14194.674      1.3487999      0.64817546   
    386500  -9107.277      -9187.3236      80.046598      12742.591      322.70319      14171.047      1.3510487      0.64817546   
    386600  -9107.0586     -9188.2977      81.239094      12130.766      327.51067      14159.944      1.3521081      0.64817546   
    386700  -9106.0446     -9188.906       82.861383      12890.469      334.05084      14161.597      1.3519503      0.64817546   
    386800  -9106.5704     -9186.8828      80.312452      13709.063      323.77497      14183.482      1.3498642      0.64817546   
    386900  -9105.371      -9188.0441      82.673145      12701.104      333.29196      14224.77       1.3459462      0.64817546   
    387000  -9106.6166     -9188.0658      81.449217      11831.8        328.35777      14280.834      1.3406623      0.80992623   
    387100  -9107.5979     -9187.1064      79.508538      12473.853      320.53404      14335.418      1.3355575      0.80992623   
    387200  -9108.5034     -9189.4557      80.952316      10298.94       326.35454      14374.242      1.3319502      0.80992623   
    387300  -9109.2193     -9189.3004      80.081083      8662.1264      322.84222      14384.135      1.3310341      0.80992623   
    387400  -9109.3271     -9188.0557      78.728603      6905.9068      317.38977      14355.622      1.3336779      0.80992623   
    387500  -9109.3895     -9190.0449      80.655432      8849.1383      325.15767      14293.963      1.3394308      0.80992623   
    387600  -9109.1721     -9187.3345      78.162394      10191.304      315.10714      14215.88       1.3467878      0.80992623   
    387700  -9108.1988     -9190.2829      82.08411       12019.234      330.91731      14140.136      1.3540021      0.80992623   
    387800  -9108.7603     -9190.4936      81.733278      11674.729      329.50295      14082.174      1.3595752      0.80992623   
    387900  -9108.3497     -9188.9739      80.624119      10117.765      325.03144      14055.02       1.3622019      0.80992623   
    388000  -9109.508      -9189.2954      79.787386      11189.419      321.6582       14065.291      1.3612072      0.71271974   
    388100  -9109.8138     -9188.8599      79.046109      9699.805       318.66978      14109.691      1.3569238      0.71271974   
    388200  -9112.1549     -9190.4688      78.313854      9026.2646      315.71774      14176.729      1.3505072      0.71271974   
    388300  -9110.4637     -9190.1113      79.647676      10078.33       321.09496      14247.737      1.3437766      0.71271974   
    388400  -9108.4653     -9189.2162      80.75086       6562.1378      325.54239      14305.654      1.3383362      0.71271974   
    388500  -9111.6492     -9188.4191      76.769908      8112.977       309.49341      14338.103      1.3353074      0.71271974   
    388600  -9112.4639     -9189.4347      76.970823      10309.43       310.30339      14331.209      1.3359498      0.71271974   
    388700  -9110.3197     -9189.069       78.749355      10852.49       317.47344      14291.634      1.3396491      0.71271974   
    388800  -9109.9715     -9189.5214      79.549858      8593.6238      320.70062      14235.675      1.3449152      0.71271974   
    388900  -9109.7247     -9187.1084      77.383663      8114.5673      311.96773      14176.269      1.350551       0.71271974   
    389000  -9111.408      -9188.9247      77.516746      9230.4338      312.50425      14127.885      1.3551763      0.72481378   
    389100  -9112.3003     -9191.874       79.573649      10545.122      320.79653      14097.253      1.358121       0.72481378   
    389200  -9113.2703     -9189.5522      76.281993      11544.761      307.52641      14086.619      1.3591462      0.72481378   
    389300  -9114.0148     -9193.2205      79.205679      12564.52       319.31308      14097.828      1.3580656      0.72481378   
    389400  -9113.7753     -9190.404       76.628659      13282.075      308.92397      14125.315      1.3554228      0.72481378   
    389500  -9115.891      -9193.9885      78.097499      11856.012      314.84552      14160.687      1.3520371      0.72481378   
    389600  -9115.55       -9192.6791      77.129151      10063.333      310.94168      14193.057      1.3489535      0.72481378   
    389700  -9112.8322     -9190.6971      77.864883      10524.561      313.90774      14221.686      1.3462381      0.72481378   
    389800  -9112.4455     -9191.5539      79.108446      10098.918      318.92109      14244.004      1.3441287      0.72481378   
    389900  -9111.9352     -9190.9478      79.012669      9531.6362      318.53497      14250.009      1.3435623      0.72481378   
    390000  -9113.1112     -9191.9784      78.86716       9919.9097      317.94836      14234.193      1.3450552      0.67165591   
    390100  -9113.3207     -9190.749       77.428347      11541.348      312.14787      14205.966      1.3477278      0.67165591   
    390200  -9112.7613     -9189.7436      76.982288      9426.1059      310.34961      14173.734      1.3507925      0.67165591   
    390300  -9112.2665     -9191.7499      79.483422      9873.7183      320.43278      14147.043      1.3533411      0.67165591   
    390400  -9113.0347     -9189.2533      76.21863       13557.53       307.27096      14130.248      1.3549496      0.67165591   
    390500  -9109.7597     -9191.3043      81.544534      12750.715      328.74204      14133.973      1.3545925      0.67165591   
    390600  -9111.1176     -9190.7799      79.662251      11826.493      321.15372      14156.685      1.3524194      0.67165591   
    390700  -9110.0959     -9189.7951      79.69921       9299.1537      321.30272      14188.658      1.3493717      0.67165591   
    390800  -9107.3794     -9189.6122      82.232757      9952.2048      331.51657      14228.416      1.3456013      0.67165591   
    390900  -9110.3969     -9189.7958      79.398834      7787.4656      320.09177      14272.205      1.3414728      0.67165591   
    391000  -9110.4917     -9189.1999      78.708244      8445.9088      317.3077       14305.293      1.33837        0.71461398   
    391100  -9110.4463     -9189.879       79.432748      8447.3498      320.22849      14318.995      1.3370893      0.71461398   
    391200  -9110.4116     -9189.9849      79.573281      10281.569      320.79504      14308.735      1.338048       0.71461398   
    391300  -9111.1995     -9190.42        79.220529      9020.4577      319.37295      14277.944      1.3409335      0.71461398   
    391400  -9108.7596     -9190.0659      81.306242      8002.235       327.78138      14228.117      1.3456295      0.71461398   
    391500  -9109.788      -9189.74        79.952052      8621.4799      322.32204      14171.215      1.3510327      0.71461398   
    391600  -9108.3405     -9188.7113      80.370829      8777.2634      324.01031      14120.472      1.3558878      0.71461398   
    391700  -9110.0118     -9189.2264      79.214581      8353.9388      319.34897      14084.715      1.35933        0.71461398   
    391800  -9109.9955     -9189.4012      79.405718      11858.919      320.11952      14070.504      1.3607028      0.71461398   
    391900  -9111.3444     -9190.1684      78.824015      9352.1075      317.77442      14081.872      1.3596044      0.71461398   
    392000  -9111.603      -9190.4206      78.817553      13360.964      317.74837      14116.245      1.3562937      0.66232645   
    392100  -9111.6426     -9190.2999      78.657346      11915.143      317.10251      14167.035      1.3514314      0.66232645   
    392200  -9111.8157     -9190.1969      78.381196      7204.9574      315.98923      14222.233      1.3461862      0.66232645   
    392300  -9110.9139     -9190.1576      79.243744      8465.9923      319.46654      14266.167      1.3420406      0.66232645   
    392400  -9111.2169     -9191.9222      80.705258      6819.9377      325.35854      14286.694      1.3401123      0.66232645   
    392500  -9110.818      -9190.2737      79.455687      6789.6333      320.32097      14282.624      1.3404942      0.66232645   
    392600  -9110.1124     -9187.3174      77.20505       8407.0074      311.24766      14256.328      1.3429668      0.66232645   
    392700  -9110.1583     -9189.9892      79.830879      6590.5702      321.83354      14216.284      1.3467496      0.66232645   
    392800  -9108.1671     -9188.8805      80.713378      10478.177      325.39128      14165.592      1.3515689      0.66232645   
    392900  -9108.1254     -9185.7825      77.657186      10767.948      313.07042      14120.642      1.3558714      0.66232645   
    393000  -9107.9075     -9188.1371      80.229604      11562.586      323.44097      14096.598      1.358184       0.65442166   
    393100  -9110.72       -9191.0366      80.31665       10935.686      323.7919       14096.858      1.358159       0.65442166   
    393200  -9110.8332     -9191.2815      80.448262      13343.595      324.32248      14112.573      1.3566466      0.65442166   
    393300  -9109.8189     -9189.7063      79.887493      11676.758      322.06177      14145.593      1.3534798      0.65442166   
    393400  -9107.5996     -9187.8621      80.262534      7692.9507      323.57373      14189.38       1.3493031      0.65442166   
    393500  -9106.6336     -9186.8517      80.218171      7025.405       323.39488      14238.124      1.3446838      0.65442166   
    393600  -9106.5412     -9188.1671      81.625821      8863.6646      329.06974      14279.501      1.3407874      0.65442166   
    393700  -9104.0147     -9187.2909      83.276193      11052.93       335.72312      14304.585      1.3384363      0.65442166   
    393800  -9104.155      -9185.0536      80.898661      7858.9045      326.13824      14306.549      1.3382524      0.65442166   
    393900  -9104.8274     -9187.1345      82.307084      10627.827      331.81621      14290.052      1.3397974      0.65442166   
    394000  -9104.3611     -9186.048       81.686848      12333.366      329.31577      14254.96       1.3430956      0.73398591   
    394100  -9107.1652     -9189.5843      82.419126      10021.245      332.2679       14207.692      1.3475641      0.73398591   
    394200  -9109.6185     -9190.2227      80.604198      8904.5078      324.95113      14157.755      1.3523171      0.73398591   
    394300  -9111.404      -9190.4342      79.03019       11781.472      318.60561      14110.013      1.3568928      0.73398591   
    394400  -9111.3286     -9190.3967      79.068144      11472.328      318.75862      14075.126      1.360256       0.73398591   
    394500  -9110.5855     -9189.2983      78.712824      11779.517      317.32616      14058.772      1.3618383      0.73398591   
    394600  -9110.6101     -9189.9426      79.33253       9891.0487      319.82447      14065.984      1.3611401      0.73398591   
    394700  -9108.33       -9189.1032      80.773187      11247.686      325.6324       14093.995      1.3584349      0.73398591   
    394800  -9110.0832     -9189.8068      79.723659      12485.582      321.40129      14143.278      1.3537013      0.73398591   
    394900  -9111.9751     -9191.4614      79.486355      10270.818      320.44461      14196.146      1.34866        0.73398591   
    395000  -9111.0258     -9191.7863      80.760576      9335.3619      325.58155      14236.211      1.3448645      0.65562402   
    395100  -9113.4145     -9191.4283      78.013847      9821.1219      314.50828      14255.39       1.3430551      0.65562402   
    395200  -9114.0666     -9190.0232      75.956662      7902.5131      306.21486      14251.867      1.3433871      0.65562402   
    395300  -9111.9679     -9192.5635      80.595557      7647.9122      324.91629      14229.507      1.3454981      0.65562402   
    395400  -9110.532      -9188.4496      77.917648      10580.241      314.12046      14193.127      1.3489469      0.65562402   
    395500  -9111.5691     -9189.1986      77.629556      10564.108      312.95903      14154.192      1.3526575      0.65562402   
    395600  -9110.2832     -9191.8117      81.528443      12639.047      328.67717      14120.27       1.3559071      0.65562402   
    395700  -9111.3502     -9190.9609      79.61079       12445.581      320.94626      14096.854      1.3581594      0.65562402   
    395800  -9113.4309     -9190.6648      77.233881      7697.9757      311.36389      14089.248      1.3588926      0.65562402   
    395900  -9112.5836     -9190.8168      78.233169      9314.3084      315.39246      14097.028      1.3581426      0.65562402   
    396000  -9112.9415     -9191.2178      78.27625       10117.664      315.56614      14119.062      1.3560231      0.67318718   
    396100  -9111.453      -9189.1759      77.722814      10648.785      313.33499      14149.211      1.3531337      0.67318718   
    396200  -9113.1411     -9190.3325      77.191496      11522.406      311.19302      14183.945      1.3498202      0.67318718   
    396300  -9113.5292     -9191.5316      78.002424      11551.286      314.46223      14214.167      1.3469501      0.67318718   
    396400  -9112.4431     -9193.1745      80.73139       10714.732      325.46389      14231.903      1.3452716      0.67318718   
    396500  -9112.6267     -9190.1447      77.517922      10538.768      312.50899      14236.695      1.3448188      0.67318718   
    396600  -9111.8015     -9190.2073      78.405765      11792.052      316.08827      14228.626      1.3455814      0.67318718   
    396700  -9110.8931     -9191.5056      80.612496      8881.5011      324.98458      14211.916      1.3471636      0.67318718   
    396800  -9110.9883     -9190.0288      79.040533      8290.3619      318.6473       14187.129      1.3495172      0.67318718   
    396900  -9108.5828     -9187.4917      78.908976      11331.869      318.11694      14164.02       1.3517189      0.67318718   
    397000  -9107.1595     -9188.979       81.819561      12784.877      329.85079      14151.546      1.3529104      0.68923516   
    397100  -9106.8034     -9187.8483      81.044876      12190.278      326.7277       14157.533      1.3523383      0.68923516   
    397200  -9109.1403     -9189.0717      79.931444      10717.582      322.23896      14183.5        1.3498625      0.68923516   
    397300  -9107.6129     -9185.9159      78.302987      8752.1247      315.67393      14227.202      1.3457161      0.68923516   
    397400  -9110.2366     -9189.231       78.994472      6618.5845      318.46161      14277.828      1.3409445      0.68923516   
    397500  -9111.0546     -9190.4408      79.386155      8541.4         320.04066      14316.282      1.3373426      0.68923516   
    397600  -9110.63       -9189.8763      79.246273      9776.979       319.47673      14325.804      1.3364537      0.68923516   
    397700  -9109.5573     -9188.7854      79.228046      9646.4731      319.40325      14305.429      1.3383573      0.68923516   
    397800  -9108.5168     -9190.8957      82.378892      7826.8809      332.1057       14260.151      1.3426067      0.68923516   
    397900  -9108.4389     -9188.634       80.195086      9011.1392      323.30182      14196.924      1.3485862      0.68923516   
    398000  -9107.7923     -9187.9006      80.108336      10379.236      322.95209      14131.127      1.3548654      0.77851319   
    398100  -9109.2356     -9188.9569      79.721369      13958.708      321.39205      14080.766      1.3597112      0.77851319   
    398200  -9106.2682     -9186.7013      80.433114      11144.927      324.26141      14057.151      1.3619954      0.77851319   
    398300  -9106.4259     -9186.9915      80.565587      12731.66       324.79547      14072.043      1.360554       0.77851319   
    398400  -9108.2556     -9188.079       79.823347      13063.631      321.80317      14122.363      1.3557062      0.77851319   
    398500  -9108.9122     -9189.1252      80.213016      10981.794      323.3741       14194.921      1.3487764      0.77851319   
    398600  -9106.729      -9187.7695      81.040528      9386.4334      326.71016      14271.649      1.3415251      0.77851319   
    398700  -9106.6308     -9187.5057      80.874968      8453.4159      326.04272      14329.511      1.3361081      0.77851319   
    398800  -9108.0147     -9186.9138      78.899064      6796.9421      318.07698      14360.344      1.3332393      0.77851319   
    398900  -9108.6944     -9187.1734      78.479014      7254.8488      316.38357      14357.302      1.3335218      0.77851319   
    399000  -9109.246      -9189.5004      80.254436      6999.3711      323.54108      14318.191      1.3371644      0.72727197   
    399100  -9107.2737     -9187.2339      79.960112      10774.173      322.35453      14253.161      1.3432651      0.72727197   
    399200  -9107.2591     -9188.253       80.993937      10466.278      326.52234      14181.223      1.3500793      0.72727197   
    399300  -9106.6978     -9186.5741      79.876291      8885.8257      322.01661      14118.328      1.3560936      0.72727197   
    399400  -9105.1747     -9186.5122      81.337426      12873.234      327.90709      14074.502      1.3603163      0.72727197   
    399500  -9104.9635     -9187.5412      82.577705      15119.043      332.90721      14061.722      1.3615527      0.72727197   
    399600  -9107.7543     -9187.5317      79.777402      13424.207      321.61795      14079.243      1.3598582      0.72727197   
    399700  -9108.8122     -9188.2212      79.409029      13701.939      320.13287      14120.472      1.3558877      0.72727197   
    399800  -9108.1962     -9188.4891      80.292959      12310.663      323.69638      14177.609      1.3504234      0.72727197   
    399900  -9105.174      -9185.5908      80.416795      8959.5016      324.19562      14235.49       1.3449326      0.72727197   
    400000  -9104.2562     -9186.4821      82.225917      8793.0014      331.48899      14284.877      1.3402828      0.69256403   
    400100  -9103.2929     -9185.8542      82.561302      9308.5157      332.84108      14319.943      1.3370008      0.69256403   
    400200  -9105.6497     -9186.6444      80.994735      6917.5037      326.52555      14335.558      1.3355444      0.69256403   
    400293  -9105.7638     -9187.3837      81.619857      9577.2651      329.0457       14329.676      1.3360926      0.69256403   
Loop time of 544.817 on 4 procs for 200000 steps with 1920 atoms

Performance: 15.859 ns/day, 1.513 hours/ns, 367.095 timesteps/s, 704.823 katom-step/s
99.6% CPU use with 4 MPI tasks x 1 OpenMP threads

MPI task timing breakdown:
Section |  min time  |  avg time  |  max time  |%varavg| %total
---------------------------------------------------------------
Pair    | 271.18     | 275.65     | 279.21     |  18.5 | 50.60
Neigh   | 7.8899     | 8.0119     | 8.0776     |   2.6 |  1.47
Comm    | 64.648     | 69.454     | 74.597     |  47.7 | 12.75
Output  | 0.30886    | 0.31493    | 0.3225     |   0.9 |  0.06
Modify  | 187.66     | 188.98     | 190.21     |   7.5 | 34.69
Other   |            | 2.403      |            |       |  0.44

Nlocal:            480 ave         485 max         475 min
Histogram: 1 0 1 0 0 0 0 0 1 1
Nghost:           2646 ave        2656 max        2635 min
Histogram: 1 0 0 0 1 0 1 0 0 1
Neighs:              0 ave           0 max           0 min
Histogram: 4 0 0 0 0 0 0 0 0 0
FullNghs:      75317.5 ave       76524 max       74440 min
Histogram: 2 0 0 0 0 0 1 0 0 1

Total # of neighbors = 301270
Ave neighs/atom = 156.91146
Neighbor list builds = 20000
Dangerous builds = 20000

unfix		3
unfix		4
Total wall time: 0:18:12
