LAMMPS (27 Jun 2024)
KOKKOS mode with Kokkos version 4.3.1 is enabled (src/KOKKOS/kokkos.cpp:72)
  will use up to 1 GPU(s) per node
WARNING: When using a single thread, the Kokkos Serial backend (i.e. Makefile.kokkos_mpi_only) gives better performance than the OpenMP backend (src/KOKKOS/kokkos.cpp:202)
  using 1 OpenMP thread(s) per MPI task
package kokkos
package kokkos newton on neigh half

units		metal						## E in [eV], t in [ps], P in [10000 Pa], l in [A]
atom_style	atomic						## mass x y z vx vy vz

neighbor	0.5 bin						## neighbor list, skin = 0.5 Angstrom
neigh_modify	every 2 delay 10 check yes			## update of neighbor list

############################## main variables
variable        seed equal 96879

variable	temperature equal 270
variable	tempDamp equal 0.1

variable        pressure equal 5000
variable        pressureDamp equal 1.0 				# This is 1 ps

##############################

read_data water.dat
Reading data file ...
  triclinic box = (0 0 0) to (20.086446 20.107908 21.036805) with tilt (-0.12289673 -0.12587322 0.25756352)
  1 by 1 by 1 MPI processor grid
  reading atoms ...
  972 atoms
  read_data CPU = 0.014 seconds

mass		1 1.008    # H
mass		2 15.9994  # O


pair_style	pace/extrapolation
ACE/AL version: 2023.11.25
pair_coeff	* * /pc2/users/a/acepdw01/work/phase_diagram/pot_dir/interim_potential_ladder_step_1.yaml /pc2/users/a/acepdw01/work/phase_diagram/pot_dir/interim_potential_ladder_step_1.asi H O
Loading /pc2/users/a/acepdw01/work/phase_diagram/pot_dir/interim_potential_ladder_step_1.yaml
Total number of basis functions
	H: 23 (r=1) 664 (r>1)
	O: 23 (r=1) 664 (r>1)
Mapping LAMMPS atom type #1(H) -> ACE species type #0
Mapping LAMMPS atom type #2(O) -> ACE species type #1
Loading ASI /pc2/users/a/acepdw01/work/phase_diagram/pot_dir/interim_potential_ladder_step_1.asi
LINEAR ASI is loaded

fix pace_gamma all pair 1000 pace/extrapolation gamma 1
compute max_pace_gamma all reduce max f_pace_gamma
variable dump_skip equal "c_max_pace_gamma < 10"

dump pace_dump all custom 1000 extrapolative_structures.dump id type x y z f_pace_gamma
dump_modify pace_dump skip v_dump_skip
dump_modify pace_dump element H O

variable max_pace_gamma equal c_max_pace_gamma

timestep	0.0005						## timestep = 0.0005*ps = 0.5 fs

thermo		100
thermo_style custom step etotal pe ke press temp vol density c_max_pace_gamma


min_style cg
minimize 0.0 5.0e-4 10000 100000

CITE-CITE-CITE-CITE-CITE-CITE-CITE-CITE-CITE-CITE-CITE-CITE-CITE

Your simulation uses code contributions which should be cited:

- Type Label Framework: https://doi.org/10.1021/acs.jpcb.3c08419

@Article{Gissinger24,
 author = {Jacob R. Gissinger, Ilia Nikiforov, Yaser Afshar, Brendon Waters, Moon-ki Choi, Daniel S. Karls, Alexander Stukowski, Wonpil Im, Hendrik Heinz, Axel Kohlmeyer, and Ellad B. Tadmor},
 title = {Type Label Framework for Bonded Force Fields in LAMMPS},
 journal = {J. Phys. Chem. B},
 year =    2024,
 volume =  128,
 number =  13,
 pages =   {3282–-3297}
}

CITE-CITE-CITE-CITE-CITE-CITE-CITE-CITE-CITE-CITE-CITE-CITE-CITE

Switching to 'neigh_modify every 1 delay 0 check yes' setting during minimization
Neighbor list info ...
  update: every = 1 steps, delay = 0 steps, check = yes
  max neighbors/atom: 2000, page size: 100000
  master list distance cutoff = 6.5
  ghost atom cutoff = 6.5
  binsize = 6.5, bins = 4 4 4
  1 neighbor lists, perpetual/occasional/extra = 1 0 0
  (1) pair pace/extrapolation/kk, perpetual
      attributes: full, newton on, kokkos_device
      pair build: full/bin/kk/device
      stencil: full/bin/3d
      bin: kk/device
WARNING: Fix with atom-based arrays not compatible with sending data in Kokkos communication, switching to classic exchange/border communication (src/KOKKOS/comm_kokkos.cpp:754)
WARNING: Fix with atom-based arrays not compatible with Kokkos sorting on device, switching to classic host sorting (src/KOKKOS/atom_kokkos.cpp:216)
Per MPI rank memory allocation (min/avg/max) = 777.8 | 777.8 | 777.8 Mbytes
   Step         TotEng         PotEng         KinEng         Press           Temp          Volume        Density     c_max_pace_gamma
         0  -4674.4783     -4674.4783      0             -4207.0767      0              8496.6904      1.140744       0.70893308   
       100  -4698.4118     -4698.4118      0             -5361.4596      0              8496.6904      1.140744       0.70893308   
       200  -4698.4284     -4698.4284      0             -5286.6896      0              8496.6904      1.140744       0.70893308   
       300  -4698.4286     -4698.4286      0             -5280.3747      0              8496.6904      1.140744       0.70893308   
       344  -4698.4286     -4698.4286      0             -5279.8075      0              8496.6904      1.140744       0.70893308   
Loop time of 1.79447 on 1 procs for 344 steps with 972 atoms

99.2% CPU use with 1 MPI tasks x 1 OpenMP threads

Minimization stats:
  Stopping criterion = force tolerance
  Energy initial, next-to-last, final = 
     -4674.47831881434  -4698.42855640536  -4698.42855640926
  Force two-norm initial, final = 12.278537 0.00048663507
  Force max component initial, final = 0.80662295 7.0562337e-05
  Final line search alpha, max atom move = 1 7.0562337e-05
  Iterations, force evaluations = 344 688

MPI task timing breakdown:
Section |  min time  |  avg time  |  max time  |%varavg| %total
---------------------------------------------------------------
Pair    | 1.535      | 1.535      | 1.535      |   0.0 | 85.54
Neigh   | 0.0021224  | 0.0021224  | 0.0021224  |   0.0 |  0.12
Comm    | 0.017747   | 0.017747   | 0.017747   |   0.0 |  0.99
Output  | 0.00038067 | 0.00038067 | 0.00038067 |   0.0 |  0.02
Modify  | 0.14452    | 0.14452    | 0.14452    |   0.0 |  8.05
Other   |            | 0.09467    |            |       |  5.28

Nlocal:            972 ave         972 max         972 min
Histogram: 1 0 0 0 0 0 0 0 0 0
Nghost:           3295 ave        3295 max        3295 min
Histogram: 1 0 0 0 0 0 0 0 0 0
Neighs:              0 ave           0 max           0 min
Histogram: 1 0 0 0 0 0 0 0 0 0
FullNghs:       121804 ave      121804 max      121804 min
Histogram: 1 0 0 0 0 0 0 0 0 0

Total # of neighbors = 121804
Ave neighs/atom = 125.31276
Neighbor list builds = 6
Dangerous builds = 0

################## equilibration of main calculation
# Equilibrate to specified number of ice

fix             3 all nph tri ${pressure} ${pressure} ${pressureDamp}
fix             3 all nph tri 5000 ${pressure} ${pressureDamp}
fix             3 all nph tri 5000 5000 ${pressureDamp}
fix             3 all nph tri 5000 5000 1
fix             4 all temp/csvr ${temperature} ${temperature} ${tempDamp} ${seed}
fix             4 all temp/csvr 270 ${temperature} ${tempDamp} ${seed}
fix             4 all temp/csvr 270 270 ${tempDamp} ${seed}
fix             4 all temp/csvr 270 270 0.1 ${seed}
fix             4 all temp/csvr 270 270 0.1 96879
velocity 	all create ${temperature} ${seed} dist gaussian
velocity 	all create 270 ${seed} dist gaussian
velocity 	all create 270 96879 dist gaussian

run 200000
WARNING: Fix with atom-based arrays not compatible with Kokkos sorting on device, switching to classic host sorting (src/KOKKOS/atom_kokkos.cpp:216)
Per MPI rank memory allocation (min/avg/max) = 777 | 777 | 777 Mbytes
   Step         TotEng         PotEng         KinEng         Press           Temp          Volume        Density     c_max_pace_gamma
       344  -4664.5404     -4698.4286      33.888132     -1019.7355      270            8496.6904      1.140744       0.70893308   
       400  -4661.0375     -4677.4827      16.445258      1720.2239      131.0258       8478.9619      1.1431291      0.70893308   
       500  -4654.7154     -4675.0604      20.344948     -2029.1674      162.09615      8382.7299      1.156252       0.70893308   
       600  -4648.8789     -4671.43        22.551086     -395.86182      179.67332      8211.785       1.1803217      0.70893308   
       700  -4643.511      -4669.604       26.09292       4722.0722      207.8925       8017.0458      1.2089925      0.70893308   
       800  -4641.0848     -4670.0318      28.946992      5950.9179      230.632        7870.8275      1.2314523      0.70893308   
       900  -4638.8122     -4667.5064      28.694201      8054.1092      228.61792      7794.8223      1.2434598      0.70893308   
      1000  -4635.511      -4666.1268      30.615869      8201.7904      243.9286       7783.83        1.2452158      0.73717038   
      1100  -4633.192      -4663.6496      30.457556      10992.55       242.66726      7830.4421      1.2378035      0.73717038   
      1200  -4631.7793     -4663.694       31.914644      4101.5914      254.27645      7915.8259      1.2244519      0.73717038   
      1300  -4631.0632     -4665.0315      33.968233      9556.2447      270.6382       8013.1431      1.2095813      0.73717038   
      1400  -4631.1038     -4663.7619      32.65809       8290.4964      260.19977      8103.1352      1.1961479      0.73717038   
      1500  -4630.0562     -4662.3984      32.34227       5127.0195      257.68351      8174.563       1.1856962      0.73717038   
      1600  -4630.0313     -4662.7467      32.715433      1620.3916      260.65664      8216.2964      1.1796737      0.73717038   
      1700  -4630.0041     -4662.9396      32.935503      1407.2935      262.41003      8224.9291      1.1784355      0.73717038   
      1800  -4631.1877     -4664.3718      33.184101      2044.7062      264.39071      8209.7007      1.1806214      0.73717038   
      1900  -4630.2659     -4664.6338      34.367841      2240.2938      273.82203      8173.1598      1.1858998      0.73717038   
      2000  -4627.9307     -4662.1331      34.202458      3509.4956      272.50435      8123.2967      1.1931792      0.76255969   
      2100  -4627.638      -4661.306       33.667936      3606.3194      268.24561      8071.6836      1.2008088      0.76255969   
      2200  -4627.4357     -4661.6021      34.166434      7267.5963      272.21734      8027.3334      1.2074431      0.76255969   
      2300  -4627.2115     -4661.9135      34.702029      4648.9586      276.48463      7996.921       1.212035       0.76255969   
      2400  -4625.9838     -4661.9664      35.982662      9602.7737      286.68794      7990.9587      1.2129394      0.76255969   
      2500  -4625.6903     -4660.2986      34.608255      7247.8723      275.7375       8012.5816      1.2096661      0.76255969   
      2600  -4625.989      -4660.4534      34.464332      3006.4074      274.59081      8050.5567      1.20396        0.76255969   
      2700  -4627.502      -4661.2119      33.709837      6714.463       268.57945      8091.3687      1.1978874      0.76255969   
      2800  -4628.1155     -4661.7966      33.681026      8110.4012      268.34991      8129.1969      1.1923132      0.76255969   
      2900  -4628.9227     -4663.563       34.640281      4893.9751      275.99267      8162.7967      1.1874053      0.76255969   
      3000  -4629.936      -4662.938       33.002005      6053.759       262.93988      8189.3383      1.183557       0.83218657   
      3100  -4630.4788     -4662.5859      32.107133      6260.2069      255.81008      8201.3397      1.181825       0.83218657   
      3200  -4629.5228     -4663.0827      33.559889      2606.2035      267.38476      8190.6598      1.183366       0.83218657   
      3300  -4628.7174     -4662.7459      34.028585      1864.4354      271.11904      8153.8823      1.1887035      0.83218657   
      3400  -4627.8528     -4660.8618      33.008954      4802.6884      262.99525      8099.9701      1.1966153      0.83218657   
      3500  -4627.2758     -4661.0692      33.793331      3750.5555      269.24468      8048.0344      1.2043373      0.83218657   
      3600  -4627.5057     -4662.055       34.549373      6821.1237      275.26836      8011.7942      1.209785       0.83218657   
      3700  -4627.3346     -4661.8462      34.511612      7489.7531      274.96751      7997.9659      1.2118767      0.83218657   
      3800  -4626.7586     -4661.2693      34.510769      6507.6971      274.96079      8006.6133      1.2105678      0.83218657   
      3900  -4627.1543     -4661.1692      34.01487       7739.595       271.00977      8032.0303      1.206737       0.83218657   
      4000  -4627.5703     -4661.8398      34.269518      5018.6304      273.03865      8071.3548      1.2008577      0.72194932   
      4100  -4628.3021     -4662.0538      33.751775      1492.9973      268.91359      8121.5971      1.1934289      0.72194932   
      4200  -4627.7244     -4661.9285      34.204099      5605.0267      272.51743      8171.9093      1.1860812      0.72194932   
      4300  -4626.9233     -4661.58        34.656691      4777.9371      276.12341      8209.821       1.1806041      0.72194932   
      4400  -4627.5073     -4661.7268      34.219447      3129.279       272.63971      8225.5815      1.178342       0.72194932   
      4500  -4626.4387     -4660.7489      34.310234      2774.3064      273.36305      8217.7234      1.1794688      0.72194932   
      4600  -4626.4158     -4662.3253      35.909498      5709.6702      286.10501      8193.4595      1.1829617      0.72194932   
      4700  -4626.8206     -4662.2512      35.430551      2683.1726      282.28906      8157.0977      1.1882349      0.72194932   
      4800  -4627.5876     -4661.7802      34.192675      4541.5912      272.42641      8106.4678      1.1956562      0.72194932   
      4900  -4628.1451     -4662.2976      34.152506      4493.9501      272.10637      8049.0151      1.2041906      0.72194932   
      5000  -4628.7136     -4662.3815      33.667849      6808.2888      268.24492      7995.3876      1.2122675      0.79115763   
      5100  -4628.7339     -4661.5044      32.770516      9854.5239      261.09552      7955.3985      1.2183611      0.79115763   
      5200  -4629.3702     -4662.7237      33.353494      5258.8385      265.74033      7940.7679      1.2206059      0.79115763   
      5300  -4627.9891     -4662.1896      34.200515      9505.5803      272.48888      7956.9132      1.2181292      0.79115763   
      5400  -4630.333      -4663.1941      32.861116      5431.7187      261.81736      8002.3307      1.2112157      0.79115763   
      5500  -4629.5858     -4663.9413      34.355446      4495.551       273.72327      8066.1931      1.2016261      0.79115763   
      5600  -4629.1942     -4662.6255      33.431243      3664.2331      266.35978      8131.0407      1.1920428      0.79115763   
      5700  -4628.2913     -4662.8338      34.54247       3456.2415      275.21337      8190.6969      1.1833607      0.79115763   
      5800  -4629.3367     -4662.5317      33.194983      5025.2279      264.47741      8237.5018      1.1766369      0.79115763   
      5900  -4629.3227     -4661.7276      32.404844      4087.9733      258.18206      8261.7958      1.173177       0.79115763   
      6000  -4629.0353     -4662.6777      33.64247       2405.4488      268.04271      8256.7957      1.1738874      0.7006232    
      6100  -4629.041      -4662.7258      33.684801      2025.6735      268.37998      8213.1894      1.1801199      0.7006232    
      6200  -4628.6488     -4661.7959      33.147048      6701.2386      264.09549      8140.5031      1.1906572      0.7006232    
      6300  -4627.7634     -4662.5269      34.76344       1324.4256      276.97392      8066.6944      1.2015515      0.7006232    
      6400  -4626.6551     -4661.4941      34.839016      6910.5011      277.57607      8014.2905      1.2094082      0.7006232    
      6500  -4628.139      -4663.1104      34.971458      7004.3303      278.63128      7988.5187      1.2133099      0.7006232    
      6600  -4628.6803     -4661.3997      32.719427      4540.5655      260.68847      7984.1436      1.2139747      0.7006232    
      6700  -4629.8485     -4663.4778      33.629251      6224.8094      267.93739      7996.2347      1.2121391      0.7006232    
      6800  -4629.3484     -4662.6322      33.283796      2598.7121      265.18502      8016.7688      1.2090343      0.7006232    
      6900  -4629.4919     -4663.8747      34.382754      5352.141       273.94085      8047.1374      1.2044716      0.7006232    
      7000  -4629.2051     -4662.9281      33.722979      4274.8018      268.68416      8083.0559      1.1991193      0.86806494   
      7100  -4628.8244     -4662.5571      33.732685      5274.5516      268.76149      8118.0992      1.1939431      0.86806494   
      7200  -4628.0046     -4661.9017      33.8971        5496.369       270.07145      8146.8493      1.1897297      0.86806494   
      7300  -4627.7003     -4661.6028      33.902537      4322.7906      270.11477      8161.4433      1.1876022      0.86806494   
      7400  -4627.141      -4661.3397      34.198696      3016.844       272.47439      8158.5236      1.1880272      0.86806494   
      7500  -4626.769      -4660.8452      34.076258      3212.9082      271.49887      8136.6688      1.1912183      0.86806494   
      7600  -4627.2931     -4661.2615      33.968402      4585.7958      270.63954      8109.0365      1.1952774      0.86806494   
      7700  -4628.0574     -4662.9388      34.881412      4157.8407      277.91385      8084.7031      1.198875       0.86806494   
      7800  -4629.1599     -4662.6673      33.507382      5442.9907      266.96641      8060.823       1.2024266      0.86806494   
      7900  -4628.0459     -4660.7883      32.742413      6108.2241      260.87161      8037.6057      1.2059         0.86806494   
      8000  -4628.7187     -4663.0969      34.378151      5497.1231      273.90417      8019.2701      1.2086572      0.70378112   
      8100  -4628.4093     -4662.1372      33.727912      8315.4745      268.72346      8009.3262      1.2101578      0.70378112   
      8200  -4627.8756     -4662.6599      34.784295      6790.3216      277.14008      8014.5188      1.2093737      0.70378112   
      8300  -4626.7346     -4661.5431      34.808537      6648.2762      277.33322      8032.0262      1.2067377      0.70378112   
      8400  -4626.5761     -4661.4572      34.881152      6174.0933      277.91178      8061.0503      1.2023927      0.70378112   
      8500  -4628.1863     -4662.8774      34.691138      1113.708       276.39786      8101.3095      1.1964175      0.70378112   
      8600  -4628.7659     -4663.2827      34.516747      2528.4156      275.00842      8140.7349      1.1906233      0.70378112   
      8700  -4628.1019     -4661.7689      33.667004      3248.98        268.23819      8166.5515      1.1868594      0.70378112   
      8800  -4627.9872     -4661.3589      33.371675      2631.6237      265.88518      8171.4458      1.1861485      0.70378112   
      8900  -4629.0293     -4661.5475      32.518236      3429.428       259.0855       8152.0844      1.1889657      0.70378112   
      9000  -4628.249      -4662.0176      33.768684      3890.855       269.04831      8112.0244      1.1948372      0.86637663   
      9100  -4628.539      -4662.0385      33.499483      6902.6749      266.90348      8065.8794      1.2016729      0.86637663   
      9200  -4630.4606     -4663.3255      32.86492       8809.3883      261.84767      8029.1538      1.2071694      0.86637663   
      9300  -4629.7354     -4663.2122      33.476776      5778.4234      266.72257      8007.6097      1.2104172      0.86637663   
      9400  -4628.3819     -4662.4835      34.101543      5949.0514      271.70033      8001.0096      1.2114157      0.86637663   
      9500  -4627.9463     -4660.7868      32.840504      3762.6368      261.65314      8010.3559      1.2100022      0.86637663   
      9600  -4627.3833     -4661.5255      34.142193      4851.601       272.0242       8027.4806      1.207421       0.86637663   
      9700  -4625.8621     -4661.8435      35.981377      8436.1461      286.6777       8046.4985      1.2045672      0.86637663   
      9800  -4626.823      -4661.4955      34.672419      5446.1742      276.24872      8069.8179      1.2010864      0.86637663   
      9900  -4627.9273     -4661.8518      33.924484      3445.7528      270.28963      8093.1459      1.1976243      0.86637663   
     10000  -4627.9257     -4660.3459      32.420183      6490.8998      258.30427      8112.8689      1.1947128      0.71504723   
     10100  -4627.5365     -4660.7104      33.173876      6529.4971      264.30924      8121.7503      1.1934064      0.71504723   
     10200  -4628.2211     -4663.0278      34.806761      4330.9397      277.31908      8119.6321      1.1937177      0.71504723   
     10300  -4629.0457     -4663.3548      34.309052      5726.2595      273.35363      8111.4867      1.1949164      0.71504723   
     10400  -4629.7363     -4663.1979      33.461531      3699.1042      266.6011       8102.0985      1.196301       0.71504723   
     10500  -4629.496      -4662.8764      33.380476      3400.4453      265.9553       8091.8987      1.1978089      0.71504723   
     10600  -4629.9644     -4662.9863      33.021935      4900.0993      263.09867      8083.533       1.1990485      0.71504723   
     10700  -4630.6929     -4662.9115      32.21867       4106.1392      256.69874      8073.3103      1.2005668      0.71504723   
     10800  -4629.2541     -4662.095       32.840921      4657.2139      261.65646      8057.877       1.2028663      0.71504723   
     10900  -4630.2294     -4664.4672      34.237807      7132.2672      272.786        8042.9331      1.2051012      0.71504723   
     11000  -4631.0963     -4664.0694      32.973145      6579.4785      262.70994      8026.7696      1.2075279      0.7576493    
     11100  -4630.3427     -4663.846       33.503332      5237.3939      266.93414      8014.2504      1.2094142      0.7576493    
     11200  -4628.9811     -4663.129       34.147855      6969.5736      272.06931      8014.225       1.209418       0.7576493    
     11300  -4628.4096     -4662.5101      34.100462      8877.416       271.69171      8028.9918      1.2071937      0.7576493    
     11400  -4626.6972     -4661.1922      34.494957      5968.5363      274.83481      8057.1167      1.2029798      0.7576493    
     11500  -4626.5184     -4660.6673      34.148937      3126.2419      272.07793      8095.325       1.197302       0.7576493    
     11600  -4626.8874     -4661.7858      34.89844       6220.4575      278.04952      8130.751       1.1920853      0.7576493    
     11700  -4628.3361     -4662.8221      34.486069     -318.51616      274.764        8156.2982      1.1883514      0.7576493    
     11800  -4628.5571     -4662.8752      34.318164      1681.61        273.42623      8170.0183      1.1863558      0.7576493    
     11900  -4628.6338     -4661.6908      33.056978      4448.3782      263.37787      8163.5115      1.1873014      0.7576493    
     12000  -4629.1274     -4662.2902      33.162758      4615.3884      264.22066      8136.4837      1.1912454      0.84646735   
     12100  -4628.4626     -4661.8459      33.383297      6599.2611      265.97778      8096.9123      1.1970672      0.84646735   
     12200  -4628.9532     -4662.7493      33.796057      8686.5454      269.2664       8058.8076      1.2027274      0.84646735   
     12300  -4629.0618     -4662.0513      32.989471      5690.8527      262.84001      8029.3942      1.2071332      0.84646735   
     12400  -4628.1856     -4662.2941      34.108564      8594.6899      271.75626      8012.7908      1.2096345      0.84646735   
     12500  -4628.0981     -4662.7951      34.696973      2074.5446      276.44435      8008.1201      1.21034        0.84646735   
     12600  -4627.5269     -4661.5562      34.029333      4785.5812      271.125        8009.8477      1.210079       0.84646735   
     12700  -4627.2625     -4661.527       34.264468      8404.9695      272.99841      8024.7492      1.2078319      0.84646735   
     12800  -4630.4344     -4662.7456      32.311269      9767.081       257.43651      8052.6371      1.203649       0.84646735   
     12900  -4629.7256     -4663.5845      33.858931      2796.7915      269.76735      8086.3771      1.1986268      0.84646735   
     13000  -4630.484      -4663.2214      32.737394      6371.4238      260.83162      8114.102       1.1945313      0.68695108   
     13100  -4629.5551     -4663.3633      33.808196      1558.0396      269.36311      8132.7596      1.1917908      0.68695108   
     13200  -4628.6684     -4662.1238      33.455352      3303.1339      266.55187      8136.2496      1.1912796      0.68695108   
     13300  -4629.7724     -4663.4863      33.713862      7501.6711      268.61152      8122.37        1.1933153      0.68695108   
     13400  -4630.1054     -4662.5511      32.445693      2180.1032      258.50752      8097.237       1.1970192      0.68695108   
     13500  -4628.6716     -4663.1939      34.522264      4385.3727      275.05238      8064.005       1.2019522      0.68695108   
     13600  -4629.2629     -4661.6186      32.355717      6362.3408      257.79065      8028.1193      1.2073249      0.68695108   
     13700  -4627.1344     -4660.8644      33.729968      3552.2735      268.73984      8001.255       1.2113785      0.68695108   
     13800  -4625.6202     -4661.2128      35.592561      3407.6141      283.57985      7990.4583      1.2130153      0.68695108   
     13900  -4627.0673     -4660.6706      33.603248      9054.5171      267.73022      8000.7214      1.2114593      0.68695108   
     14000  -4626.5547     -4660.6121      34.057343      7183.8031      271.34817      8027.2543      1.207455       0.82571515   
     14100  -4626.9229     -4660.1979      33.274969      7570.332       265.11469      8064.6744      1.2018524      0.82571515   
     14200  -4626.8379     -4659.8711      33.033182      6693.3876      263.18828      8104.5909      1.1959331      0.82571515   
     14300  -4627.3329     -4661.691       34.358084      6564.7237      273.74429      8141.9488      1.1904458      0.82571515   
     14400  -4626.5927     -4662.1875      35.594807      4345.1302      283.59774      8170.4157      1.1862981      0.82571515   
     14500  -4626.7827     -4661.2382      34.455493      4033.6548      274.52039      8188.6311      1.1836592      0.82571515   
     14600  -4627.6084     -4662.3826      34.774219      4663.8942      277.0598       8197.8904      1.1823223      0.82571515   
     14700  -4626.5181     -4661.2043      34.686187      5909.8808      276.35841      8194.139       1.1828636      0.82571515   
     14800  -4627.3106     -4661.5639      34.253304      3889.1677      272.90947      8179.8149      1.1849349      0.82571515   
     14900  -4627.1605     -4662.1304      34.969903      4769.7671      278.61889      8155.9335      1.1884045      0.82571515   
     15000  -4626.3618     -4661.092       34.730205      8514.7873      276.70913      8123.6012      1.1931344      0.73404823   
     15100  -4626.8777     -4660.6239      33.746188      5478.2215      268.86908      8089.4905      1.1981655      0.73404823   
     15200  -4627.7163     -4661.5034      33.787113      5510.855       269.19514      8056.2354      1.2031114      0.73404823   
     15300  -4628.1356     -4663.0109      34.87528       5679.1917      277.86499      8032.0717      1.2067308      0.73404823   
     15400  -4629.6436     -4663.1372      33.493539      2385.647       266.85612      8022.6601      1.2081465      0.73404823   
     15500  -4630.4115     -4663.2046      32.793127      7041.3609      261.27567      8020.2837      1.2085044      0.73404823   
     15600  -4630.6198     -4663.1771      32.55725       6382.8419      259.39634      8024.4986      1.2078697      0.73404823   
     15700  -4628.7399     -4661.9379      33.198043      3147.2163      264.50179      8034.9222      1.2063027      0.73404823   
     15800  -4630.2164     -4662.6145      32.398048      4524.2071      258.12792      8055.3738      1.20324        0.73404823   
     15900  -4629.513      -4663.771       34.257956      3839.3671      272.94653      8082.7618      1.1991629      0.73404823   
     16000  -4627.3128     -4662.5044      35.1916        1070.6752      280.38524      8110.9151      1.1950006      0.65318682   
     16100  -4628.0218     -4662.0931      34.071328      5391.4592      271.45959      8128.1236      1.1924706      0.65318682   
     16200  -4627.819      -4659.8039      31.984815      2101.3116      254.83552      8127.7801      1.192521       0.65318682   
     16300  -4627.4325     -4662.5576      35.125039      5736.8137      279.85492      8112.3148      1.1947944      0.65318682   
     16400  -4627.115      -4662.5943      35.479266      4572.6893      282.67718      8093.1092      1.1976298      0.65318682   
     16500  -4627.255      -4662.5706      35.315571      5712.3195      281.37296      8077.4955      1.1999448      0.65318682   
     16600  -4627.1401     -4661.6688      34.528689      6824.9657      275.10357      8065.861       1.2016756      0.65318682   
     16700  -4627.0486     -4660.6386      33.589948      7657.0886      267.62425      8059.2749      1.2026576      0.65318682   
     16800  -4625.5685     -4660.9125      35.344055      8400.353       281.59991      8059.2863      1.2026559      0.65318682   
     16900  -4626.2423     -4661.9907      35.748392      3408.9836      284.82142      8066.5098      1.2015789      0.65318682   
     17000  -4626.5982     -4661.6535      35.055261      3074.5923      279.29897      8083.3617      1.1990739      0.73602896   
     17100  -4625.9719     -4661.4695      35.497576      4192.2961      282.82307      8104.5263      1.1959426      0.73602896   
     17200  -4625.9482     -4661.2712      35.322932      753.73383      281.43161      8122.1019      1.1933547      0.73602896   
     17300  -4624.3083     -4660.027       35.718709      6738.1963      284.58492      8133.4605      1.1916881      0.73602896   
     17400  -4624.5722     -4659.5879      35.015759      6569.6709      278.98425      8147.9283      1.1895721      0.73602896   
     17500  -4625.9264     -4660.5744      34.647997      5582.3161      276.05414      8167.0525      1.1867866      0.73602896   
     17600  -4627.3003     -4661.2474      33.947056      2315.0133      270.46947      8184.8963      1.1841993      0.73602896   
     17700  -4627.362      -4661.4916      34.129557      5377.6489      271.92353      8186.6175      1.1839503      0.73602896   
     17800  -4627.0253     -4659.9111      32.885751      5330.5286      262.01364      8162.813       1.187403       0.73602896   
     17900  -4626.649      -4661.0317      34.382737      2709.5648      273.94071      8117.8684      1.193977       0.73602896   
     18000  -4627.2902     -4660.7038      33.413691      6841.7509      266.21994      8064.4961      1.201879       0.71997236   
     18100  -4625.8536     -4661.0572      35.203533      9046.7856      280.48031      8021.5269      1.2083171      0.71997236   
     18200  -4626.2477     -4661.8838      35.636128      6261.5649      283.92697      8002.4087      1.2112039      0.71997236   
     18300  -4626.5571     -4661.3238      34.766701      6931.2681      276.9999       8005.9638      1.210666       0.71997236   
     18400  -4626.9797     -4661.3303      34.350659      5303.3679      273.68513      8031.0572      1.2068832      0.71997236   
     18500  -4628.7529     -4662.5672      33.814277      5099.9381      269.41157      8065.5785      1.2017177      0.71997236   
     18600  -4628.4241     -4662.9029      34.478803      3587.3033      274.7061       8098.7808      1.1967911      0.71997236   
     18700  -4626.3509     -4661.2129      34.86199       6971.0723      277.7591       8120.406       1.1936039      0.71997236   
     18800  -4626.0333     -4658.8208      32.787417      5658.9916      261.23017      8133.1977      1.1917266      0.71997236   
     18900  -4627.3124     -4661.4055      34.093096      2522.8275      271.63302      8137.6539      1.191074       0.71997236   
     19000  -4628.2966     -4661.8952      33.598559      4042.6207      267.69285      8129.8755      1.1922136      0.83726355   
     19100  -4629.0803     -4663.2864      34.206052      1452.8795      272.53299      8115.0005      1.194399       0.83726355   
     19200  -4628.4508     -4663.4962      35.045436      6394.9242      279.22069      8092.9544      1.1976527      0.83726355   
     19300  -4629.5928     -4662.4985      32.905704      4613.7355      262.17261      8065.4375      1.2017387      0.83726355   
     19400  -4629.7811     -4663.5371      33.755996      6269.3019      268.94722      8039.6726      1.2055899      0.83726355   
     19500  -4628.3102     -4662.6978      34.387611      8316.4299      273.97955      8016.9186      1.2090117      0.83726355   
     19600  -4628.7472     -4662.2719      33.524695      6027.8232      267.10435      8003.8412      1.2109871      0.83726355   
     19700  -4629.1158     -4663.2707      34.154876      7219.0462      272.12525      8010.9053      1.2099192      0.83726355   
     19800  -4629.3046     -4663.296       33.991348      7602.5311      270.82236      8036.545       1.2060591      0.83726355   
     19900  -4628.8124     -4661.8646      33.052147      6010.102       263.33938      8074.6781      1.2003634      0.83726355   
     20000  -4630.3421     -4663.2918      32.949712      3368.864       262.52324      8120.6602      1.1935666      0.72190495   
     20100  -4630.9178     -4663.5718      32.653925      4489.2277      260.16659      8158.3623      1.1880507      0.72190495   
     20200  -4632.3854     -4663.8972      31.511763      5697.277       251.06653      8175.7788      1.1855199      0.72190495   
     20300  -4633.9262     -4664.8767      30.950506      2326.3527      246.59478      8174.7476      1.1856694      0.72190495   
     20400  -4633.0009     -4663.8153      30.814472      4239.0894      245.51095      8152.2325      1.1889441      0.72190495   
     20500  -4631.5613     -4664.4717      32.910472      4380.3966      262.2106       8117.0549      1.1940967      0.72190495   
     20600  -4630.8417     -4664.9821      34.140408      3664.8308      272.00998      8079.8531      1.1995946      0.72190495   
     20700  -4630.4321     -4662.6118      32.17974       8686.3433      256.38857      8042.3516      1.2051883      0.72190495   
     20800  -4629.8176     -4663.6708      33.853223      6221.3066      269.72186      8015.6257      1.2092067      0.72190495   
     20900  -4628.7055     -4662.4304      33.724921      5229.2235      268.69963      8009.8202      1.2100831      0.72190495   
     21000  -4628.0053     -4661.6865      33.681223      6529.5718      268.35148      8032.6901      1.2066379      0.70780906   
     21100  -4628.8042     -4663.9712      35.167042      5123.879       280.18957      8072.0458      1.2007549      0.70780906   
     21200  -4630.3966     -4662.8201      32.423545      2820.3663      258.33106      8112.5938      1.1947533      0.70780906   
     21300  -4630.1415     -4663.2807      33.139163      2199.4466      264.03267      8140.8851      1.1906013      0.70780906   
     21400  -4628.8014     -4662.9791      34.177753      4563.296       272.30752      8150.0943      1.189256       0.70780906   
     21500  -4626.5738     -4662.0481      35.474264      7114.8911      282.63733      8149.4617      1.1893483      0.70780906   
     21600  -4626.5094     -4661.4341      34.924696      7633.3775      278.25871      8150.6621      1.1891731      0.70780906   
     21700  -4626.4466     -4662.1419      35.695342      3490.6748      284.39874      8151.5502      1.1890436      0.70780906   
     21800  -4627.6621     -4660.921       33.258935      2974.4276      264.98694      8140.9242      1.1905956      0.70780906   
     21900  -4626.6806     -4660.3068      33.626231      7178.9776      267.91333      8114.0932      1.1945325      0.70780906   
     22000  -4626.8673     -4661.2474      34.380169      3324.6626      273.92025      8078.7917      1.1997522      0.76552075   
     22100  -4627.7724     -4661.397       33.624575      7057.1268      267.90013      8046.3983      1.2045822      0.76552075   
     22200  -4626.7828     -4661.3524      34.56965       7525.1077      275.42992      8024.2072      1.2079135      0.76552075   
     22300  -4626.1277     -4660.8626      34.73494       6929.9367      276.74685      8018.13        1.208829       0.76552075   
     22400  -4626.6123     -4660.7467      34.134366      3978.4784      271.96184      8028.7351      1.2072323      0.76552075   
     22500  -4626.4598     -4660.6423      34.182498      3537.7388      272.34533      8055.2214      1.2032628      0.76552075   
     22600  -4626.1883     -4660.2479      34.059606      4802.4637      271.3662       8090.1071      1.1980742      0.76552075   
     22700  -4627.7584     -4661.738       33.9796        6197.5502      270.72876      8127.2197      1.1926032      0.76552075   
     22800  -4627.497      -4660.9497      33.45268       4824.0797      266.53058      8160.6366      1.1877196      0.76552075   
     22900  -4625.8462     -4660.9867      35.140561      6029.598       279.97859      8185.1486      1.1841628      0.76552075   
     23000  -4626.8447     -4661.6881      34.84336       3978.6948      277.61067      8196.4733      1.1825267      0.7616178    
     23100  -4626.9467     -4661.2369      34.290242      9630.709       273.20376      8188.3305      1.1837026      0.7616178    
     23200  -4626.008      -4661.7168      35.708809      6101.396       284.50604      8161.5835      1.1875819      0.7616178    
     23300  -4626.2191     -4661.8231      35.603954      874.51448      283.67062      8126.2935      1.1927391      0.7616178    
     23400  -4627.5824     -4661.1069      33.524509      8615.5479      267.10287      8096.4022      1.1971426      0.7616178    
     23500  -4627.3183     -4661.5475      34.229143      7103.8503      272.71697      8078.5899      1.1997822      0.7616178    
     23600  -4629.2375     -4662.4614      33.223853      3432.3277      264.70743      8078.0369      1.1998643      0.7616178    
     23700  -4629.0229     -4663.0858      34.062903      5885.6911      271.39247      8085.7663      1.1987174      0.7616178    
     23800  -4628.544      -4662.1351      33.591189      7019.3593      267.63414      8089.391       1.1981802      0.7616178    
     23900  -4628.3891     -4662.7481      34.359014      5629.5348      273.7517       8087.5139      1.1984583      0.7616178    
     24000  -4628.679      -4663.1005      34.421557      6160.6252      274.25         8078.6141      1.1997786      0.74792734   
     24100  -4629.0267     -4663.6226      34.595902      5270.8071      275.63908      8071.5565      1.2008277      0.74792734   
     24200  -4629.1217     -4662.8774      33.755687      3821.818       268.94476      8075.1406      1.2002947      0.74792734   
     24300  -4628.4567     -4661.27        32.813344      5068.358       261.43674      8087.1107      1.1985181      0.74792734   
     24400  -4629.4285     -4661.4522      32.023678      7072.1737      255.14516      8100.842       1.1964865      0.74792734   
     24500  -4630.5839     -4664.5291      33.945179      4891.4659      270.45451      8107.212       1.1955464      0.74792734   
     24600  -4630.3258     -4663.1271      32.801319      3823.9629      261.34093      8106.2022      1.1956954      0.74792734   
     24700  -4630.4362     -4663.809       33.372813      6107.395       265.89425      8102.9582      1.1961741      0.74792734   
     24800  -4630.1749     -4661.9737      31.798848      2191.9826      253.35385      8098.811       1.1967866      0.74792734   
     24900  -4630.0764     -4663.0967      33.020283      4979.2366      263.0855       8095.2382      1.1973148      0.74792734   
     25000  -4630.1376     -4663.73        33.592434      3745.9659      267.64406      8092.4468      1.1977278      0.84679295   
     25100  -4631.1122     -4663.9653      32.853053      7837.8311      261.75312      8081.1166      1.1994071      0.84679295   
     25200  -4629.4267     -4662.1085      32.681796      5925.1508      260.38865      8063.8464      1.2019758      0.84679295   
     25300  -4629.9484     -4662.9502      33.001766      5893.2596      262.93798      8053.1069      1.2035788      0.84679295   
     25400  -4630.8255     -4663.9721      33.146547      4189.5422      264.0915       8048.1149      1.2043253      0.84679295   
     25500  -4631.0916     -4663.7191      32.627427      7801.2374      259.95547      8052.1856      1.2037165      0.84679295   
     25600  -4629.5179     -4662.7044      33.186518      7456.7595      264.40996      8067.9132      1.2013699      0.84679295   
     25700  -4628.9956     -4663.7172      34.721579      2751.1975      276.6404       8089.5403      1.1981581      0.84679295   
     25800  -4628.3263     -4661.876       33.549751      6301.6492      267.30398      8106.747       1.195615       0.84679295   
     25900  -4628.9213     -4662.6647      33.743423      5628.3401      268.84705      8119.4082      1.1937506      0.84679295   
     26000  -4628.9432     -4663.896       34.952797      5786.3527      278.4826       8132.1287      1.1918833      0.71579473   
     26100  -4629.0489     -4663.3518      34.302958      5929.2446      273.30508      8148.2633      1.1895232      0.71579473   
     26200  -4630.0648     -4662.7035      32.638718      3440.7483      260.04543      8160.7839      1.1876982      0.71579473   
     26300  -4628.9855     -4661.1346      32.149092      4278.2529      256.14439      8158.3819      1.1880479      0.71579473   
     26400  -4629.2093     -4662.304       33.094698      6420.5173      263.6784       8135.5329      1.1913846      0.71579473   
     26500  -4627.924      -4661.8866      33.962585      2392.2335      270.59319      8095.2708      1.19731        0.71579473   
     26600  -4628.3672     -4662.1809      33.813674      6333.6211      269.40677      8052.9409      1.2036036      0.71579473   
     26700  -4626.7557     -4662.0154      35.259623      6710.6202      280.9272       8021.9197      1.208258       0.71579473   
     26800  -4626.9287     -4660.8756      33.946935      9219.4863      270.4685       8011.1409      1.2098836      0.71579473   
     26900  -4627.1531     -4661.352       34.198883      9230.4965      272.47587      8021.6913      1.2082924      0.71579473   
     27000  -4627.1913     -4661.5682      34.376957      3967.5452      273.89466      8050.2057      1.2040125      0.73299098   
     27100  -4628.2873     -4662.6129      34.325638      6699.7798      273.48578      8087.6911      1.1984321      0.73299098   
     27200  -4628.0194     -4661.9221      33.90268       6024.959       270.11591      8125.786       1.1928136      0.73299098   
     27300  -4628.6315     -4661.0515      32.419962      6944.2777      258.30251      8154.4321      1.1886234      0.73299098   
     27400  -4627.8003     -4661.2121      33.411848     -119.87458      266.20526      8166.1295      1.1869207      0.73299098   
     27500  -4628.536      -4662.4237      33.88775       4120.3212      269.99695      8159.2948      1.187915       0.73299098   
     27600  -4628.8108     -4663.0845      34.273693      867.53622      273.07192      8131.563       1.1919662      0.73299098   
     27700  -4628.1213     -4660.2044      32.083121      6355.5882      255.61877      8091.9453      1.197802       0.73299098   
     27800  -4629.4997     -4662.0754      32.575715      6148.2344      259.54346      8062.4719      1.2021807      0.73299098   
     27900  -4630.2494     -4663.22        32.970529      6582.0214      262.6891       8047.4065      1.2044313      0.73299098   
     28000  -4631.2418     -4662.8775      31.635772      4359.3979      252.05457      8043.9351      1.2049511      0.82052747   
     28100  -4632.311      -4665.5583      33.247331      3005.7577      264.89449      8048.4093      1.2042813      0.82052747   
     28200  -4632.9623     -4664.3907      31.42848       5172.4298      250.40299      8052.7641      1.20363        0.82052747   
     28300  -4631.5293     -4664.0742      32.54483       7113.1803      259.29738      8062.9198      1.202114       0.82052747   
     28400  -4631.4599     -4664.0656      32.605746      2043.1533      259.78273      8080.992       1.1994256      0.82052747   
     28500  -4630.1634     -4663.9288      33.765321      6932.5842      269.02152      8102.3846      1.1962587      0.82052747   
     28600  -4629.3543     -4662.3861      33.031741      5564.747       263.1768       8120.3272      1.1936155      0.82052747   
     28700  -4629.0238     -4662.4274      33.403558      5181.7072      266.13921      8131.0008      1.1920486      0.82052747   
     28800  -4628.6471     -4663.2646      34.617466      5414.7824      275.81089      8132.1839      1.1918752      0.82052747   
     28900  -4628.4721     -4661.6115      33.139383      3705.7927      264.03442      8127.4681      1.1925668      0.82052747   
     29000  -4629.3965     -4663.7068      34.310248      5507.0722      273.36316      8129.4769      1.1922721      0.71117823   
     29100  -4629.3762     -4663.2511      33.874874      4526.0096      269.89436      8133.3943      1.1916978      0.71117823   
     29200  -4628.0255     -4663.0094      34.983948      4301.9184      278.73079      8134.1406      1.1915885      0.71117823   
     29300  -4628.395      -4661.3372      32.942207      3480.596       262.46345      8125.2329      1.1928948      0.71117823   
     29400  -4628.6747     -4661.545       32.870287      3746.2278      261.89043      8109.7927      1.195166       0.71117823   
     29500  -4629.633      -4662.3943      32.761328      7098.7195      261.02231      8097.5768      1.196969       0.71117823   
     29600  -4627.6571     -4661.4006      33.743491      5575.9191      268.84759      8093.7747      1.1975313      0.71117823   
     29700  -4628.443      -4662.9675      34.524526      5328.8213      275.0704       8101.1204      1.1964454      0.71117823   
     29800  -4628.0661     -4662.2359      34.169853      1569.7084      272.24458      8110.7151      1.1950301      0.71117823   
     29900  -4628.7137     -4662.1597      33.445985      4890.2667      266.47724      8111.0959      1.194974       0.71117823   
     30000  -4627.2462     -4661.394       34.147849      7004.8857      272.06927      8099.5193      1.1966819      0.82514955   
     30100  -4625.9334     -4660.8683      34.934902      5426.7463      278.34002      8079.5175      1.1996445      0.82514955   
     30200  -4625.4871     -4660.5635      35.07637       5979.6504      279.46715      8068.1947      1.201328       0.82514955   
     30300  -4625.8453     -4660.2835      34.438195      8120.7711      274.38257      8080.458       1.1995048      0.82514955   
     30400  -4625.715      -4659.6119      33.896918      2664.6272      270.07         8111.4574      1.1949207      0.82514955   
     30500  -4626.8328     -4660.8375      34.004691      2814.6022      270.92867      8146.2764      1.1898133      0.82514955   
     30600  -4627.8963     -4662.7448      34.848584     -104.10604      277.65229      8166.6586      1.1868438      0.82514955   
     30700  -4626.5725     -4661.7323      35.159858      4749.4168      280.13234      8167.2187      1.1867624      0.82514955   
     30800  -4627.7918     -4661.9856      34.193767      3273.2081      272.43511      8156.8075      1.1882772      0.82514955   
     30900  -4627.34       -4661.7022      34.362228      6353.8975      273.77731      8146.4574      1.1897869      0.82514955   
     31000  -4627.7772     -4662.2102      34.432976      1732.0564      274.34098      8136.9942      1.1911706      0.77783836   
     31100  -4628.3386     -4662.646       34.307416      3634.5592      273.34059      8119.9895      1.1936651      0.77783836   
     31200  -4630.119      -4664.1292      34.010241      4510.1386      270.97289      8093.2857      1.1976036      0.77783836   
     31300  -4629.6351     -4662.4704      32.835343      5148.1853      261.61201      8068.0256      1.2013532      0.77783836   
     31400  -4628.3327     -4662.2167      33.883955      7317.5785      269.96672      8049.1895      1.2041645      0.77783836   
     31500  -4628.1164     -4662.4309      34.314526      6411.5877      273.39725      8045.5925      1.2047029      0.77783836   
     31600  -4629.2424     -4662.7411      33.498714      6102.1506      266.89735      8056.1444      1.203125       0.77783836   
     31700  -4628.2778     -4661.5657      33.287851      4725.8148      265.21733      8070.04        1.2010533      0.77783836   
     31800  -4627.4789     -4661.0903      33.611381      5295.1779      267.79501      8082.59        1.1991884      0.77783836   
     31900  -4627.5805     -4660.7265      33.146017      6490.8435      264.08728      8094.4357      1.1974335      0.77783836   
     32000  -4626.1461     -4660.8719      34.725779      5537.0276      276.67386      8113.0985      1.194679       0.83599645   
     32100  -4626.8091     -4661.8888      35.079685      3669.1499      279.49357      8148.347       1.189511       0.83599645   
     32200  -4626.4852     -4661.2569      34.771773      3500.6654      277.04031      8190.5117      1.1833874      0.83599645   
     32300  -4626.7358     -4660.4503      33.71446       3816.9475      268.61629      8216.3489      1.1796661      0.83599645   
     32400  -4626.8994     -4661.9402      35.040779      4093.1244      279.18358      8217.4919      1.179502       0.83599645   
     32500  -4626.3282     -4660.5686      34.240415      6681.5749      272.80677      8189.8511      1.1834829      0.83599645   
     32600  -4627.304      -4662.7835      35.47956       6589.6667      282.67953      8150.488       1.1891985      0.83599645   
     32700  -4627.7171     -4661.0165      33.299382      4641.8513      265.3092       8108.9754      1.1952865      0.83599645   
     32800  -4627.4203     -4661.8603      34.440038      8513.6614      274.39725      8070.5378      1.2009792      0.83599645   
     32900  -4627.1742     -4662.0474      34.873154      5931.6246      277.84805      8042.0701      1.2052305      0.83599645   
     33000  -4626.5024     -4661.0457      34.543319      8650.0758      275.22013      8027.7065      1.207387       0.79245503   
     33100  -4627.0793     -4660.6895      33.610213      7562.0502      267.78571      8030.8825      1.2069095      0.79245503   
     33200  -4626.0309     -4661.3969      35.366022      3669.1971      281.77492      8053.7565      1.2034817      0.79245503   
     33300  -4626.9227     -4661.2649      34.342169      4959.5323      273.61749      8091.53        1.1978635      0.79245503   
     33400  -4627.8604     -4662.8136      34.953227      548.53911      278.48602      8132.5064      1.1918279      0.79245503   
     33500  -4627.0771     -4661.2025      34.125483      5577.297       271.89106      8152.2294      1.1889445      0.79245503   
     33600  -4626.4442     -4661.8521      35.407913      4639.5458      282.10869      8154.5822      1.1886015      0.79245503   
     33700  -4627.5496     -4661.6898      34.140205      2994.3773      272.00837      8148.0993      1.1895472      0.79245503   
     33800  -4629.1179     -4662.0035      32.885615      2918.1162      262.01256      8133.548       1.1916753      0.79245503   
     33900  -4629.67       -4663.5672      33.897223      8725.6272      270.07243      8112.3683      1.1947865      0.79245503   
     34000  -4629.5673     -4663.5447      33.977385      5433.6396      270.71111      8096.3755      1.1971466      0.74699657   
     34100  -4628.7126     -4662.4332      33.720578      3062.8118      268.66503      8087.6635      1.1984362      0.74699657   
     34200  -4629.0405     -4662.8518      33.811253      4390.2103      269.38748      8081.893       1.1992919      0.74699657   
     34300  -4627.1672     -4661.9014      34.734282      7713.5037      276.7416       8083.1468      1.1991058      0.74699657   
     34400  -4628.1962     -4661.2164      33.020244      2848.311       263.0852       8096.7141      1.1970965      0.74699657   
     34500  -4627.5874     -4661.2019      33.614525      3725.1415      267.82007      8115.0585      1.1943905      0.74699657   
     34600  -4627.4599     -4662.2193      34.759436      5016.1057      276.94202      8134.0913      1.1915957      0.74699657   
     34700  -4628.9377     -4663.708       34.770252      1722.6439      277.0282       8146.7743      1.1897406      0.74699657   
     34800  -4629.4058     -4662.4951      33.08929       4883.0062      263.63531      8146.5874      1.1897679      0.74699657   
     34900  -4629.5654     -4662.0449      32.479541      3698.4258      258.77721      8134.7991      1.191492       0.74699657   
     35000  -4628.9709     -4661.9324      32.96152       7323.7604      262.61732      8118.8438      1.1938336      0.74325388   
     35100  -4629.3927     -4663.248       33.855348      4796.4443      269.73879      8107.4433      1.1955123      0.74325388   
     35200  -4629.2946     -4661.3368      32.04214       4595.978       255.29226      8101.0317      1.1964585      0.74325388   
     35300  -4628.5525     -4662.8409      34.288438      3211.7511      273.18939      8098.0107      1.1969049      0.74325388   
     35400  -4628.0535     -4662.857       34.803482      7860.1544      277.29295      8096.638       1.1971078      0.74325388   
     35500  -4627.0426     -4661.5803      34.53776       1861.0188      275.17584      8094.5773      1.1974125      0.74325388   
     35600  -4626.4866     -4660.4626      33.97603       4508.2861      270.70032      8091.9095      1.1978073      0.74325388   
     35700  -4627.47       -4661.6475      34.177554      5073.3535      272.30593      8093.8845      1.197515       0.74325388   
     35800  -4628.315      -4661.9303      33.615314      5581.7982      267.82635      8099.8253      1.1966367      0.74325388   
     35900  -4627.4063     -4661.6195      34.213235      4388.7952      272.59022      8101.5838      1.196377       0.74325388   
     36000  -4627.1073     -4661.7396      34.632318      6866.2546      275.92922      8097.9105      1.1969197      0.7889135    
     36100  -4626.4318     -4661.2472      34.815391      7596.5029      277.38783      8096.7924      1.197085       0.7889135    
     36200  -4626.3839     -4661.3833      34.999384      8666.1126      278.85377      8101.1301      1.196444       0.7889135    
     36300  -4627.1694     -4660.6083      33.438941      3841.2365      266.42112      8107.7421      1.1954683      0.7889135    
     36400  -4628.4346     -4662.3634      33.928769      2306.8244      270.32377      8107.589       1.1954908      0.7889135    
     36500  -4629.0379     -4663.442       34.404105      3478.2988      274.11096      8099.5066      1.1966838      0.7889135    
     36600  -4628.8953     -4663.5699      34.674593      5308.4046      276.26604      8089.9876      1.1980919      0.7889135    
     36700  -4627.9452     -4661.2791      33.333898      6494.6626      265.5842       8081.3951      1.1993657      0.7889135    
     36800  -4628.2018     -4662.5141      34.312221      2747.4738      273.37888      8080.9919      1.1994256      0.7889135    
     36900  -4629.1537     -4662.1194      32.965737      3305.9946      262.65092      8086.8943      1.1985502      0.7889135    
     37000  -4629.9205     -4663.1604      33.239863      5637.2961      264.83498      8091.3239      1.197894       0.8443071    
     37100  -4630.2935     -4662.9328      32.639351      5966.8507      260.05047      8094.0088      1.1974966      0.8443071    
     37200  -4630.4261     -4663.7354      33.309351      7898.8149      265.38863      8100.7632      1.1964982      0.8443071    
     37300  -4629.7846     -4662.6411      32.856529      3965.4481      261.78081      8107.5326      1.1954992      0.8443071    
     37400  -4630.6473     -4663.395       32.747679      3791.6472      260.91357      8105.7872      1.1957566      0.8443071    
     37500  -4629.841      -4663.5257      33.684656      2585.4498      268.37882      8090.1008      1.1980751      0.8443071    
     37600  -4629.276      -4663.0853      33.809366      3845.8684      269.37244      8065.7364      1.2016942      0.8443071    
     37700  -4629.5655     -4662.6505      33.08499       5606.1891      263.60105      8049.579       1.2041063      0.8443071    
     37800  -4628.816      -4662.7595      33.943528      8983.2511      270.44136      8050.6166      1.2039511      0.8443071    
     37900  -4629.9292     -4663.2516      33.322349      6560.9007      265.49218      8074.1423      1.2004431      0.8443071    
     38000  -4629.5378     -4663.2959      33.758074      2820.2894      268.96378      8111.7371      1.1948795      0.97670084   
     38100  -4629.1599     -4662.6385      33.478609      4800.5377      266.73717      8144.5899      1.1900597      0.97670084   
     38200  -4628.5449     -4660.4696      31.924754      3974.3018      254.357        8155.6543      1.1884452      0.97670084   
     38300  -4629.6184     -4662.6003      32.981915      801.48332      262.77981      8143.6605      1.1901955      0.97670084   
     38400  -4628.7046     -4662.4106      33.706041      4420.438       268.54921      8115.6641      1.1943013      0.97670084   
     38500  -4628.0603     -4663.1648      35.104511      8430.5923      279.69137      8087.7005      1.1984307      0.97670084   
     38600  -4628.5584     -4662.2987      33.740339      7264.7525      268.82247      8073.6501      1.2005163      0.97670084   
     38700  -4628.7036     -4662.6011      33.897406      4810.5902      270.07389      8068.9062      1.2012221      0.97670084   
     38800  -4629.1857     -4663.0688      33.883165      1348.2523      269.96043      8067.7025      1.2014013      0.97670084   
     38900  -4629.4098     -4662.2822      32.872446      2589.0459      261.90763      8063.434       1.2020373      0.97670084   
     39000  -4629.2725     -4662.9994      33.726881      4911.3465      268.71525      8059.4045      1.2026383      0.74499168   
     39100  -4628.4628     -4661.4451      32.982335      6051.3967      262.78316      8059.8106      1.2025777      0.74499168   
     39200  -4628.6735     -4664.0807      35.407124      4455.7472      282.1024       8072.4459      1.2006954      0.74499168   
     39300  -4629.8668     -4662.8847      33.017872      4880.5377      263.0663       8086.8878      1.1985511      0.74499168   
     39400  -4629.7952     -4662.785       32.989855      4206.2771      262.84307      8095.142       1.197329       0.74499168   
     39500  -4631.0375     -4662.6128      31.575322      6058.3936      251.57294      8097.8019      1.1969357      0.74499168   
     39600  -4630.5961     -4663.2723      32.676161      4804.0698      260.34375      8098.5802      1.1968207      0.74499168   
     39700  -4630.9196     -4663.9407      33.021055      4562.9349      263.09165      8097.7732      1.19694        0.74499168   
     39800  -4630.3333     -4662.0769      31.743668      1431.5895      252.91422      8094.0093      1.1974966      0.74499168   
     39900  -4629.6147     -4662.6917      33.077006      5991.5244      263.53744      8089.3068      1.1981927      0.74499168   
     40000  -4628.6157     -4664.3293      35.713529      5463.6223      284.54365      8087.7558      1.1984225      0.7697127    
     40100  -4628.7358     -4663.6893      34.95343       6465.2602      278.48765      8088.5915      1.1982987      0.7697127    
     40200  -4629.4917     -4663.288       33.796315      4777.2838      269.26846      8089.2207      1.1982055      0.7697127    
     40300  -4630.3146     -4663.4305      33.115893      4224.8673      263.84727      8087.0363      1.1985291      0.7697127    
     40400  -4629.7618     -4661.7498      31.988039      7534.2951      254.86121      8084.6098      1.1988888      0.7697127    
     40500  -4628.5162     -4661.0781      32.561924      4040.5801      259.43358      8082.2125      1.1992444      0.7697127    
     40600  -4628.8914     -4661.9511      33.059638      4053.8341      263.39906      8082.2659      1.1992365      0.7697127    
     40700  -4627.7267     -4663.3233      35.596669      5323.2497      283.61258      8088.3889      1.1983287      0.7697127    
     40800  -4628.0701     -4662.1394      34.06932       5515.0094      271.4436       8097.2677      1.1970147      0.7697127    
     40900  -4627.5535     -4661.0311      33.47759       6270.4511      266.72905      8106.5246      1.1956478      0.7697127    
     41000  -4626.9514     -4662.341       35.389593      3544.0279      281.96272      8118.3126      1.1939117      0.72834422   
     41100  -4628.5625     -4662.4144      33.851932      5324.1722      269.71158      8131.6839      1.1919485      0.72834422   
     41200  -4628.9746     -4661.8093      32.834658      5771.7253      261.60656      8142.4627      1.1903706      0.72834422   
     41300  -4629.2194     -4662.7059      33.486538      3801.2695      266.80034      8144.6317      1.1900536      0.72834422   
     41400  -4630.099      -4663.2677      33.168696      2483.5325      264.26797      8129.2537      1.1923048      0.72834422   
     41500  -4629.9992     -4664.4734      34.474229      4001.8991      274.66967      8096.3907      1.1971444      0.72834422   
     41600  -4629.1567     -4662.7225      33.565825      6294.3206      267.43205      8058.8385      1.2027228      0.72834422   
     41700  -4627.9049     -4663.1535      35.248657      6614.5119      280.83983      8031.1787      1.206865       0.72834422   
     41800  -4627.337      -4662.0243      34.687346      6809.4138      276.36765      8023.5328      1.2080151      0.72834422   
     41900  -4625.1402     -4660.5387      35.398476      5171.9294      282.0335       8038.8036      1.2057203      0.72834422   
     42000  -4625.8011     -4660.4294      34.628305      4964.7664      275.89725      8068.9029      1.2012226      0.63908755   
     42100  -4626.8406     -4660.0991      33.258565      5369.8516      264.98399      8103.0266      1.196164       0.63908755   
     42200  -4627.2451     -4661.9608      34.715703      4225.529       276.59358      8138.0365      1.1910181      0.63908755   
     42300  -4626.9414     -4660.9692      34.027866      2723.6421      271.11332      8166.2214      1.1869074      0.63908755   
     42400  -4629.2389     -4662.5101      33.271216      2381.8709      265.08479      8182.8396      1.1844969      0.63908755   
     42500  -4628.841      -4662.665       33.824013      4233.1896      269.48913      8177.1172      1.1853259      0.63908755   
     42600  -4627.7903     -4661.6758      33.885541      5149.4367      269.97935      8151.9944      1.1889788      0.63908755   
     42700  -4628.0582     -4663.2952      35.236935      6773.9761      280.74644      8122.1944      1.1933411      0.63908755   
     42800  -4628.3478     -4661.8494      33.5016        7184.3987      266.92035      8096.887       1.197071       0.63908755   
     42900  -4628.5868     -4662.7432      34.156328      4169.8136      272.13682      8077.302       1.1999735      0.63908755   
     43000  -4627.3437     -4661.4972      34.153496      5206.2613      272.11426      8067.8731      1.2013759      0.86514357   
     43100  -4627.919      -4661.6532      33.734188      6869.0584      268.77347      8072.4077      1.200701       0.86514357   
     43200  -4628.5208     -4661.7387      33.217954      1799.8456      264.66043      8089.2063      1.1982076      0.86514357   
     43300  -4630.2018     -4661.8738      31.672003      3371.2201      252.34323      8107.7883      1.1954615      0.86514357   
     43400  -4630.9201     -4663.9574      33.037355      6337.8673      263.22153      8125.4642      1.1928609      0.86514357   
     43500  -4630.8538     -4662.4159      31.562171      6965.7183      251.46816      8131.1683      1.1920241      0.86514357   
     43600  -4630.8579     -4663.1698      32.311915      5945.349       257.44166      8125.691       1.1928276      0.86514357   
     43700  -4628.6788     -4662.19        33.511213      362.25606      266.99694      8116.484       1.1941807      0.86514357   
     43800  -4629.3157     -4662.2733      32.957609      3012.9714      262.58616      8111.1923      1.1949598      0.86514357   
     43900  -4630.6376     -4663.3636      32.725939      5889.4567      260.74035      8108.9357      1.1952923      0.86514357   
     44000  -4630.0291     -4663.9143      33.885222      5691.7702      269.97682      8104.2717      1.1959802      0.80778277   
     44100  -4630.1523     -4663.2081      33.055761      4367.4814      263.36817      8094.806       1.1973787      0.80778277   
     44200  -4629.7085     -4662.538       32.829492      4692.4776      261.5654       8080.0193      1.19957        0.80778277   
     44300  -4628.8361     -4662.5387      33.702568      3755.3103      268.52154      8062.918       1.2021142      0.80778277   
     44400  -4627.5878     -4661.849       34.261212      2432.6312      272.97248      8052.0965      1.2037298      0.80778277   
     44500  -4627.8984     -4662.0447      34.14621       8046.9994      272.05621      8055.6703      1.2031958      0.80778277   
     44600  -4626.9587     -4660.8428      33.884155      5672.0691      269.96831      8071.8         1.2007914      0.80778277   
     44700  -4627.0889     -4662.1939      35.105075      6983.7003      279.69586      8095.0049      1.1973493      0.80778277   
     44800  -4626.3175     -4660.9857      34.668175      3002.8078      276.2149       8117.7036      1.1940013      0.80778277   
     44900  -4625.5191     -4660.7406      35.221491      4314.3765      280.62339      8134.5601      1.191527       0.80778277   
     45000  -4626.8093     -4661.2096      34.400282      4174.0507      274.0805       8150.1771      1.1892439      0.82668894   
     45100  -4627.7346     -4662.3413      34.606665      6373.531       275.72483      8164.4743      1.1871614      0.82668894   
     45200  -4628.7365     -4661.984       33.247498      7505.2889      264.89581      8171.4034      1.1861547      0.82668894   
     45300  -4628.5319     -4661.8946      33.362722      87.380314      265.81385      8165.3957      1.1870274      0.82668894   
     45400  -4629.1326     -4662.4426      33.309987      773.00398      265.39369      8143.4691      1.1902235      0.82668894   
     45500  -4630.0025     -4662.8459      32.843373      4897.4851      261.676        8113.2304      1.1946596      0.82668894   
     45600  -4630.6649     -4664.0656      33.400729      5488.0738      266.11667      8079.5241      1.1996435      0.82668894   
     45700  -4630.7309     -4663.3661      32.635222      2111.4152      260.01757      8045.6878      1.2046886      0.82668894   
     45800  -4629.5529     -4662.9197      33.366735      6460.5962      265.84582      8019.1753      1.2086715      0.82668894   
     45900  -4630.3716     -4663.1586      32.787057      8147.0679      261.2273       8005.4349      1.210746       0.82668894   
     46000  -4630.2238     -4663.3824      33.158586      8171.7195      264.18742      8010.5278      1.2099762      0.75400419   
     46100  -4629.844      -4663.8894      34.045406      4754.8712      271.25306      8035.5893      1.2062026      0.75400419   
     46200  -4630.4753     -4663.9558      33.480545      6705.9627      266.75259      8076.4882      1.2000944      0.75400419   
     46300  -4631.3065     -4664.595       33.288551      4810.1231      265.2229       8128.7773      1.1923747      0.75400419   
     46400  -4630.7172     -4662.6605      31.943358      3735.6598      254.50522      8173.2435      1.1858876      0.75400419   
     46500  -4629.5254     -4662.4962      32.970808      2996.3488      262.69132      8198.4731      1.1822382      0.75400419   
     46600  -4629.2773     -4663.0373      33.759914      3180.5213      268.97844      8200.4208      1.1819574      0.75400419   
     46700  -4628.927      -4661.4886      32.561577      5004.1892      259.43081      8175.9273      1.1854984      0.75400419   
     46800  -4630.6759     -4662.2663      31.590481      4537.5898      251.69371      8135.4462      1.1913973      0.75400419   
     46900  -4630.0865     -4663.8871      33.800582      3340.7086      269.30245      8087.1024      1.1985193      0.75400419   
     47000  -4629.1555     -4663.2651      34.109512      6052.6459      271.76382      8043.0274      1.2050871      0.657286     
     47100  -4627.3799     -4661.2495      33.86962       7653.6909      269.8525       8017.2009      1.2089691      0.657286     
     47200  -4628.1059     -4661.6391      33.533144      3893.536       267.17167      8020.0062      1.2085463      0.657286     
     47300  -4628.1466     -4661.9857      33.8391        4975.4316      269.60934      8039.1961      1.2056614      0.657286     
     47400  -4629.2978     -4662.2601      32.962252      5948.8463      262.62315      8069.8594      1.2010802      0.657286     
     47500  -4630.1343     -4664.7665      34.632255      2938.6414      275.92872      8103.9742      1.1960241      0.657286     
     47600  -4629.1006     -4663.0088      33.908299      2017.6176      270.16067      8131.5489      1.1919683      0.657286     
     47700  -4628.44       -4661.7217      33.281655      3304.7265      265.16796      8147.936       1.189571       0.657286     
     47800  -4629.5517     -4662.8568      33.30512       5411.1575      265.35491      8155.0854      1.1885281      0.657286     
     47900  -4631.0167     -4664.0155      32.99881       4567.0197      262.91442      8151.1612      1.1891003      0.657286     
     48000  -4631.6266     -4664.0744      32.44776       4019.0214      258.52399      8142.032       1.1904336      0.79063785   
     48100  -4630.5106     -4664.4774      33.966823      3461.3613      270.62696      8133.0071      1.1917546      0.79063785   
     48200  -4630.5586     -4664.0444      33.485826      4227.3102      266.79467      8117.2764      1.1940641      0.79063785   
     48300  -4630.4784     -4662.9903      32.511872      5171.7583      259.0348       8091.0789      1.1979303      0.79063785   
     48400  -4630.78       -4663.5205      32.74051       1975.7761      260.85644      8060.3142      1.2025026      0.79063785   
     48500  -4630.0489     -4663.8582      33.80926       3528.187       269.37159      8029.0703      1.2071819      0.79063785   
     48600  -4628.807      -4662.5515      33.744528      4011.4611      268.85585      8006.1489      1.210638       0.79063785   
     48700  -4628.3783     -4661.7447      33.366449      7389.8518      265.84354      7995.6719      1.2122244      0.79063785   
     48800  -4627.5192     -4661.2069      33.687714      3649.5217      268.40319      7998.6683      1.2117703      0.79063785   
     48900  -4627.1937     -4661.8572      34.66343       7751.8869      276.1771       8017.5245      1.2089203      0.79063785   
     49000  -4626.7113     -4661.4325      34.7212        9164.3726      276.63737      8059.4032      1.2026385      0.76976545   
     49100  -4626.9525     -4661.456       34.503446      5348.9562      274.90244      8125.4225      1.192867       0.76976545   
     49200  -4627.8469     -4661.4227      33.57577       1979.6917      267.51129      8198.3513      1.1822558      0.76976545   
     49300  -4627.706      -4661.7899      34.083889      3588.8454      271.55967      8257.8743      1.1737341      0.76976545   
     49400  -4628.4412     -4662.1399      33.698661      5288.7244      268.49041      8287.6196      1.1695214      0.76976545   
     49500  -4628.0285     -4662.1379      34.109438      3208.3908      271.76323      8280.8268      1.1704808      0.76976545   
     49600  -4628.0675     -4661.5         33.432527      2889.3657      266.37002      8240.8881      1.1761534      0.76976545   
     49700  -4626.8304     -4660.8681      34.037666      2788.0406      271.19139      8175.3954      1.1855755      0.76976545   
     49800  -4626.6728     -4662.1489      35.476139      5692.7985      282.65227      8103.5697      1.1960838      0.76976545   
     49900  -4627.1924     -4661.3898      34.197386      7658.443       272.46394      8045.4719      1.2047209      0.76976545   
     50000  -4626.8524     -4661.4478      34.595393      7312.9131      275.63502      8008.6931      1.2102534      0.69135176   
     50100  -4626.2513     -4661.8361      35.584727      6173.3765      283.51743      7996.822       1.21205        0.69135176   
     50200  -4625.4177     -4661.1622      35.744583      6295.8208      284.79107      8009.8515      1.2100784      0.69135176   
     50300  -4625.2925     -4660.6238      35.331315      6448.0533      281.4984       8036.8438      1.2060143      0.69135176   
     50400  -4625.6565     -4660.6634      35.006853      5617.6616      278.91329      8074.1225      1.200446       0.69135176   
     50500  -4625.9302     -4661.4098      35.4796        6521.6916      282.67985      8120.1803      1.1936371      0.69135176   
     50600  -4627.9293     -4662.0094      34.080162      5030.3591      271.52998      8170.544       1.1862795      0.69135176   
     50700  -4626.9621     -4662.2026      35.240529      3202.1851      280.77507      8218.6174      1.1793405      0.69135176   
     50800  -4626.753      -4661.9526      35.199567      2370.2502      280.44872      8248.8873      1.1750128      0.69135176   
     50900  -4626.9297     -4660.7375      33.807794      3604.2474      269.35991      8249.9883      1.174856       0.69135176   
     51000  -4627.3928     -4662.0361      34.643234      4807.0707      276.01619      8218.9452      1.1792935      0.73394775   
     51100  -4627.5017     -4661.2919      33.790184      3243.9149      269.21961      8157.2966      1.188206       0.73394775   
     51200  -4626.5683     -4662.9577      36.389458      458.24344      289.92904      8085.7079      1.198726       0.73394775   
     51300  -4626.7665     -4662.2443      35.477814      4597.1245      282.66561      8025.5557      1.2077106      0.73394775   
     51400  -4626.5256     -4660.7152      34.189621      7125.14        272.40208      7987.1409      1.2135191      0.73394775   
     51500  -4626.4471     -4661.2602      34.813092      7221.1882      277.36952      7975.7848      1.215247       0.73394775   
     51600  -4627.3065     -4660.7682      33.46167       7490.4788      266.60221      7992.1443      1.2127594      0.73394775   
     51700  -4627.6926     -4662.4103      34.717707      7061.186       276.60954      8035.8078      1.2061698      0.73394775   
     51800  -4628.757      -4662.664       33.907039      4898.7899      270.15064      8094.9875      1.1973519      0.73394775   
     51900  -4629.2875     -4662.3951      33.10762       3827.6964      263.78135      8158.0546      1.1880956      0.73394775   
     52000  -4629.8765     -4663.6399      33.763387      4725.0416      269.00611      8210.0515      1.180571       0.8394394    
     52100  -4628.5082     -4662.7312      34.222985      4174.2769      272.6679       8239.2384      1.1763889      0.8394394    
     52200  -4627.3467     -4661.5136      34.166971      3611.4705      272.22162      8242.5121      1.1759217      0.8394394    
     52300  -4628.0967     -4661.6418      33.545019     -331.23479      267.26628      8220.5903      1.1790575      0.8394394    
     52400  -4626.9628     -4661.3975      34.434676      5972.9364      274.35453      8181.2871      1.1847217      0.8394394    
     52500  -4627.8728     -4662.1856      34.31286       5156.7565      273.38397      8138.0872      1.1910106      0.8394394    
     52600  -4628.4965     -4661.1484      32.651888      5737.8113      260.15036      8098.5296      1.1968282      0.8394394    
     52700  -4626.5821     -4660.1724      33.590334      7088.4004      267.62732      8061.9799      1.2022541      0.8394394    
     52800  -4626.133      -4660.3452      34.212119      6162.4321      272.58133      8037.3604      1.2059368      0.8394394    
     52900  -4626.4722     -4661.4014      34.929237      3643.4053      278.29489      8029.0499      1.207185       0.8394394    
     53000  -4625.2723     -4661.1843      35.912047      6623.3433      286.12532      8037.7999      1.2058708      0.76973699   
     53100  -4626.2694     -4661.8992      35.629784      8524.0215      283.87642      8068.0792      1.2013452      0.76973699   
     53200  -4627.2102     -4661.9233      34.71307       4363.138       276.5726       8115.3496      1.1943476      0.76973699   
     53300  -4627.9276     -4662.4379      34.510235      4323.1088      274.95654      8166.8729      1.1868127      0.76973699   
     53400  -4627.2063     -4661.0746      33.868261      4771.876       269.84168      8207.0838      1.1809979      0.76973699   
     53500  -4626.9349     -4661.0127      34.077787      5077.9993      271.51105      8227.3895      1.1780831      0.76973699   
     53600  -4627.7657     -4662.4703      34.704604      2795.749       276.50515      8224.8325      1.1784493      0.76973699   
     53700  -4627.8832     -4661.2379      33.354698      3655.0986      265.74992      8200.5532      1.1819384      0.76973699   
     53800  -4626.5644     -4661.6203      35.055957      1858.1621      279.30451      8151.7752      1.1890108      0.76973699   
     53900  -4624.8556     -4659.4868      34.631159      4167.6333      275.91998      8093.2832      1.197604       0.76973699   
     54000  -4625.9874     -4661.5412      35.553753      8022.4944      283.27065      8046.6042      1.2045514      0.82612078   
     54100  -4626.9498     -4661.8811      34.931356      7044.2174      278.31177      8021.6896      1.2082926      0.82612078   
     54200  -4627.5078     -4662.2884      34.780566      7032.1749      277.11037      8018.7127      1.2087412      0.82612078   
     54300  -4626.7676     -4662.0801      35.312578      4246.5907      281.34912      8036.2827      1.2060985      0.82612078   
     54400  -4627.9688     -4660.4724      32.503563      4712.2535      258.96859      8067.655       1.2014084      0.82612078   
     54500  -4628.224      -4662.1741      33.950037      3956.9466      270.49322      8105.3522      1.1958208      0.82612078   
     54600  -4627.552      -4661.7213      34.16933       3099.7094      272.24041      8139.8863      1.1907474      0.82612078   
     54700  -4625.8445     -4660.1506      34.306126      2054.8636      273.33032      8169.2283      1.1864705      0.82612078   
     54800  -4626.5267     -4660.4125      33.885753      4575.6071      269.98105      8190.4767      1.1833925      0.82612078   
     54900  -4627.0981     -4660.8879      33.789856      2573.7289      269.217        8197.8198      1.1823325      0.82612078   
     55000  -4627.9607     -4663.1224      35.161687      4292.7952      280.14691      8185.9035      1.1840536      0.7229038    
     55100  -4628.3927     -4662.7976      34.404919      5447.7454      274.11744      8159.3271      1.1879103      0.7229038    
[...]
   2186300  -4626.3771     -4660.5928      34.215712      8972.4091      272.60996      8152.5821      1.1888931      0.77786041   
   2186400  -4625.9358     -4659.672       33.736178      3570.8168      268.78932      8173.8974      1.1857928      0.77786041   
   2186500  -4626.0514     -4660.5065      34.455044      7964.519       274.51681      8186.8296      1.1839196      0.77786041   
   2186600  -4626.3562     -4661.6006      35.244458      6193.4656      280.80638      8187.8644      1.18377        0.77786041   
   2186700  -4626.1931     -4660.9595      34.766417      4547.5176      276.99764      8172.5328      1.1859908      0.77786041   
   2186800  -4626.6062     -4661.4877      34.881533      4527.1599      277.91481      8144.1892      1.1901183      0.77786041   
   2186900  -4626.0414     -4660.7762      34.734733      4721.5352      276.7452       8105.8572      1.1957463      0.77786041   
   2187000  -4626.0422     -4660.4358      34.393568      7582.7136      274.027        8069.1374      1.2011877      0.85517772   
   2187100  -4627.0332     -4661.1028      34.069588      4402.1968      271.44573      8047.3685      1.204437       0.85517772   
   2187200  -4628.1548     -4662.6826      34.527771      3645.2141      275.09625      8039.3187      1.205643       0.85517772   
   2187300  -4627.1922     -4661.6376      34.445442      4426.5855      274.44031      8040.6875      1.2054378      0.85517772   
   2187400  -4627.2332     -4661.8696      34.636387      6110.5727      275.96164      8045.905       1.2046561      0.85517772   
   2187500  -4627.7954     -4662.8318      35.036441      4435.8888      279.14903      8056.033       1.2031416      0.85517772   
   2187600  -4628.0173     -4662.5922      34.574843      4117.5739      275.47129      8072.6484      1.2006652      0.85517772   
   2187700  -4627.115      -4661.6197      34.504669      4695.9704      274.91219      8094.2281      1.1974642      0.85517772   
   2187800  -4627.4568     -4661.3156      33.858768      5850.0913      269.76604      8113.9928      1.1945473      0.85517772   
   2187900  -4627.2776     -4661.3793      34.101779      6213.4489      271.70221      8131.4407      1.1919841      0.85517772   
   2188000  -4626.8947     -4661.38        34.485317      4729.8349      274.75801      8141.2586      1.1905467      0.82098946   
   2188100  -4627.1185     -4661.5673      34.448833      3248.6128      274.46732      8138.7129      1.1909191      0.82098946   
   2188200  -4627.731      -4661.4419      33.710857      2401.0568      268.58758      8128.378       1.1924333      0.82098946   
   2188300  -4627.8649     -4661.1995      33.334592      4336.3435      265.58973      8115.9755      1.1942555      0.82098946   
   2188400  -4628.2753     -4661.7732      33.497886      5125.3594      266.89076      8099.1903      1.1967305      0.82098946   
   2188500  -4628.4198     -4662.67        34.250166      2742.8369      272.88446      8079.5717      1.1996364      0.82098946   
   2188600  -4628.6158     -4662.1257      33.509901      3215.6983      266.98649      8057.7761      1.2028813      0.82098946   
   2188700  -4628.0212     -4661.8236      33.80241       9597.6622      269.31702      8043.0725      1.2050803      0.82098946   
   2188800  -4627.6611     -4662.4169      34.755754      8002.2918      276.91268      8045.2781      1.20475        0.82098946   
   2188900  -4627.4343     -4663.1021      35.667768      2747.6637      284.17906      8063.8974      1.2019682      0.82098946   
   2189000  -4628.7362     -4661.196       32.459865      4010.6719      258.62043      8092.9373      1.1976552      0.80637531   
   2189100  -4629.0226     -4662.459       33.436355      3118.3678      266.40051      8115.4607      1.1943313      0.80637531   
   2189200  -4626.8749     -4660.8983      34.023401      7123.2131      271.07774      8125.247       1.1928928      0.80637531   
   2189300  -4628.5207     -4662.1015      33.580808      5797.2244      267.55143      8134.7456      1.1914999      0.80637531   
   2189400  -4626.6635     -4661.457       34.793452      3050.4846      277.21303      8143.8115      1.1901735      0.80637531   
   2189500  -4627.5245     -4662.4793      34.954828      5433.2755      278.49878      8147.6509      1.1896126      0.80637531   
   2189600  -4628.0901     -4660.8601      32.770008      3738.6848      261.09147      8139.0964      1.190863       0.80637531   
   2189700  -4627.8838     -4661.6275      33.7437        7316.4485      268.84925      8118.2649      1.1939187      0.80637531   
   2189800  -4626.9662     -4662.5447      35.578526      4517.7899      283.46803      8094.7414      1.1973883      0.80637531   
   2189900  -4625.8048     -4661.0363      35.231487      8058.358       280.70303      8076.6178      1.2000752      0.80637531   
   2190000  -4627.726      -4661.4809      33.754873      2103.9154      268.93827      8064.6606      1.2018545      0.84827759   
   2190100  -4627.3068     -4661.9497      34.642874      5160.8045      276.01332      8057.4545      1.2029293      0.84827759   
   2190200  -4626.818      -4661.2311      34.413112      6032.9588      274.18272      8058.4984      1.2027735      0.84827759   
   2190300  -4625.3271     -4660.9688      35.641627      7101.5766      283.97078      8070.7872      1.2009421      0.84827759   
   2190400  -4625.6303     -4660.9424      35.312023      7044.7856      281.34469      8093.4867      1.1975739      0.84827759   
   2190500  -4625.7289     -4660.5167      34.787854      6187.9967      277.16843      8122.6102      1.19328        0.84827759   
   2190600  -4626.1724     -4661.7296      35.557199      2204.9496      283.29811      8147.4136      1.1896473      0.84827759   
   2190700  -4627.9568     -4662.1146      34.157801      2124.75        272.14855      8153.7008      1.18873        0.84827759   
   2190800  -4627.637      -4661.0233      33.386281      5568.0512      266.00155      8132.3939      1.1918444      0.84827759   
   2190900  -4628.3529     -4662.1359      33.782983      4605.0459      269.16223      8094.3439      1.1974471      0.84827759   
   2191000  -4628.0096     -4661.1462      33.136618      3278.3597      264.01239      8058.1195      1.2028301      0.78584111   
   2191100  -4627.0045     -4661.8438      34.839261      5706.3887      277.57802      8034.6758      1.2063397      0.78584111   
   2191200  -4627.498      -4662.404       34.906061      6183.0016      278.11024      8025.8714      1.2076631      0.78584111   
   2191300  -4627.8184     -4661.8024      33.983999      9306.3008      270.76381      8027.9937      1.2073438      0.78584111   
   2191400  -4627.1957     -4662.5106      35.314947      1717.6591      281.36799      8041.1739      1.2053649      0.78584111   
   2191500  -4627.4558     -4661.858       34.402212      5557.5082      274.09588      8058.5816      1.2027611      0.78584111   
   2191600  -4626.8286     -4660.9895      34.160912      3200.0198      272.17334      8081.8505      1.1992982      0.78584111   
   2191700  -4627.0344     -4661.7322      34.697869      3082.1007      276.45149      8112.919       1.1947054      0.78584111   
   2191800  -4627.1021     -4660.4859      33.38375       1777.5678      265.98139      8145.3663      1.1899463      0.78584111   
   2191900  -4627.179      -4661.1109      33.931935      4887.1998      270.34899      8169.9845      1.1863607      0.78584111   
   2192000  -4627.7912     -4662.6766      34.885376      2883.7428      277.94543      8182.5055      1.1845453      0.72328013   
   2192100  -4628.6545     -4661.8766      33.222115      6853.4209      264.69358      8176.9585      1.1853489      0.72328013   
   2192200  -4628.751      -4662.3569      33.605974      3505.9447      267.75194      8155.4236      1.1884788      0.72328013   
   2192300  -4628.1315     -4661.9304      33.79891       3983.3679      269.28913      8122.8393      1.1932464      0.72328013   
   2192400  -4627.8479     -4662.3526      34.504715      5476.1786      274.91256      8087.4169      1.1984727      0.72328013   
   2192500  -4628.4018     -4662.7068      34.305037      5117.8504      273.32165      8059.0156      1.2026963      0.72328013   
   2192600  -4629.1105     -4662.8388      33.728301      8249.1742      268.72656      8041.4977      1.2053163      0.72328013   
   2192700  -4629.1586     -4663.4336      34.274969      8273.056       273.08208      8037.0292      1.2059865      0.72328013   
   2192800  -4627.4821     -4663.1426      35.660494      4135.9198      284.1211       8049.2683      1.2041527      0.72328013   
   2192900  -4626.7073     -4661.8916      35.184345      6353.8954      280.32744      8072.5315      1.2006826      0.72328013   
   2193000  -4628.0813     -4662.0083      33.927014      3042.2639      270.30979      8101.8439      1.1963386      0.80640148   
   2193100  -4628.0873     -4661.0879      33.000614      4629.4324      262.92879      8123.8208      1.1931022      0.80640148   
   2193200  -4628.2119     -4662.7511      34.539142      6068.5799      275.18685      8136.8078      1.1911979      0.80640148   
   2193300  -4629.5499     -4662.9833      33.433374      5045.675       266.37676      8137.7003      1.1910673      0.80640148   
   2193400  -4630.0205     -4663.3696      33.349171      3321.6302      265.70589      8127.3741      1.1925806      0.80640148   
   2193500  -4630.5541     -4663.2928      32.738642      720.76477      260.84156      8108.755       1.1953189      0.80640148   
   2193600  -4630.3847     -4664.1088      33.724083      5250.2271      268.69295      8084.3593      1.198926       0.80640148   
   2193700  -4629.6335     -4663.0338      33.400369      4375.2488      266.1138       8061.4243      1.202337       0.80640148   
   2193800  -4629.6013     -4662.7277      33.126459      10519.9        263.93145      8047.2809      1.2044501      0.80640148   
   2193900  -4630.4265     -4663.3778      32.95131       5684.7023      262.53597      8044.4868      1.2048685      0.80640148   
   2194000  -4627.9519     -4661.658       33.706102      5389.5274      268.54969      8049.1061      1.204177       0.67752288   
   2194100  -4627.8584     -4661.7675      33.909121      4119.1242      270.16722      8060.9276      1.2024111      0.67752288   
   2194200  -4627.7101     -4661.41        33.699932      6271.3175      268.50053      8080.903       1.1994388      0.67752288   
   2194300  -4627.3723     -4662.0712      34.698874      6160.7608      276.4595       8106.6723      1.195626       0.67752288   
   2194400  -4627.1434     -4660.7567      33.613232      3695.949       267.80976      8130.5854      1.1921095      0.67752288   
   2194500  -4627.851      -4662.2074      34.356378      4491.7335      273.7307       8145.963       1.1898591      0.67752288   
   2194600  -4627.5153     -4660.3231      32.80779       5319.24        261.39249      8149.9003      1.1892843      0.67752288   
   2194700  -4627.6624     -4661.9072      34.244742      4591.503       272.84125      8142.7365      1.1903306      0.67752288   
   2194800  -4627.0482     -4661.2129      34.164689     -135.91968      272.20344      8124.2571      1.1930381      0.67752288   
   2194900  -4627.2636     -4661.9565      34.692931      7117.7713      276.41215      8103.6207      1.1960763      0.67752288   
   2195000  -4627.3154     -4661.4659      34.150475      2169.1396      272.09019      8084.6647      1.1988807      0.75309047   
   2195100  -4627.154      -4661.4334      34.2794        5773.2847      273.11738      8068.0649      1.2013474      0.75309047   
   2195200  -4626.8778     -4661.7552      34.877422      3655.0968      277.88206      8058.4202      1.2027852      0.75309047   
   2195300  -4627.2526     -4661.4925      34.239922      2910.7339      272.80285      8057.9774      1.2028513      0.75309047   
   2195400  -4627.2621     -4663.1464      35.884291      2697.9452      285.90418      8067.9936      1.201358       0.75309047   
   2195500  -4626.9948     -4662.3008      35.305969      11482.489      281.29646      8086.0221      1.1986794      0.75309047   
   2195600  -4627.583      -4661.0317      33.448727      6654.03        266.49909      8116.6126      1.1941618      0.75309047   
   2195700  -4627.8519     -4661.9091      34.057234      3469.8322      271.3473       8153.6708      1.1887343      0.75309047   
   2195800  -4628.6164     -4662.8304      34.213955      3906.5963      272.59596      8177.9507      1.185205       0.75309047   
   2195900  -4628.4857     -4662.2644      33.778644      6397.7637      269.12767      8183.7094      1.184371       0.75309047   
   2196000  -4627.7816     -4662.1961      34.414526      5246.5376      274.19399      8176.0913      1.1854746      0.71139584   
   2196100  -4628.1468     -4662.5414      34.394623      2455.636       274.03541      8149.8581      1.1892904      0.71139584   
   2196200  -4627.3776     -4661.7508      34.373174      5579.838       273.86452      8105.5232      1.1957955      0.71139584   
   2196300  -4626.4068     -4660.4416      34.034789      3790.416       271.16847      8055.8997      1.2031615      0.71139584   
   2196400  -4625.4925     -4660.8828      35.390363      8290.8988      281.96886      8013.3556      1.2095493      0.71139584   
   2196500  -4625.09       -4660.6137      35.523695      7746.2632      283.03117      7986.5227      1.2136131      0.71139584   
   2196600  -4625.3851     -4661.6372      36.252155      6537.7395      288.8351       7986.8113      1.2135692      0.71139584   
   2196700  -4625.0798     -4659.6862      34.606352      4060.9284      275.72233      8019.7827      1.2085799      0.71139584   
   2196800  -4625.076      -4660.4092      35.333252      9402.0363      281.51383      8082.3542      1.1992234      0.71139584   
   2196900  -4626.0562     -4661.0323      34.976167      3893.9869      278.6688       8154.5695      1.1886033      0.71139584   
   2197000  -4626.0048     -4660.7185      34.713684      1883.7694      276.57749      8211.0024      1.1804342      0.89939684   
   2197100  -4626.3577     -4661.0457      34.687974      3284.3909      276.37265      8241.5699      1.1760561      0.89939684   
   2197200  -4626.8015     -4661.0561      34.254549      5096.7795      272.91938      8241.6949      1.1760382      0.89939684   
   2197300  -4627.3719     -4660.7638      33.391904      123.53768      266.04636      8215.8254      1.1797413      0.89939684   
   2197400  -4627.8593     -4662.3956      34.536353      4713.4147      275.16463      8171.9035      1.1860821      0.89939684   
   2197500  -4626.7997     -4661.0202      34.220478      6786.201       272.64793      8118.8386      1.1938344      0.89939684   
   2197600  -4626.2766     -4661.4249      35.148268      5836.2216      280.03999      8071.5412      1.2008299      0.89939684   
   2197700  -4627.4718     -4663.2909      35.819118      5181.0589      285.38492      8038.6259      1.2057469      0.89939684   
   2197800  -4627.7633     -4661.4943      33.730949      8519.5197      268.74766      8018.6331      1.2087532      0.89939684   
   2197900  -4628.6075     -4661.7951      33.187607      5022.7433      264.41864      8010.72        1.2099472      0.89939684   
   2198000  -4628.184      -4662.0125      33.828491      6836.6262      269.52481      8016.1289      1.2091308      0.70349851   
   2198100  -4628.7534     -4662.8083      34.054991      5167.1844      271.32943      8031.7573      1.206778       0.70349851   
   2198200  -4627.4507     -4662.3543      34.903599      7905.4501      278.09062      8058.0783      1.2028362      0.70349851   
   2198300  -4627.8516     -4661.3811      33.529503      6719.8666      267.14266      8101.063       1.1964539      0.70349851   
   2198400  -4629.0989     -4662.9963      33.897379      6455.8992      270.07367      8142.1116      1.190422       0.70349851   
   2198500  -4627.638      -4660.7651      33.127085      34.953901      263.93644      8168.0758      1.1866379      0.70349851   
   2198600  -4626.5667     -4662.4052      35.838509      4496.8299      285.53942      8178.0773      1.1851867      0.70349851   
   2198700  -4626.4849     -4660.4865      34.001574      6748.3106      270.90384      8172.0704      1.1860579      0.70349851   
   2198800  -4626.749      -4661.5189      34.769912      3276.7821      277.02548      8156.9536      1.1882559      0.70349851   
   2198900  -4627.5786     -4660.499       32.92043       3033.5746      262.28994      8138.8177      1.1909037      0.70349851   
   2199000  -4628.6812     -4662.06        33.378803      4069.533       265.94198      8114.5571      1.1944643      0.6609012    
   2199100  -4627.2651     -4661.5666      34.301569      5503.3574      273.29401      8080.716       1.1994665      0.6609012    
   2199200  -4626.9887     -4662.1912      35.202513      7304.2782      280.47219      8046.5678      1.2045569      0.6609012    
   2199300  -4628.5605     -4663.2948      34.734274      6122.5136      276.74154      8026.7098      1.2075369      0.6609012    
   2199400  -4628.4482     -4661.9228      33.474611      5493.6364      266.70532      8028.9748      1.2071963      0.6609012    
   2199500  -4629.4944     -4663.9091      34.414684      5239.6534      274.19525      8050.0858      1.2040304      0.6609012    
   2199600  -4628.1838     -4661.5441      33.360324      5586.1303      265.79474      8084.1716      1.1989538      0.6609012    
   2199700  -4629.184      -4661.9426      32.758599      3979.9538      261.00057      8124.5294      1.1929981      0.6609012    
   2199800  -4629.2605     -4662.2784      33.017958      3292.1921      263.06698      8151.8704      1.1889969      0.6609012    
   2199900  -4627.1902     -4661.7624      34.572151      5303.2323      275.44984      8163.5171      1.1873006      0.6609012    
   2200000  -4626.3052     -4661.2252      34.920004      6229.8916      278.22133      8166.9532      1.186801       0.73218536   
   2200100  -4625.7722     -4661.0171      35.244827      4892.6502      280.80932      8161.9418      1.1875297      0.73218536   
   2200200  -4626.7652     -4661.0016      34.236373      4533.2113      272.77457      8149.5462      1.189336       0.73218536   
   2200300  -4626.9283     -4661.4711      34.542783      4778.2589      275.21586      8130.2499      1.1921587      0.73218536   
   2200344  -4626.5779     -4661.3355      34.757576      5456.9402      276.9272       8120.8641      1.1935366      0.73218536   
Loop time of 6786.7 on 1 procs for 2000000 steps with 972 atoms

Performance: 12.731 ns/day, 1.885 hours/ns, 294.694 timesteps/s, 286.443 katom-step/s
99.8% CPU use with 1 MPI tasks x 1 OpenMP threads

MPI task timing breakdown:
Section |  min time  |  avg time  |  max time  |%varavg| %total
---------------------------------------------------------------
Pair    | 4776.6     | 4776.6     | 4776.6     |   0.0 | 70.38
Neigh   | 66.644     | 66.644     | 66.644     |   0.0 |  0.98
Comm    | 91.846     | 91.846     | 91.846     |   0.0 |  1.35
Output  | 4.638      | 4.638      | 4.638      |   0.0 |  0.07
Modify  | 1799.6     | 1799.6     | 1799.6     |   0.0 | 26.52
Other   |            | 47.33      |            |       |  0.70

Nlocal:            972 ave         972 max         972 min
Histogram: 1 0 0 0 0 0 0 0 0 0
Nghost:           3368 ave        3368 max        3368 min
Histogram: 1 0 0 0 0 0 0 0 0 0
Neighs:              0 ave           0 max           0 min
Histogram: 1 0 0 0 0 0 0 0 0 0
FullNghs:       131180 ave      131180 max      131180 min
Histogram: 1 0 0 0 0 0 0 0 0 0

Total # of neighbors = 131180
Ave neighs/atom = 134.95885
Neighbor list builds = 198109
Dangerous builds = 188655

unfix		3
unfix		4
Total wall time: 2:04:30
