LAMMPS (27 Jun 2024)
KOKKOS mode with Kokkos version 4.3.1 is enabled (src/KOKKOS/kokkos.cpp:72)
  will use up to 1 GPU(s) per node
WARNING: When using a single thread, the Kokkos Serial backend (i.e. Makefile.kokkos_mpi_only) gives better performance than the OpenMP backend (src/KOKKOS/kokkos.cpp:202)
  using 1 OpenMP thread(s) per MPI task
Reading data file ...
  orthogonal box = (0 0 0) to (20.13213 20.132272 35.107669)
  1 by 1 by 1 MPI processor grid
  reading atoms ...
  2160 atoms
  read_data CPU = 0.010 seconds
ACE/AL version: 2023.11.25
Loading /pc2/users/a/acepdw01/work/phase_diagram/pot_dir/interim_potential_ladder_step_1.yaml
Total number of basis functions
	H: 23 (r=1) 664 (r>1)
	O: 23 (r=1) 664 (r>1)
Mapping LAMMPS atom type #1(H) -> ACE species type #0
Mapping LAMMPS atom type #2(O) -> ACE species type #1
Loading ASI /pc2/users/a/acepdw01/work/phase_diagram/pot_dir/interim_potential_ladder_step_1.asi
LINEAR ASI is loaded

CITE-CITE-CITE-CITE-CITE-CITE-CITE-CITE-CITE-CITE-CITE-CITE-CITE

Your simulation uses code contributions which should be cited:
- Type Label Framework: https://doi.org/10.1021/acs.jpcb.3c08419
The log file lists these citations in BibTeX format.

CITE-CITE-CITE-CITE-CITE-CITE-CITE-CITE-CITE-CITE-CITE-CITE-CITE

Switching to 'neigh_modify every 1 delay 0 check yes' setting during minimization
Neighbor list info ...
  update: every = 1 steps, delay = 0 steps, check = yes
  max neighbors/atom: 2000, page size: 100000
  master list distance cutoff = 6.5
  ghost atom cutoff = 6.5
  binsize = 6.5, bins = 4 4 6
  1 neighbor lists, perpetual/occasional/extra = 1 0 0
  (1) pair pace/extrapolation/kk, perpetual
      attributes: full, newton on, kokkos_device
      pair build: full/bin/kk/device
      stencil: full/bin/3d
      bin: kk/device
Setting up cg/kk style minimization ...
  Unit style    : metal
  Current step  : 0
WARNING: Fix with atom-based arrays not compatible with sending data in Kokkos communication, switching to classic exchange/border communication (src/KOKKOS/comm_kokkos.cpp:754)
WARNING: Fix with atom-based arrays not compatible with Kokkos sorting on device, switching to classic host sorting (src/KOKKOS/atom_kokkos.cpp:216)
Per MPI rank memory allocation (min/avg/max) = 1808 | 1808 | 1808 Mbytes
   Step         TotEng         PotEng         KinEng         Press           Temp          Volume        Density     c_max_pace_gamma
         0  -10394.812     -10394.812      0              10356.492      0              14229.332      1.513704       0.94301683   
       100  -10405.399     -10405.399      0              6153.7788      0              14229.332      1.513704       0.94301683   
       200  -10407.585     -10407.585      0              6517.8061      0              14229.332      1.513704       0.94301683   
       300  -10408.546     -10408.546      0              6308.0683      0              14229.332      1.513704       0.94301683   
       400  -10408.808     -10408.808      0              6401.059       0              14229.332      1.513704       0.94301683   
       500  -10408.847     -10408.847      0              6350.2493      0              14229.332      1.513704       0.94301683   
       600  -10408.847     -10408.847      0              6348.2198      0              14229.332      1.513704       0.94301683   
       700  -10408.848     -10408.848      0              6349.9131      0              14229.332      1.513704       0.94301683   
       800  -10408.849     -10408.849      0              6350.9287      0              14229.332      1.513704       0.94301683   
       900  -10408.849     -10408.849      0              6350.9495      0              14229.332      1.513704       0.94301683   
       912  -10408.849     -10408.849      0              6350.8971      0              14229.332      1.513704       0.94301683   
Loop time of 8.8749 on 1 procs for 912 steps with 2160 atoms

99.8% CPU use with 1 MPI tasks x 1 OpenMP threads

Minimization stats:
  Stopping criterion = force tolerance
  Energy initial, next-to-last, final = 
     -10394.8116753497  -10408.8486802893  -10408.8486802961
  Force two-norm initial, final = 17.431636 0.00048399903
  Force max component initial, final = 3.1552255 0.00019317303
  Final line search alpha, max atom move = 1 0.00019317303
  Iterations, force evaluations = 912 1820

MPI task timing breakdown:
Section |  min time  |  avg time  |  max time  |%varavg| %total
---------------------------------------------------------------
Pair    | 8.1637     | 8.1637     | 8.1637     |   0.0 | 91.99
Neigh   | 0.022879   | 0.022879   | 0.022879   |   0.0 |  0.26
Comm    | 0.057117   | 0.057117   | 0.057117   |   0.0 |  0.64
Output  | 0.001284   | 0.001284   | 0.001284   |   0.0 |  0.01
Modify  | 0.39146    | 0.39146    | 0.39146    |   0.0 |  4.41
Other   |            | 0.2384     |            |       |  2.69

Nlocal:           2160 ave        2160 max        2160 min
Histogram: 1 0 0 0 0 0 0 0 0 0
Nghost:           5971 ave        5971 max        5971 min
Histogram: 1 0 0 0 0 0 0 0 0 0
Neighs:              0 ave           0 max           0 min
Histogram: 1 0 0 0 0 0 0 0 0 0
FullNghs:       373382 ave      373382 max      373382 min
Histogram: 1 0 0 0 0 0 0 0 0 0

Total # of neighbors = 373382
Ave neighs/atom = 172.86204
Neighbor list builds = 51
Dangerous builds = 0
Setting up Verlet run ...
  Unit style    : metal
  Current step  : 912
  Time step     : 0.0005
WARNING: Fix with atom-based arrays not compatible with Kokkos sorting on device, switching to classic host sorting (src/KOKKOS/atom_kokkos.cpp:216)
Per MPI rank memory allocation (min/avg/max) = 1810 | 1810 | 1810 Mbytes
   Step         TotEng         PotEng         KinEng         Press           Temp          Volume        Density     c_max_pace_gamma
       912  -10277.685     -10408.849      131.16415      16196.668      470            14229.332      1.513704       0.94301683   
      1000  -10254.86      -10317.257      62.397294      20350.325      223.58799      14181.503      1.5188091      0.76275732   
      1100  -10226.551     -10314.483      87.932067      24932.499      315.08665      14083.813      1.5293441      0.76275732   
      1200  -10205.335     -10303.731      98.39604       28917.892      352.58216      13975.059      1.5412454      0.76275732   
      1300  -10188.689     -10292.844      104.15479      33886.717      373.21745      13891.252      1.550544       0.76275732   
      1400  -10181.059     -10289.889      108.82966      35267.891      389.96891      13862.046      1.5538108      0.76275732   
      1500  -10172.53      -10288.355      115.82462      33477.104      415.03394      13891.285      1.5505402      0.76275732   
      1600  -10161.887     -10281.342      119.45529      36151.591      428.0437       13973.764      1.5413884      0.76275732   
      1700  -10161.384     -10281.13       119.74603      32771.372      429.0855       14097.793      1.5278275      0.76275732   
      1800  -10158.954     -10279.439      120.48566      29274.607      431.7358       14235.427      1.5130558      0.76275732   
      1900  -10157.033     -10277.881      120.84821      28244.137      433.03495      14356.366      1.5003098      0.76275732   
      2000  -10155.071     -10275.502      120.43085      28867.724      431.53942      14438.67       1.4917576      0.89046179   
      2100  -10149.843     -10272.81       122.96784      27541.617      440.63022      14478.749      1.4876283      0.89046179   
      2200  -10149.982     -10275.814      125.83207      24601.027      450.8936       14483.74       1.4871156      0.89046179   
      2300  -10144.059     -10270.803      126.74409      25135.993      454.16163      14456.251      1.4899435      0.89046179   
      2400  -10141.649     -10267.88       126.23087      28971.288      452.3226       14410.502      1.4946735      0.89046179   
      2500  -10138.675     -10270.141      131.46536      28917.252      471.07933      14359.299      1.5000034      0.89046179   
      2600  -10138.666     -10267.535      128.86909      29134.613      461.77612      14311.194      1.5050454      0.89046179   
      2700  -10137.141     -10268.15       131.00889      28898.352      469.44368      14276.86       1.5086648      0.89046179   
      2800  -10139.357     -10266.846      127.48836      28109.855      456.82855      14260.013      1.5104471      0.89046179   
      2900  -10139.778     -10268.106      128.3278       31818.293      459.83653      14264.276      1.5099958      0.89046179   
      3000  -10140.508     -10268.488      127.98002      31120.823      458.59032      14282.054      1.5081161      0.96340695   
      3100  -10140.808     -10269.239      128.43134      29992.88       460.20755      14307.319      1.505453       0.96340695   
      3200  -10140.498     -10270.559      130.06159      29765.362      466.04923      14337.89       1.5022431      0.96340695   
      3300  -10143.669     -10273.082      129.4131       30407.934      463.72549      14362.755      1.4996425      0.96340695   
      3400  -10141.196     -10270.03       128.83379      32407.94       461.64964      14378.938      1.4979546      0.96340695   
      3500  -10141.376     -10273.853      132.47693      27949.738      474.70409      14384.993      1.4973241      0.96340695   
      3600  -10139.416     -10268.305      128.88945      30413.585      461.84909      14377.705      1.4980831      0.96340695   
      3700  -10138.181     -10266.587      128.40552      26721.425      460.115        14369.472      1.4989414      0.96340695   
      3800  -10138.758     -10270.14       131.38188      30484.825      470.78021      14358.311      1.5001065      0.96340695   
      3900  -10137.524     -10267.04       129.51596      29263.314      464.09405      14342.357      1.5017753      0.96340695   
      4000  -10135.897     -10269.587      133.68961      30786.608      479.04949      14327.72       1.5033094      0.76517748   
      4100  -10137.765     -10268.901      131.13658      33818.764      469.90122      14319.622      1.5041595      0.76517748   
      4200  -10135.948     -10268.622      132.674        33986.499      475.41024      14322.702      1.5038361      0.76517748   
      4300  -10137.832     -10269.338      131.50602      30879.377      471.22502      14337.266      1.5023085      0.76517748   
      4400  -10135.357     -10267.358      132.00084      29264.667      472.99811      14356.282      1.5003186      0.76517748   
      4500  -10135.205     -10264.956      129.75071      30388.738      464.93522      14383.139      1.4975171      0.76517748   
      4600  -10133.883     -10265.489      131.60645      29831.26       471.5849       14413.48       1.4943648      0.76517748   
      4700  -10131.436     -10264.261      132.82548      28903.006      475.95306      14441.044      1.4915124      0.76517748   
      4800  -10134.623     -10263.605      128.98262      29263.279      462.18295      14460.904      1.489464       0.76517748   
      4900  -10136.591     -10268.682      132.0911       29239.256      473.32156      14469.321      1.4885976      0.76517748   
      5000  -10135.72      -10266.809      131.08978      29297.365      469.73352      14461.008      1.4894534      0.82977067   
      5100  -10138.076     -10269.897      131.82111      27055.351      472.35409      14437.768      1.4918508      0.82977067   
      5200  -10137.072     -10266.808      129.73586      32705.967      464.88201      14400.534      1.4957082      0.82977067   
      5300  -10134.698     -10264.697      129.99915      29910.874      465.82548      14358.864      1.5000488      0.82977067   
      5400  -10136.476     -10267.038      130.56268      27065.496      467.84477      14322.019      1.5039078      0.82977067   
      5500  -10136.581     -10265.645      129.06443      30939.258      462.47609      14292.684      1.5069945      0.82977067   
      5600  -10136.168     -10266.493      130.32505      30258.69       466.99328      14278.034      1.5085407      0.82977067   
      5700  -10135.182     -10266.933      131.75139      30089.8        472.10427      14278.47       1.5084947      0.82977067   
      5800  -10130.442     -10263.848      133.40529      32293.15       478.03068      14295.843      1.5066615      0.82977067   
      5900  -10133.136     -10263.349      130.21307      30459.948      466.59201      14331.611      1.5029012      0.82977067   
      6000  -10131.819     -10266.806      134.98661      28552.451      483.69702      14379.358      1.4979108      0.80101646   
      6100  -10132.641     -10265.117      132.47679      26611.094      474.70358      14429.981      1.492656       0.80101646   
      6200  -10132.925     -10268.675      135.75064      28246.737      486.43477      14473.788      1.4881382      0.80101646   
      6300  -10133.201     -10268.007      134.80662      26353.393      483.05205      14504.953      1.4849408      0.80101646   
      6400  -10135.215     -10266.926      131.71158      25210.526      471.96163      14517.959      1.4836105      0.80101646   
      6500  -10132.409     -10264.874      132.46499      26393.935      474.66131      14509.566      1.4844687      0.80101646   
      6600  -10135.823     -10265.298      129.47445      29174.318      463.94531      14481.076      1.4873892      0.80101646   
      6700  -10138.735     -10269.835      131.10024      29623.273      469.77099      14436.744      1.4919567      0.80101646   
      6800  -10137.776     -10268.689      130.91228      26937.445      469.09748      14376.416      1.4982174      0.80101646   
      6900  -10136.676     -10267.386      130.71002      26520.851      468.37271      14315.7        1.5045716      0.80101646   
      7000  -10137.571     -10266.713      129.14212      30457.868      462.75448      14265.86       1.5098281      0.90953514   
      7100  -10139.059     -10269.469      130.4099       30490.706      467.2973       14229.98       1.513635       0.90953514   
      7200  -10136.257     -10268.444      132.18635      28150.141      473.66286      14208.772      1.5158943      0.90953514   
      7300  -10140.312     -10269.521      129.20938      30155.555      462.99549      14205.433      1.5162506      0.90953514   
      7400  -10144.134     -10273.23       129.09614      29918.791      462.58971      14225.141      1.51415        0.90953514   
      7500  -10143.43      -10268.491      125.06078      30931.644      448.12984      14261.352      1.5103054      0.90953514   
      7600  -10141.618     -10272.652      131.0339       30225.205      469.53329      14309.648      1.505208       0.90953514   
      7700  -10142.627     -10271.853      129.22613      31872.724      463.05553      14361.853      1.4997366      0.90953514   
      7800  -10142.583     -10272.275      129.69185      27626.762      464.72431      14408.376      1.4948941      0.90953514   
      7900  -10142.248     -10271.071      128.82338      28205.108      461.61234      14439.81       1.4916398      0.90953514   
      8000  -10140.372     -10269.948      129.57653      24986.139      464.31109      14448.779      1.4907139      0.7824817    
      8100  -10141.683     -10267.645      125.9613       26191.294      451.35667      14433.682      1.4922732      0.7824817    
      8200  -10136.649     -10266.638      129.98873      30283.587      465.78814      14400.919      1.4956681      0.7824817    
      8300  -10135.704     -10272.809      137.10498      27711.814      491.28778      14358.846      1.5000507      0.7824817    
      8400  -10133.783     -10267.526      133.7433       29749.81       479.24186      14307.435      1.5054408      0.7824817    
      8500  -10138.34      -10269.855      131.51503      31210.734      471.25732      14259.086      1.5105454      0.7824817    
      8600  -10139.42      -10273.725      134.30587      32814.595      481.25772      14221.384      1.5145499      0.7824817    
      8700  -10140.203     -10273.228      133.02501      31671.906      476.66801      14193.772      1.5174963      0.7824817    
      8800  -10139.115     -10272.208      133.09231      29959.822      476.90918      14181.398      1.5188204      0.7824817    
      8900  -10140.191     -10272.241      132.05057      29883.29       473.17633      14185.661      1.518364       0.7824817    
      9000  -10143.991     -10273.959      129.96743      28936.73       465.71183      14201.135      1.5167095      0.83640018   
      9100  -10143.212     -10273.55       130.33835      31499.311      467.04094      14223.836      1.5142889      0.83640018   
      9200  -10140.419     -10270.992      130.57273      34099.497      467.88079      14248.787      1.5116372      0.83640018   
      9300  -10139.98      -10271.716      131.73523      30381.983      472.04634      14271.593      1.5092216      0.83640018   
      9400  -10140.446     -10271.015      130.56884      29787.364      467.86686      14283.445      1.5079693      0.83640018   
      9500  -10141.261     -10272.274      131.01312      29871.966      469.45881      14285.607      1.5077411      0.83640018   
      9600  -10141.518     -10273.533      132.01483      26323.976      473.04826      14278.671      1.5084735      0.83640018   
      9700  -10142.393     -10274.474      132.08115      31747.104      473.28589      14263.54       1.5100736      0.83640018   
      9800  -10140.079     -10272.756      132.67722      29687.438      475.42179      14246.369      1.5118938      0.83640018   
      9900  -10137.898     -10266.752      128.85428      30915.307      461.72305      14227.794      1.5138676      0.83640018   
     10000  -10138.851     -10272.153      133.30183      28773.363      477.65997      14210.773      1.5156809      0.88585892   
     10100  -10137.57      -10270.4        132.82938      26802.723      475.96702      14194.402      1.517429       0.88585892   
     10200  -10142.266     -10272.372      130.1069       27332.323      466.21156      14180.157      1.5189533      0.88585892   
     10300  -10145.7       -10273.699      127.99881      30451.826      458.65764      14164.863      1.5205934      0.88585892   
     10400  -10144.205     -10273.63       129.42519      31220.966      463.7688       14145.994      1.5226216      0.88585892   
     10500  -10144.757     -10276.22       131.46338      31281.803      471.07225      14128.993      1.5244538      0.88585892   
     10600  -10144.164     -10272.845      128.68112      27974.413      461.10258      14116.093      1.5258469      0.88585892   
     10700  -10144.867     -10271.866      126.99899      29150.042      455.07502      14116.682      1.5257832      0.88585892   
     10800  -10144.251     -10275.094      130.84252      31556.505      468.84751      14132.754      1.5240481      0.88585892   
     10900  -10145.183     -10278.51       133.32702      34000.807      477.7502       14158.73       1.521252       0.88585892   
     11000  -10144.234     -10274.372      130.13815      29117.851      466.32355      14183.214      1.518626       0.90340933   
     11100  -10147.16      -10277.89       130.73004      26178.292      468.44446      14200.301      1.5167986      0.90340933   
     11200  -10146.498     -10277.125      130.62629      26221.591      468.07269      14206.565      1.5161298      0.90340933   
     11300  -10147.882     -10277.387      129.50538      28107.691      464.05614      14201.991      1.516618       0.90340933   
     11400  -10144.339     -10274.024      129.68588      29261.932      464.70291      14186.992      1.5182215      0.90340933   
     11500  -10143.245     -10274.128      130.88343      31405.831      468.99409      14165.621      1.520512       0.90340933   
     11600  -10143.711     -10274.837      131.1257       30439.591      469.86222      14139.533      1.5233174      0.90340933   
     11700  -10140.22      -10274.588      134.36804      30659.923      481.48049      14111.493      1.5263443      0.90340933   
     11800  -10143.492     -10274.929      131.43751      31891.912      470.97955      14085.598      1.5291503      0.90340933   
     11900  -10144.806     -10276.346      131.54047      32475.432      471.34849      14063.887      1.5315109      0.90340933   
     12000  -10146.907     -10276.08       129.17254      32757.379      462.86347      14050.657      1.532953       0.78537098   
     12100  -10148.82      -10279.426      130.60614      32519.09       468.00049      14048.814      1.5331541      0.78537098   
     12200  -10150.564     -10277.022      126.45825      28691.293      453.13738      14051.997      1.5328068      0.78537098   
     12300  -10151.474     -10276.502      125.02761      28312.028      448.01098      14060.232      1.531909       0.78537098   
     12400  -10155.142     -10282.969      127.82686      30628.309      458.04153      14071.092      1.5307267      0.78537098   
     12500  -10155.296     -10285.023      129.72663      25545.62       464.84894      14073.4        1.5304757      0.78537098   
     12600  -10153.968     -10278.262      124.29449      28650.026      445.384        14058.455      1.5321027      0.78537098   
     12700  -10148.84      -10282.266      133.42603      31394.912      478.105        14036.726      1.5344743      0.78537098   
     12800  -10146.454     -10276.699      130.24538      34520.417      466.7078       14018.391      1.5364814      0.78537098   
     12900  -10146.663     -10279.269      132.60522      32762.202      475.1638       14013.436      1.5370246      0.78537098   
     13000  -10146.385     -10276.857      130.47184      25891.363      467.51925      14020.014      1.5363035      0.90254056   
     13100  -10146.165     -10275.251      129.08605      28561.486      462.55356      14032.274      1.5349613      0.90254056   
     13200  -10145.295     -10276.988      131.69305      31511.567      471.89521      14053.482      1.5326448      0.90254056   
     13300  -10145.593     -10278.306      132.71242      30755.948      475.54793      14079.629      1.5297986      0.90254056   
     13400  -10144.152     -10274.573      130.42096      31644.331      467.33696      14108.445      1.526674       0.90254056   
     13500  -10145.998     -10272.499      126.50039      29680.386      453.28839      14138.246      1.5234561      0.90254056   
     13600  -10146.216     -10278.885      132.66989      28270.971      475.39551      14163.142      1.5207781      0.90254056   
     13700  -10148.092     -10276.306      128.21375      28454.836      459.42784      14174.898      1.5195168      0.90254056   
     13800  -10148.219     -10276.584      128.36506      28268.854      459.97004      14170.766      1.51996        0.90254056   
     13900  -10151.197     -10280.002      128.80477      27897.12       461.54566      14147.399      1.5224704      0.90254056   
     14000  -10147.474     -10277.081      129.60767      29127.242      464.42269      14105.02       1.5270447      0.85257879   
     14100  -10146.073     -10274.923      128.84956      31330.891      461.70616      14055.49       1.5324258      0.85257879   
     14200  -10143.695     -10277.316      133.62134      27419.955      478.80486      14012.531      1.537124       0.85257879   
     14300  -10143.286     -10274.135      130.84937      32179.197      468.87205      13981.203      1.5405682      0.85257879   
     14400  -10143.775     -10277.796      134.02121      30286.167      480.23771      13969.031      1.5419106      0.85257879   
     14500  -10145.336     -10275.886      130.54975      32223.121      467.79844      13974.836      1.54127        0.85257879   
     14600  -10149.08      -10281.909      132.82926      29463.613      475.96658      13997.876      1.5387332      0.85257879   
     14700  -10151.875     -10279.304      127.42931      27197.688      456.61699      14025.142      1.5357418      0.85257879   
     14800  -10152.537     -10278.656      126.11846      28169.574      451.91981      14050.767      1.5329409      0.85257879   
     14900  -10150.304     -10280.697      130.39294      28010.116      467.23653      14068.962      1.5309585      0.85257879   
     15000  -10148.812     -10281.174      132.36179      28380.707      474.2915       14076.25       1.5301658      0.75614777   
     15100  -10145.916     -10281.676      135.76027      28122.026      486.46928      14078.659      1.529904       0.75614777   
     15200  -10147.12      -10283.616      136.49638      28660.501      489.10696      14077.379      1.5300431      0.75614777   
     15300  -10149.375     -10278.997      129.6223       30149.443      464.4751       14068.16       1.5310457      0.75614777   
     15400  -10146.825     -10279.849      133.02384      32100.284      476.66383      14056.077      1.5323619      0.75614777   
     15500  -10148.745     -10282.829      134.08393      32930.046      480.46247      14043.517      1.5337324      0.75614777   
     15600  -10148.901     -10279.067      130.16637      33472.903      466.42465      14030.328      1.5351741      0.75614777   
     15700  -10146.838     -10274.138      127.29975      31537.209      456.15273      14019.402      1.5363705      0.75614777   
     15800  -10143.714     -10279.067      135.35235      29706.515      485.00756      14018.301      1.5364912      0.75614777   
     15900  -10147.186     -10277.756      130.56921      29254.426      467.86816      14023.887      1.5358792      0.75614777   
     16000  -10145.65      -10279.596      133.9468       31492.162      479.97107      14036.81       1.5344652      0.81813563   
     16100  -10145.743     -10278.604      132.86191      31723.919      476.08358      14054.556      1.5325277      0.81813563   
     16200  -10148.483     -10277.146      128.66313      33278.768      461.0381       14078.952      1.5298721      0.81813563   
     16300  -10147.299     -10278.873      131.5749       32658.663      471.47186      14102.683      1.5272978      0.81813563   
     16400  -10149.686     -10280.363      130.67743      30581.529      468.25594      14118.906      1.5255428      0.81813563   
     16500  -10149.203     -10284.119      134.91584      30911.381      483.44344      14121.702      1.5252408      0.81813563   
     16600  -10150.219     -10279.701      129.48212      27365.786      463.97281      14108.873      1.5266277      0.81813563   
     16700  -10148.783     -10277.914      129.13072      28273.164      462.71363      14084.647      1.5292536      0.81813563   
     16800  -10149.04      -10280.165      131.12563      31675.634      469.86197      14053.694      1.5326217      0.81813563   
     16900  -10151.179     -10279.553      128.374        30056.887      460.00208      14024.474      1.5358149      0.81813563   
     17000  -10150.191     -10280.805      130.61375      28315.602      468.02777      13998.267      1.5386902      0.90135488   
     17100  -10152.089     -10282.417      130.32799      31855.68       467.00379      13972.383      1.5415407      0.90135488   
     17200  -10151.714     -10281.749      130.03539      30880.76       465.95533      13952.469      1.5437409      0.90135488   
     17300  -10147.091     -10281.2        134.10881      28320.881      480.55159      13947.932      1.544243       0.90135488   
     17400  -10148.425     -10277.598      129.17329      27980.921      462.86618      13960.806      1.542819       0.90135488   
     17500  -10152.745     -10282.148      129.40309      27820.441      463.6896       13992.495      1.5393249      0.90135488   
     17600  -10152.399     -10284.374      131.97519      27590.413      472.9062       14028.163      1.535411       0.90135488   
     17700  -10152.065     -10281.718      129.65293      30136.771      464.58487      14059.556      1.5319827      0.90135488   
     17800  -10149.375     -10279.245      129.87025      28446.603      465.36358      14081.339      1.5296128      0.90135488   
     17900  -10152.342     -10282.658      130.31668      27484.473      466.96328      14092.734      1.528376       0.90135488   
     18000  -10150.886     -10281.031      130.14438      30289.565      466.34586      14089.979      1.5286748      0.87627055   
     18100  -10151.061     -10279.92       128.85878      30907.111      461.73918      14075.972      1.5301961      0.87627055   
     18200  -10152.966     -10281.113      128.14732      30779.524      459.1898       14055.294      1.5324473      0.87627055   
     18300  -10151.408     -10280.126      128.71758      31405.827      461.23323      14029.414      1.5352741      0.87627055   
     18400  -10151.953     -10280.405      128.45177      32455.631      460.28075      14002.895      1.5381817      0.87627055   
     18500  -10150.975     -10279.34       128.36404      29439.041      459.96638      13985.196      1.5401283      0.87627055   
     18600  -10150.461     -10278.284      127.82244      28885.674      458.02569      13975.998      1.541142       0.87627055   
     18700  -10153.463     -10281.808      128.34478      28612.84       459.89737      13979.568      1.5407484      0.87627055   
     18800  -10153.256     -10283.845      130.58832      26476.63       467.93665      13991.501      1.5394343      0.87627055   
     18900  -10152.138     -10280.757      128.61959      29759.092      460.8821       14005.498      1.5378958      0.87627055   
     19000  -10151.255     -10282.101      130.84567      30306.484      468.85882      14021.061      1.5361888      0.90874445   
     19100  -10151.304     -10279.783      128.47877      28805.696      460.37749      14036.034      1.53455        0.90874445   
     19200  -10152.164     -10280.607      128.44224      29288.481      460.2466       14049.172      1.5331151      0.90874445   
     19300  -10152.926     -10282.57       129.6436       30391.909      464.55144      14058.035      1.5321484      0.90874445   
     19400  -10153.185     -10282.114      128.92941      31204.907      461.99227      14055.729      1.5323998      0.90874445   
     19500  -10152.909     -10282.893      129.9841       27278.286      465.77154      14045.248      1.5335434      0.90874445   
     19600  -10148.634     -10279.477      130.84293      29395.381      468.84899      14030.693      1.5351342      0.90874445   
     19700  -10145.767     -10280.158      134.39095      28453.976      481.5626       14015.92       1.5367522      0.90874445   
     19800  -10144.575     -10277.127      132.55225      33699.373      474.97397      14009.337      1.5374743      0.90874445   
     19900  -10148.214     -10280.296      132.08176      28955.522      473.28808      14011.541      1.5372325      0.90874445   
     20000  -10148.731     -10282.377      133.64656      31373.625      478.89522      14020.925      1.5362037      0.84626718   
     20100  -10148.62      -10280.697      132.0761       29594.504      473.26781      14033.5        1.5348272      0.84626718   
     20200  -10148.854     -10280.262      131.4077       31504.55       470.87273      14044.078      1.5336711      0.84626718   
     20300  -10150.043     -10282.491      132.44801      30989.321      474.60046      14054.583      1.5325248      0.84626718   
     20400  -10148.925     -10278.469      129.54379      31291.387      464.19377      14059.181      1.5320236      0.84626718   
     20500  -10150.917     -10284.359      133.44154      28284.276      478.16059      14053.528      1.5326398      0.84626718   
     20600  -10150.528     -10278.058      127.52979      29266.069      456.97701      14038.018      1.5343331      0.84626718   
     20700  -10147.488     -10278.832      131.34423      27583.791      470.6453       14021.539      1.5361364      0.84626718   
     20800  -10147.776     -10281.231      133.45562      29654.789      478.21102      14006.516      1.537784       0.84626718   
     20900  -10145.039     -10276.986      131.94745      29472.295      472.80681      13992.515      1.5393227      0.84626718   
     21000  -10145.501     -10280.354      134.8529       28738.766      483.21791      13987.898      1.5398308      0.83507593   
     21100  -10143.902     -10277.123      133.22111      28270.106      477.37072      13994.998      1.5390496      0.83507593   
     21200  -10147.818     -10280.388      132.56992      27517.226      475.03729      14011.502      1.5372367      0.83507593   
     21300  -10151.607     -10281.383      129.77672      28582.032      465.02845      14030.658      1.535138       0.83507593   
     21400  -10152.522     -10281.311      128.78934      29361.398      461.49036      14048.88       1.5331469      0.83507593   
     21500  -10156.837     -10288.047      131.20971      30049.553      470.16327      14060.25       1.5319071      0.83507593   
     21600  -10153.642     -10283.507      129.86521      34242.837      465.34553      14057.871      1.5321663      0.83507593   
     21700  -10153.833     -10281.1        127.26718      29883.562      456.03602      14043.421      1.5337428      0.83507593   
     21800  -10153.605     -10284.257      130.65148      32107.448      468.16295      14021.633      1.5361261      0.83507593   
     21900  -10152.629     -10282.87       130.24086      30545.423      466.6916       13996.925      1.5388377      0.83507593   
     22000  -10149.295     -10279.371      130.07587      32431.067      466.1004       13975.02       1.5412498      0.84171742   
     22100  -10147.985     -10283.099      135.11385      28764.934      484.15297      13960.397      1.5428641      0.84171742   
     22200  -10146.21      -10276.561      130.35083      35288.655      467.08563      13955.313      1.5434262      0.84171742   
     22300  -10146.427     -10280.934      134.50681      31929.948      481.97774      13963.786      1.5424898      0.84171742   
     22400  -10149.463     -10281.879      132.41655      27849.603      474.48772      13985.355      1.5401109      0.84171742   
     22500  -10148.777     -10281.956      133.1794       28283.454      477.22126      14010.735      1.5373209      0.84171742   
     22600  -10150.502     -10283.82       133.31764      30620.411      477.71661      14034.308      1.5347387      0.84171742   
     22700  -10149.365     -10282.718      133.35292      32074.632      477.84301      14050.924      1.5329238      0.84171742   
     22800  -10149.225     -10280.399      131.17357      29400.811      470.03376      14061.001      1.5318253      0.84171742   
     22900  -10152.601     -10281.007      128.40589      33409.776      460.11635      14060.014      1.5319327      0.84171742   
     23000  -10153.945     -10282.849      128.90359      27591.611      461.89975      14046.136      1.5334464      0.83419336   
     23100  -10150.989     -10283.031      132.04213      25298.248      473.14608      14021.382      1.5361536      0.83419336   
     23200  -10149.033     -10277.613      128.5796       31158.144      460.7388       13987.715      1.539851       0.83419336   
     23300  -10148.417     -10279.635      131.21844      32561.317      470.19455      13955.072      1.5434529      0.83419336   
     23400  -10149.107     -10279.642      130.53495      34703.47       467.74542      13932.213      1.5459853      0.83419336   
     23500  -10148.77      -10279.415      130.64492      33897.138      468.13944      13926.397      1.546631       0.83419336   
     23600  -10150.306     -10284.81       134.50396      30763.766      481.96756      13936.344      1.5455271      0.83419336   
     23700  -10150.261     -10282.65       132.38908      34466.353      474.38931      13952.962      1.5436863      0.83419336   
     23800  -10149.103     -10280.985      131.88209      31267.35       472.57261      13972.464      1.5415317      0.83419336   
     23900  -10147.307     -10284.091      136.78406      27698.286      490.13783      13991.625      1.5394207      0.83419336   
     24000  -10148.673     -10276.783      128.10924      29876.427      459.05338      14010.116      1.5373889      0.77541844   
     24100  -10151.89      -10282.781      130.89063      30219.015      469.01992      14028.827      1.5353384      0.77541844   
     24200  -10153.355     -10282.057      128.70195      28669.18       461.17721      14036.835      1.5344625      0.77541844   
     24300  -10153.357     -10281.471      128.11385      30668.201      459.06987      14029.02       1.5353173      0.77541844   
     24400  -10152.534     -10282.713      130.17858      30268.534      466.46842      14008.163      1.5376032      0.77541844   
     24500  -10153.05      -10285.135      132.08491      28878.437      473.29936      13982.335      1.5404434      0.77541844   
     24600  -10147.973     -10278.102      130.129        31434.118      466.29074      13957.378      1.5431979      0.77541844   
     24700  -10149.988     -10282.456      132.4682       28224.317      474.67282      13942.18       1.5448801      0.77541844   
     24800  -10152.826     -10282.448      129.62184      30211.654      464.47346      13935.495      1.5456212      0.77541844   
     24900  -10154.37      -10285.577      131.20697      30894.679      470.15345      13934.47       1.5457349      0.77541844   
     25000  -10152.672     -10282.853      130.1801       32800.729      466.47387      13934.95       1.5456816      0.80021153   
     25100  -10150.982     -10284.917      133.93503      30715.864      479.92889      13943.296      1.5447564      0.80021153   
     25200  -10150.315     -10284.371      134.05602      29215.665      480.36244      13957.65       1.5431678      0.80021153   
     25300  -10147.111     -10277.248      130.13712      30432.396      466.31987      13978.664      1.540848       0.80021153   
     25400  -10145.312     -10280.01       134.69832      32266.782      482.66399      14005.526      1.5378927      0.80021153   
     25500  -10143.61      -10277.417      133.80686      32966.284      479.46962      14035.628      1.5345944      0.80021153   
     25600  -10146.853     -10280.362      133.50976      26288.033      478.40503      14064.459      1.5314486      0.80021153   
     25700  -10147.59      -10280.149      132.55852      26658.575      474.99645      14087.596      1.5289335      0.80021153   
     25800  -10145.94      -10280.215      134.27478      24161.916      481.14633      14098.731      1.5277259      0.80021153   
     25900  -10147.263     -10279.363      132.1009       27969.4        473.35667      14094.142      1.5282234      0.80021153   
     26000  -10148.114     -10277.988      129.87422      29202.672      465.37781      14077.758      1.5300019      0.7770483    
     26100  -10147.413     -10281.264      133.8517       28167.272      479.63031      14049.546      1.5330742      0.7770483    
     26200  -10145.609     -10276.897      131.28821      34795.307      470.44456      14010.724      1.5373222      0.7770483    
     26300  -10148.137     -10279.712      131.57468      30243.289      471.47107      13967.294      1.5421023      0.7770483    
     26400  -10147.836     -10279.78       131.94432      31265.163      472.79558      13930.401      1.5461864      0.7770483    
     26500  -10147.614     -10284.094      136.48051      31407.713      489.05011      13906.297      1.5488664      0.7770483    
     26600  -10144.479     -10283.052      138.57372      30855.269      496.55069      13895.574      1.5500617      0.7770483    
     26700  -10144.689     -10276.621      131.93235      32886.326      472.7527       13901.856      1.5493612      0.7770483    
     26800  -10148.881     -10276.602      127.72111      32534.91       457.66258      13929.255      1.5463136      0.7770483    
     26900  -10151.196     -10283.957      132.76066      27172.672      475.72077      13968.271      1.5419945      0.7770483    
     27000  -10151.106     -10282.659      131.55244      32595.466      471.39138      14007.619      1.5376629      0.80378548   
     27100  -10152.727     -10280.325      127.59803      27561.862      457.22153      14042.645      1.5338276      0.80378548   
     27200  -10150.2       -10280.661      130.46083      27236.974      467.4798       14069.635      1.5308853      0.80378548   
     27300  -10147.316     -10279.739      132.42322      24322.837      474.51164      14086.556      1.5290463      0.80378548   
     27400  -10148.094     -10281.028      132.93381      27681.405      476.34124      14091.899      1.5284666      0.80378548   
     27500  -10150.433     -10281.903      131.47032      27869.4        471.09711      14086.198      1.5290851      0.80378548   
     27600  -10148.746     -10282.109      133.36385      29527.363      477.88218      14065.91       1.5312907      0.80378548   
     27700  -10148.782     -10281.166      132.38372      27231.514      474.3701       14039.439      1.5341779      0.80378548   
     27800  -10152.402     -10280.525      128.12288      28455.552      459.10225      14009.733      1.5374308      0.80378548   
     27900  -10153.956     -10287.445      133.48969      27710.18       478.3331       13976.316      1.5411069      0.80378548   
     28000  -10153.508     -10286.843      133.33517      28192.188      477.77941      13942.989      1.5447905      0.78152024   
     28100  -10155.269     -10284.07       128.80101      32052.225      461.53218      13911.458      1.5482918      0.78152024   
     28200  -10153.76      -10285.029      131.26869      30885.383      470.37462      13892.04       1.550456       0.78152024   
     28300  -10152.173     -10284.771      132.59798      33108.591      475.13783      13888.606      1.5508394      0.78152024   
     28400  -10154.446     -10283.857      129.41127      30850.308      463.71892      13897.701      1.5498244      0.78152024   
     28500  -10154.226     -10282.027      127.80095      29870.833      457.94868      13919.267      1.5474232      0.78152024   
     28600  -10155.379     -10286.642      131.26293      31934.412      470.35396      13951.798      1.5438151      0.78152024   
     28700  -10158.48      -10284.876      126.39637      29366.211      452.91565      13987.773      1.5398446      0.78152024   
     28800  -10155.641     -10286.987      131.34617      25919.928      470.65224      14021.934      1.5360931      0.78152024   
     28900  -10155.919     -10284.594      128.67524      30404.802      461.0815       14045.14       1.5335552      0.78152024   
     29000  -10157.476     -10285.552      128.07597      31459.094      458.93416      14053.282      1.5326667      0.8514434    
     29100  -10155.616     -10281.31       125.69438      29866.373      450.4002       14041.279      1.5339768      0.8514434    
     29200  -10158.148     -10288.441      130.29261      27112.083      466.87704      14017.059      1.5366274      0.8514434    
     29300  -10153.808     -10283.848      130.03972      29157.763      465.97086      13981.291      1.5405585      0.8514434    
     29400  -10152.882     -10283.803      130.92142      31843.913      469.13024      13939.021      1.5452302      0.8514434    
     29500  -10152.531     -10278.933      126.40186      29772.83       452.93533      13901.296      1.5494236      0.8514434    
     29600  -10150.469     -10280.992      130.52208      30041.313      467.69927      13878.743      1.5519415      0.8514434    
     29700  -10152.278     -10281.563      129.28463      32983.388      463.26513      13878.572      1.5519605      0.8514434    
     29800  -10152.969     -10283.395      130.42528      33110.267      467.35242      13898.98       1.5496818      0.8514434    
     29900  -10155.151     -10284.413      129.26254      29298.49       463.18598      13931.183      1.5460995      0.8514434    
     30000  -10154.361     -10281.632      127.27176      27295.067      456.05241      13970.436      1.5417555      0.80026795   
     30100  -10154.687     -10285.405      130.71827      26183.586      468.4023       14008.788      1.5375346      0.80026795   
     30200  -10152.984     -10280.748      127.76457      24693.776      457.81833      14036.745      1.5344724      0.80026795   
     30300  -10150.698     -10280.334      129.63567      28828.434      464.52301      14054.514      1.5325322      0.80026795   
     30400  -10150.334     -10284.897      134.56298      28237.962      482.17901      14062.116      1.5317038      0.80026795   
     30500  -10151.239     -10284.739      133.5001       30142.851      478.37041      14060.299      1.5319017      0.80026795   
     30600  -10147.981     -10280.422      132.44186      30010.024      474.57842      14046.889      1.5333642      0.80026795   
     30700  -10147.082     -10281.004      133.92217      30710.092      479.88282      14028.806      1.5353407      0.80026795   
     30800  -10148.787     -10283.199      134.41241      27267.944      481.6395       14001.138      1.5383747      0.80026795   
     30900  -10147.504     -10279.573      132.06946      27388.952      473.24402      13972.267      1.5415535      0.80026795   
     31000  -10145.566     -10279.626      134.05957      27616.32       480.37516      13945.916      1.5444663      0.83526584   
     31100  -10147.034     -10277.831      130.79707      33705.439      468.68464      13926.151      1.5466582      0.83526584   
     31200  -10148.296     -10278.94       130.64351      29952.146      468.1344       13921.325      1.5471944      0.83526584   
     31300  -10149.606     -10283.32       133.71428      29018.739      479.13788      13930.31       1.5461965      0.83526584   
     31400  -10146.507     -10280.15       133.64343      29294.781      478.88399      13943.862      1.5446937      0.83526584   
     31500  -10147.955     -10280.658      132.7033       30194.166      475.51524      13966.253      1.5422173      0.83526584   
     31600  -10147.256     -10282.041      134.78515      26667.253      482.97513      13997.257      1.5388012      0.83526584   
     31700  -10150.656     -10282.021      131.36405      28488.302      470.7163       14030.254      1.5351822      0.83526584   
     31800  -10151.003     -10282.727      131.72394      26979.979      472.00591      14054.567      1.5325265      0.83526584   
     31900  -10152.457     -10281.262      128.80464      26745.015      461.54519      14066.448      1.5312321      0.83526584   
     32000  -10152.873     -10280.732      127.85908      24916.137      458.15698      14061.348      1.5317875      0.80185767   
     32100  -10148.806     -10279.779      130.97292      26755.716      469.31477      14036.636      1.5344842      0.80185767   
     32200  -10151.947     -10284.234      132.28768      26499.335      474.02595      14001.598      1.5383241      0.80185767   
     32300  -10151.615     -10282.06       130.44547      30994.561      467.42476      13958.392      1.5430858      0.80185767   
     32400  -10150.003     -10281.831      131.8286       31337.914      472.38093      13919.347      1.5474143      0.80185767   
     32500  -10150.364     -10279.266      128.90238      32922.332      461.89542      13886.705      1.5510517      0.80185767   
     32600  -10149.272     -10281.544      132.27109      33250.398      473.9665       13867.269      1.5532255      0.80185767   
     32700  -10148.368     -10281.226      132.85798      32760.114      476.06949      13870.743      1.5528365      0.80185767   
     32800  -10152.176     -10287.246      135.07062      29566.989      483.99804      13896.214      1.5499903      0.80185767   
     32900  -10153.108     -10283.663      130.55525      28420.815      467.81815      13932.439      1.5459603      0.80185767   
     33000  -10153.52      -10284.337      130.81649      25045.07       468.75423      13971.645      1.541622       0.81573428   
     33100  -10151.61      -10281.798      130.18805      26394.217      466.50237      14005.496      1.537896       0.81573428   
     33200  -10155.858     -10284.57       128.71159      27549.111      461.21175      14032.609      1.5349245      0.81573428   
     33300  -10153.624     -10284.987      131.36357      30571.63       470.71461      14046.097      1.5334506      0.81573428   
     33400  -10151.701     -10282.239      130.53837      28922.32       467.75766      14039.657      1.5341541      0.81573428   
     33500  -10148.897     -10281.086      132.18901      27763.051      473.67238      14017.507      1.5365783      0.81573428   
     33600  -10148.593     -10284.066      135.47333      29293.659      485.44107      13986.899      1.5399408      0.81573428   
     33700  -10149.766     -10281.752      131.98543      33695.888      472.94292      13952.448      1.5437432      0.81573428   
     33800  -10148.89      -10281.622      132.73166      31967.092      475.61685      13918.887      1.5474654      0.81573428   
     33900  -10145.729     -10282.523      136.79452      34136.505      490.17531      13893.875      1.5502512      0.81573428   
     34000  -10146.761     -10282.756      135.99515      34390.697      487.31093      13882.056      1.5515711      0.79705679   
     34100  -10149.8       -10282.981      133.18036      35232.802      477.22469      13883.92       1.5513627      0.79705679   
     34200  -10150.882     -10280.492      129.6096       31068.198      464.42959      13900.237      1.5495417      0.79705679   
     34300  -10149.022     -10281.595      132.57241      30929.758      475.04623      13928.102      1.5464416      0.79705679   
     34400  -10153.784     -10282.234      128.45049      26416.279      460.27618      13964.457      1.5424156      0.79705679   
     34500  -10155.1       -10287.512      132.41153      24792.737      474.46974      13998.036      1.5387156      0.79705679   
     34600  -10155.233     -10283.027      127.79345      30482.971      457.92179      14017.479      1.5365814      0.79705679   
     34700  -10155.894     -10282.824      126.9299       32947.127      454.82744      14021.15       1.536179       0.79705679   
     34800  -10149.478     -10282.506      133.02764      28588.344      476.67744      14010.328      1.5373656      0.79705679   
     34900  -10152.962     -10282.286      129.32399      27798.477      463.40618      13985.252      1.5401222      0.79705679   
     35000  -10150.074     -10282.899      132.82475      29730.732      475.95044      13947.464      1.5442948      0.87372002   
     35100  -10150.069     -10282.632      132.56296      32231.637      475.01237      13906.382      1.548857       0.87372002   
     35200  -10153.074     -10285.073      131.99879      30917.12       472.99077      13871.661      1.5527338      0.87372002   
     35300  -10152.196     -10283.068      130.87166      30606.109      468.95194      13849.434      1.5552258      0.87372002   
     35400  -10152.77      -10285.5        132.73015      25933.603      475.61146      13842.026      1.5560581      0.87372002   
     35500  -10154.826     -10285.873      131.04674      27433.602      469.57931      13846.395      1.5555671      0.87372002   
     35600  -10152.523     -10283.666      131.14358      33152.521      469.92631      13864.46       1.5535403      0.87372002   
     35700  -10153.16      -10286.781      133.62128      30531.29       478.80464      13899.548      1.5496185      0.87372002   
     35800  -10155.043     -10286.009      130.96604      28295.941      469.29014      13944.324      1.5446426      0.87372002   
     35900  -10152.279     -10280.541      128.26152      31502.763      459.59903      13991.223      1.5394649      0.87372002   
     36000  -10152.868     -10282.432      129.56353      30323.887      464.26451      14033.491      1.5348282      0.80164525   
     36100  -10152.303     -10283.264      130.96124      29056.183      469.27293      14060.973      1.5318283      0.80164525   
     36200  -10152.811     -10284.347      131.53626      27613.4        471.33338      14069.992      1.5308463      0.80164525   
     36300  -10153.306     -10282.799      129.49215      27738.314      464.00875      14058.206      1.5321298      0.80164525   
     36400  -10152.113     -10285.563      133.44991      27672.861      478.19057      14032.614      1.534924       0.80164525   
     36500  -10151.232     -10282.633      131.40048      30750.665      470.84685      13992.162      1.5393616      0.80164525   
     36600  -10151.998     -10285.571      133.57354      30590.932      478.63357      13947.814      1.5442561      0.80164525   
     36700  -10151.96      -10284.32       132.35992      32935.989      474.2848       13903.923      1.5491308      0.80164525   
     36800  -10149.587     -10281.974      132.38722      30427.089      474.38262      13872.499      1.55264        0.80164525   
     36900  -10148.588     -10282.235      133.64691      30590.971      478.89647      13862.267      1.553786       0.80164525   
     37000  -10150.272     -10283.33       133.05835      29283.288      476.78749      13877.377      1.5520942      0.84504301   
     37100  -10151.482     -10282.832      131.34984      29569.435      470.66538      13908.087      1.5486671      0.84504301   
     37200  -10153.317     -10286.881      133.56361      29949.078      478.59799      13946.185      1.5444364      0.84504301   
     37300  -10155.787     -10285.739      129.95241      30370.908      465.65797      13986.007      1.540039       0.84504301   
     37400  -10154.05      -10284.698      130.64848      32077.711      468.1522       14019.086      1.5364052      0.84504301   
     37500  -10152.242     -10282.473      130.23083      30461.43       466.65564      14041.228      1.5339824      0.84504301   
     37600  -10152.408     -10283.755      131.34668      27059.983      470.65406      14051.749      1.5328338      0.84504301   
     37700  -10150.998     -10283.043      132.04507      27806.592      473.15661      14050.779      1.5329397      0.84504301   
     37800  -10147.689     -10282.211      134.52187      27398.976      482.03173      14032.993      1.5348825      0.84504301   
     37900  -10147.352     -10281.518      134.16613      28255.287      480.75701      14008.941      1.5375178      0.84504301   
     38000  -10147.488     -10280.783      133.29506      30641.687      477.6357       13986.859      1.5399452      0.85976535   
     38100  -10148.922     -10281.914      132.99179      30401.104      476.54898      13970.132      1.5417891      0.85976535   
     38200  -10150.303     -10284.934      134.63089      29908.873      482.42236      13961.083      1.5427884      0.85976535   
     38300  -10154.798     -10284.782      129.98407      29806.141      465.77144      13957.458      1.5431891      0.85976535   
     38400  -10153.638     -10283.366      129.72785      28559.772      464.85331      13955.955      1.5433553      0.85976535   
     38500  -10155.321     -10285.614      130.29347      30620.659      466.88009      13952.955      1.5436871      0.85976535   
     38600  -10153.319     -10282.773      129.45475      29495.378      463.87473      13950.014      1.5440125      0.85976535   
     38700  -10151.649     -10280.732      129.08271      28769.404      462.5416       13950.831      1.5439221      0.85976535   
     38800  -10154.052     -10285.295      131.24226      30136.541      470.2799       13955.998      1.5433505      0.85976535   
     38900  -10153.866     -10282.716      128.85053      32191.798      461.70963      13959.912      1.5429178      0.85976535   
     39000  -10155.915     -10285.917      130.00219      31875.319      465.83635      13965.583      1.5422913      0.78634759   
     39100  -10155.427     -10283.194      127.76624      31451.476      457.82428      13970.742      1.5417217      0.78634759   
     39200  -10156.838     -10289.614      132.77584      30713.401      475.77519      13973.82       1.5413822      0.78634759   
     39300  -10155.907     -10284.915      129.00747      29930.602      462.27198      13969.982      1.5418056      0.78634759   
     39400  -10155.722     -10286.233      130.51139      27341.242      467.66099      13962.889      1.5425888      0.78634759   
     39500  -10155.418     -10283.84       128.4214       31976.943      460.17192      13957.226      1.5432147      0.78634759   
     39600  -10157.645     -10285.654      128.00927      30822.297      458.69514      13955.744      1.5433786      0.78634759   
     39700  -10154.152     -10284.071      129.91874      29668.583      465.53736      13954.375      1.54353        0.78634759   
     39800  -10158.167     -10284.642      126.47549      26620.839      453.19916      13955.548      1.5434002      0.78634759   
     39900  -10152.693     -10282.867      130.1745       31615.133      466.45382      13958.813      1.5430393      0.78634759   
     40000  -10153.958     -10282.676      128.71745      29721.902      461.23276      13967.963      1.5420285      0.81451518   
     40100  -10152.043     -10282.338      130.29458      28324.005      466.8841       13977.631      1.5409619      0.81451518   
     40200  -10151.302     -10285.023      133.72098      29149.046      479.16188      13980.956      1.5405954      0.81451518   
     40300  -10149.482     -10279.114      129.63251      31280.56       464.5117       13978.628      1.540852       0.81451518   
     40400  -10151.076     -10282.738      131.66199      33448.348      471.78392      13981.7        1.5405134      0.81451518   
     40500  -10152.548     -10286.474      133.92664      28002.816      479.89884      13984.195      1.5402385      0.81451518   
     40600  -10149.757     -10280.809      131.05171      29225.72       469.59711      13986.072      1.5400318      0.81451518   
     40700  -10150.498     -10282.238      131.73927      27803.661      472.06083      13989.024      1.5397069      0.81451518   
     40800  -10152.462     -10286.879      134.41691      30535.874      481.65563      13993.07       1.5392617      0.81451518   
     40900  -10153.54      -10283.032      129.49197      30689.858      464.00808      13994.179      1.5391397      0.81451518   
     41000  -10155.023     -10285.27       130.2465       27200.76       466.7118       13990.793      1.5395122      0.79641795   
     41100  -10152.99      -10285.2        132.21012      27977.151      473.74802      13981.541      1.540531       0.79641795   
     41200  -10150.603     -10281.618      131.01538      30816.315      469.46693      13967.72       1.5420553      0.79641795   
     41300  -10150.746     -10284.244      133.49769      28657.2        478.36179      13952.303      1.5437592      0.79641795   
     41400  -10151.989     -10281.523      129.53465      26795.786      464.16104      13938.32       1.545308       0.79641795   
     41500  -10153.018     -10286.854      133.83608      28406.572      479.57432      13925.572      1.5467225      0.79641795   
     41600  -10151.724     -10282.478      130.75443      31089.573      468.53187      13912.68       1.5481559      0.79641795   
     41700  -10152.788     -10283.896      131.10802      33703.41       469.79889      13902.146      1.5493289      0.79641795   
     41800  -10154.698     -10283.872      129.17425      33078.695      462.86962      13892.368      1.5504193      0.79641795   
     41900  -10152.889     -10282.377      129.48863      30812.283      463.99613      13883.801      1.5513761      0.79641795   
     42000  -10149.56      -10282.287      132.72643      31322.712      475.59812      13883.616      1.5513968      0.93579725   
     42100  -10152.847     -10285.766      132.91843      31592.73       476.28612      13895.129      1.5501113      0.93579725   
     42200  -10153.914     -10285.382      131.46826      32635.854      471.08974      13910.248      1.5484265      0.93579725   
     42300  -10156.563     -10286.149      129.58575      29484.295      464.34414      13927.958      1.5464576      0.93579725   
     42400  -10158.112     -10284.277      126.16424      27724.037      452.08386      13943.97       1.5446818      0.93579725   
     42500  -10158.431     -10285.975      127.54355      23582.945      457.02633      13953.178      1.5436624      0.93579725   
     42600  -10157.487     -10286.139      128.65188      26440.528      460.99779      13950.221      1.5439896      0.93579725   
     42700  -10154.654     -10285.45       130.79669      29190.353      468.6833       13939.445      1.5451832      0.93579725   
     42800  -10154.791     -10284.386      129.59509      33199.819      464.37759      13923.608      1.5469407      0.93579725   
     42900  -10152.221     -10285.253      133.03211      30686.174      476.69348      13908.175      1.5486573      0.93579725   
     43000  -10154.629     -10284.724      130.09521      28332.748      466.16967      13894.196      1.5502154      0.81909438   
     43100  -10153.204     -10286.916      133.71275      31163.749      479.13239      13883.218      1.5514413      0.81909438   
     43200  -10150.464     -10282.832      132.36725      33226.869      474.31108      13883.148      1.5514491      0.81909438   
     43300  -10148.644     -10283.48       134.83532      32324.036      483.1549       13896.574      1.5499501      0.81909438   
     43400  -10150.514     -10281.327      130.81287      31544.775      468.74128      13919.948      1.5473474      0.81909438   
     43500  -10152.097     -10284.082      131.98453      27118.535      472.93969      13949.845      1.5440313      0.81909438   
     43600  -10155.335     -10284.78       129.44498      26536.813      463.8397       13978.241      1.5408946      0.81909438   
     43700  -10151.894     -10283.606      131.71182      29837.038      471.96247      13998.271      1.5386897      0.81909438   
     43800  -10153.412     -10283.792      130.37986      28062.089      467.18966      14009.46       1.5374608      0.81909438   
     43900  -10150.806     -10277.918      127.11149      33172.313      455.47812      14007.566      1.5376687      0.81909438   
     44000  -10151.394     -10282.763      131.36895      29163.168      470.73386      13994.894      1.539061       0.81425693   
     44100  -10147.656     -10282.523      134.86741      28408.706      483.26987      13970.814      1.5417138      0.81425693   
     44200  -10146.937     -10278.721      131.78335      29901.92       472.21878      13946.995      1.5443468      0.81425693   
     44300  -10145.305     -10282.339      137.03391      30154.547      491.03311      13933.194      1.5458764      0.81425693   
     44400  -10146.908     -10277.863      130.95455      33802.922      469.24896      13928.42       1.5464063      0.81425693   
     44500  -10149.273     -10284.375      135.10146      28555.767      484.10858      13938.453      1.5452932      0.81425693   
     44600  -10150.376     -10282.802      132.42555      26647.385      474.51999      13953.504      1.5436264      0.81425693   
     44700  -10147.73      -10279.859      132.12914      31129.387      473.45785      13970.429      1.5417563      0.81425693   
     44800  -10152.289     -10283.638      131.3488       29220.631      470.66167      13990.756      1.5395163      0.81425693   
     44900  -10155.792     -10284.254      128.46179      30874.442      460.31666      14004.625      1.5379917      0.81425693   
     45000  -10152.863     -10286.077      133.21463      31682.429      477.34747      14005.899      1.5378518      0.83795325   
     45100  -10152.154     -10281.54       129.3864       31274.756      463.62979      13995.726      1.5389695      0.83795325   
     45200  -10151.567     -10282.178      130.61154      27521.652      468.01984      13982.002      1.5404801      0.83795325   
     45300  -10153.987     -10281.527      127.54024      29683.954      457.01446      13964.372      1.542425       0.83795325   
     45400  -10153.992     -10284.137      130.14546      29912.992      466.34973      13946.735      1.5443756      0.83795325   
     45500  -10156.821     -10286.425      129.60348      30371.517      464.40766      13928.253      1.5464249      0.83795325   
     45600  -10155.133     -10286.225      131.0917       27905.17       469.74041      13905.679      1.5489352      0.83795325   
     45700  -10154.568     -10286.723      132.15519      32244.016      473.5512       13885.506      1.5511856      0.83795325   
     45800  -10151.846     -10282.923      131.07677      33713.801      469.68692      13871.85       1.5527126      0.83795325   
     45900  -10152.646     -10282.347      129.70126      32524.553      464.75803      13870.634      1.5528488      0.83795325   
     46000  -10152.621     -10283.812      131.19124      31940.356      470.09707      13877.664      1.5520621      0.82999582   
     46100  -10151.394     -10282.119      130.72475      33443.425      468.42549      13889.973      1.5506867      0.82999582   
     46200  -10149.454     -10279.904      130.44972      34013.132      467.43999      13912.498      1.548176       0.82999582   
     46300  -10150.838     -10281.762      130.92459      33145.608      469.14158      13946.162      1.544439       0.82999582   
     46400  -10150.957     -10285.627      134.67014      31078.057      482.563        13978.761      1.5408373      0.82999582   
     46500  -10152.337     -10281.981      129.64403      31247.018      464.55297      14000.077      1.5384913      0.82999582   
     46600  -10149.669     -10283.398      133.72927      27757.398      479.19159      14007.721      1.5376517      0.82999582   
     46700  -10147.164     -10282.263      135.09904      28696.384      484.0999       14001.603      1.5383236      0.82999582   
     46800  -10147.159     -10281.863      134.70343      25225.591      482.6823       13987.554      1.5398686      0.82999582   
     46900  -10150.162     -10281.208      131.04662      28431.323      469.57886      13968.575      1.5419609      0.82999582   
     47000  -10150.566     -10284.639      134.07347      30357.6        480.42495      13946.841      1.5443638      0.83083219   
     47100  -10151.136     -10283.083      131.94714      30141.642      472.80569      13924.199      1.5468751      0.83083219   
     47200  -10151.683     -10280.049      128.36685      32487.346      459.97647      13901.668      1.5493822      0.83083219   
     47300  -10150.589     -10286.974      136.38491      31729.606      488.70755      13885.97       1.5511337      0.83083219   
     47400  -10152.508     -10283.604      131.09601      31903.831      469.75583      13875.041      1.5523555      0.83083219   
     47500  -10151.435     -10284.568      133.13293      31007.679      477.05472      13872.152      1.5526789      0.83083219   
     47600  -10149.986     -10283.577      133.59122      29822.731      478.69691      13874.274      1.5524414      0.83083219   
     47700  -10151.712     -10282.596      130.88391      30722.619      468.99583      13885.988      1.5511317      0.83083219   
     47800  -10152.024     -10286.15       134.12609      30664.764      480.61353      13904.504      1.5490662      0.83083219   
     47900  -10154.035     -10281.718      127.6828       29636.345      457.52531      13918.824      1.5474724      0.83083219   
     48000  -10154.982     -10286.346      131.36467      29902.22       470.71855      13931.413      1.5460741      0.85317631   
     48100  -10153.998     -10287.477      133.47894      30255.943      478.29459      13940.902      1.5450217      0.85317631   
     48200  -10152.366     -10285.5        133.13366      32471.123      477.05734      13946.801      1.5443682      0.85317631   
     48300  -10151.129     -10284.128      132.99911      32958.994      476.5752       13950.949      1.543909       0.85317631   
     48400  -10151.026     -10285.669      134.6436       31973.843      482.46792      13951.999      1.5437929      0.85317631   
     48500  -10151.549     -10285.869      134.32039      30263.367      481.30977      13950.895      1.543915       0.85317631   
     48600  -10149.77      -10282.243      132.47329      32102.092      474.69106      13946.702      1.5443792      0.85317631   
     48700  -10152.02      -10282.943      130.92362      29468.829      469.13814      13945.409      1.5445224      0.85317631   
     48800  -10153.831     -10283.514      129.68344      29997.558      464.69418      13946.058      1.5444505      0.85317631   
     48900  -10155.1       -10285.609      130.50929      32178.792      467.65346      13944.66       1.5446054      0.85317631   
     49000  -10155.67      -10288.991      133.32077      29682.422      477.72781      13936.185      1.5455446      0.80554946   
     49100  -10156.733     -10285.878      129.14526      31953.935      462.76575      13916.504      1.5477304      0.80554946   
     49200  -10152.084     -10286.009      133.92482      33826.505      479.89231      13896.913      1.5499123      0.80554946   
     49300  -10157.431     -10287.24       129.8093       29306.979      465.1452       13882.097      1.5515664      0.80554946   
     49400  -10158.14      -10288.077      129.93739      27113.906      465.60415      13868.852      1.5530483      0.80554946   
     49500  -10159.107     -10284.044      124.93786      31200.008      447.68938      13858.708      1.554185       0.80554946   
     49600  -10157.851     -10289.431      131.57967      30171.578      471.48895      13856.07       1.5544809      0.80554946   
     49700  -10157.111     -10288.708      131.59668      33414.079      471.5499       13861.405      1.5538826      0.80554946   
     49800  -10157.194     -10287.305      130.11122      35717.197      466.22705      13873.108      1.5525719      0.80554946   
     49900  -10157.476     -10289.018      131.54187      31987.584      471.35349      13894.315      1.5502021      0.80554946   
     50000  -10157.09      -10285.596      128.5063       29119.903      460.47615      13918.739      1.5474819      0.86305047   
     50100  -10156.534     -10285.124      128.59078      27689.985      460.77886      13941.641      1.5449398      0.86305047   
     50200  -10156.199     -10284.11       127.91091      26458.15       458.34267      13959.864      1.5429231      0.86305047   
     50300  -10158.12      -10284.693      126.57307      26595.628      453.54881      13969.55       1.5418532      0.86305047   
     50400  -10158.84      -10291.991      133.15095      31246.006      477.11931      13969.719      1.5418346      0.86305047   
     50500  -10159.32      -10287.026      127.70597      31879.373      457.60832      13957.895      1.5431408      0.86305047   
     50600  -10158.688     -10285.252      126.56421      31347.126      453.51708      13934.427      1.5457396      0.86305047   
     50700  -10157.975     -10290.55       132.5753       30986.316      475.05658      13904.741      1.5490397      0.86305047   
     50800  -10153.932     -10281.399      127.46655      30872.747      456.7504       13871.563      1.5527448      0.86305047   
     50900  -10154.059     -10287.461      133.40197      33575.319      478.01877      13846.522      1.5555528      0.86305047   
     51000  -10156.479     -10284.361      127.88154      31908.418      458.23744      13835.528      1.5567889      0.83335152   
     51100  -10155.304     -10287.406      132.10187      31111.417      473.36014      13839.656      1.5563246      0.83335152   
     51200  -10154.787     -10284.47       129.68286      30782.242      464.69211      13853.26       1.5547963      0.83335152   
     51300  -10157.106     -10286.986      129.88082      29917.605      465.40144      13875.482      1.5523062      0.83335152   
     51400  -10159.403     -10291.34       131.93726      26154.497      472.77029      13901.498      1.5494011      0.83335152   
     51500  -10160.712     -10285.975      125.26223      29814.65       448.85169      13920.484      1.5472879      0.83335152   
     51600  -10158.634     -10288.54       129.90528      27397.873      465.48912      13934.963      1.5456802      0.83335152   
     51700  -10156.14      -10287.17       131.03047      28185.363      469.521        13940.418      1.5450754      0.83335152   
     51800  -10153.952     -10285.65       131.69763      34101.605      471.91161      13935.836      1.5455834      0.83335152   
     51900  -10155.46      -10288.543      133.08296      28802.301      476.87569      13924.689      1.5468206      0.83335152   
     52000  -10157.247     -10284.841      127.59368      32655.893      457.20597      13908.827      1.5485847      0.81573105   
     52100  -10155.437     -10284.286      128.84923      30319.073      461.70498      13890.971      1.5505753      0.81573105   
     52200  -10152.625     -10286.358      133.73308      28490.736      479.20526      13873.339      1.552546       0.81573105   
     52300  -10152.818     -10284.785      131.96691      29244.694      472.87655      13860.902      1.5539391      0.81573105   
     52400  -10152.237     -10284.602      132.36484      29726.794      474.30245      13856.426      1.5544409      0.81573105   
     52500  -10150.486     -10282.804      132.31824      31661.032      474.13545      13864.299      1.5535583      0.81573105   
     52600  -10152.432     -10282.411      129.97872      28875.412      465.75226      13881.324      1.5516529      0.81573105   
     52700  -10154.73      -10286.213      131.48315      31209.081      471.14308      13901.749      1.5493731      0.81573105   
     52800  -10157.539     -10286.971      129.43226      29494.514      463.79413      13920.119      1.5473284      0.81573105   
     52900  -10157.955     -10285.412      127.4562       31923.33       456.71334      13929.175      1.5463225      0.81573105   
     53000  -10156.665     -10290.981      134.31662      31534.045      481.29626      13927.942      1.5464593      0.88197592   
     53100  -10154.792     -10289.294      134.50238      34216.706      481.96188      13915.812      1.5478073      0.88197592   
     53200  -10155.692     -10283.074      127.38211      32634.483      456.44784      13899.597      1.549613       0.88197592   
     53300  -10155.391     -10290.648      135.25726      29080.064      484.66683      13884.296      1.5513208      0.88197592   
     53400  -10155.117     -10285.499      130.38198      29896.857      467.19726      13867.226      1.5532303      0.88197592   
     53500  -10154.501     -10286.205      131.70304      29541.925      471.93103      13853.52       1.5547671      0.88197592   
     53600  -10155.088     -10287.371      132.28283      31866.7        474.00858      13847.709      1.5554195      0.88197592   
     53700  -10155.456     -10287.295      131.83856      33158.003      472.41662      13843.868      1.555851       0.88197592   
     53800  -10155.723     -10286.681      130.95822      34530.248      469.26211      13845.114      1.5557111      0.88197592   
     53900  -10157.135     -10289.787      132.65196      30226.764      475.33127      13855.222      1.554576       0.88197592   
     54000  -10154.636     -10287.104      132.4681       33808.375      474.67245      13869.658      1.552958       0.85059275   
     54100  -10152.547     -10284.448      131.90106      30206.666      472.64059      13889.896      1.5506953      0.85059275   
     54200  -10154.104     -10286.012      131.90843      30353.605      472.667        13916.117      1.5477735      0.85059275   
     54300  -10153.185     -10283.768      130.58282      29567.001      467.91694      13943.949      1.5446842      0.85059275   
     54400  -10152.12      -10285.42       133.30092      28675.479      477.65668      13968.067      1.5420169      0.85059275   
     54500  -10152.22      -10285.175      132.9545       26744.715      476.41537      13982.812      1.5403909      0.85059275   
     54600  -10155.898     -10282.3        126.40133      26073.468      452.93343      13984.083      1.5402509      0.85059275   
     54700  -10156.049     -10284.629      128.58013      26890.414      460.74069      13973.559      1.5414109      0.85059275   
     54800  -10157.981     -10286.39       128.40918      26199.793      460.12812      13947.198      1.5443242      0.85059275   
     54900  -10154.164     -10284.29       130.1256       33009.175      466.27857      13906.28       1.5488683      0.85059275   
     55000  -10152.97      -10284.254      131.28319      33161.682      470.42656      13863.871      1.5536063      0.89980789   
     55100  -10153.283     -10286.045      132.7621       32361.639      475.72594      13832.993      1.5570742      0.89980789   
     55200  -10155.028     -10285.8        130.77237      28722.377      468.59613      13815.13       1.5590875      0.89980789   
     55300  -10154.128     -10286.447      132.3198       28871.032      474.14104      13813.981      1.5592172      0.89980789   
     55400  -10152.988     -10285.153      132.16517      26935.205      473.58695      13830.287      1.5573789      0.89980789   
     55500  -10154.866     -10285.215      130.34903      28670.895      467.0792       13864.583      1.5535264      0.89980789   
     55600  -10153.183     -10284.735      131.55164      30595.933      471.3885       13910.256      1.5484255      0.89980789   
     55700  -10151.957     -10284.775      132.81806      29484.302      475.92645      13958.65       1.5430573      0.89980789   
     55800  -10154.333     -10285.304      130.97053      29498.81       469.30622      14002.501      1.538225       0.89980789   
     55900  -10152.136     -10284.583      132.44765      28554.089      474.59917      14035.602      1.5345972      0.89980789   
     56000  -10150.877     -10281.405      130.52767      30303.978      467.7193       14056.463      1.5323198      0.8056175    
     56100  -10149.143     -10282.171      133.02805      30410.439      476.67892      14061.086      1.531816       0.8056175    
     56200  -10150.532     -10285.114      134.58274      30021.48       482.24983      14048.743      1.5331618      0.8056175    
     56300  -10152.645     -10284.234      131.58884      30003.152      471.5218       14023.033      1.5359727      0.8056175    
     56400  -10150.875     -10285.092      134.21661      29104.65       480.93787      13987.434      1.5398819      0.8056175    
     56500  -10150.255     -10284.611      134.3564       32639.695      481.43877      13943.867      1.5446932      0.8056175    
     56600  -10151.298     -10281.768      130.46967      33828.381      467.51149      13905.657      1.5489377      0.8056175    
     56700  -10154.559     -10285.534      130.97503      33923.408      469.32235      13880.752      1.5517168      0.8056175    
     56800  -10151.797     -10286.132      134.33482      33212.536      481.36146      13869.886      1.5529325      0.8056175    
     56900  -10152.805     -10284.502      131.69652      35003.819      471.90766      13874.458      1.5524207      0.8056175    
[...]
    845900  -10158.502     -10289.773      131.27117      27137.427      470.38348      13920.575      1.5472777      0.80611776   
    846000  -10159.229     -10286.107      126.87851      28415.482      454.6433       13901.165      1.5494383      0.93409474   
    846100  -10158.995     -10289.241      130.24593      30737.437      466.70977      13879.27       1.5518825      0.93409474   
    846200  -10157.23      -10289.23       132.0007       29124.386      472.99761      13858.533      1.5542046      0.93409474   
    846300  -10156.32      -10288.228      131.90822      32155.88       472.66622      13842.403      1.5560158      0.93409474   
    846400  -10156.832     -10289.691      132.85892      30700.097      476.07287      13837.986      1.5565124      0.93409474   
    846500  -10154.693     -10286.902      132.20843      32061.764      473.74198      13843.024      1.5559459      0.93409474   
    846600  -10154.316     -10289.612      135.29571      32631.072      484.80462      13860.943      1.5539345      0.93409474   
    846700  -10152.689     -10287.154      134.46519      31644.328      481.82863      13887.523      1.5509603      0.93409474   
    846800  -10154.698     -10287.942      133.24447      32835.928      477.45441      13920.747      1.5472586      0.93409474   
    846900  -10152.374     -10283.992      131.61782      34487.791      471.62565      13957.259      1.5432111      0.93409474   
    847000  -10153.388     -10286.748      133.35916      30734.147      477.8654       13993.604      1.5392029      0.85265521   
    847100  -10154.216     -10284.358      130.1417       29319.344      466.33627      14018.992      1.5364154      0.85265521   
    847200  -10154.958     -10286.865      131.90702      27973.107      472.66195      14028.591      1.5353642      0.85265521   
    847300  -10154.894     -10289.795      134.90086      28056.344      483.38973      14020.528      1.5362471      0.85265521   
    847400  -10154.991     -10287.067      132.07642      29871.225      473.26893      13994.365      1.5391192      0.85265521   
    847500  -10156.975     -10287.54       130.56481      30029.023      467.85239      13953.418      1.5436359      0.85265521   
    847600  -10155.099     -10286.845      131.74632      31204.723      472.0861       13901.882      1.5493583      0.85265521   
    847700  -10153.244     -10289.338      136.09466      32889.086      487.6675       13851.269      1.5550197      0.85265521   
    847800  -10152.03      -10287.296      135.26565      30561.008      484.69691      13814.062      1.5592081      0.85265521   
    847900  -10154.834     -10287.466      132.63177      30861.319      475.25892      13794.128      1.5614612      0.85265521   
    848000  -10156.052     -10285.333      129.28107      31857.999      463.25237      13793.828      1.5614952      0.77720271   
    848100  -10159.11      -10288.966      129.85651      31168.621      465.31436      13813.957      1.5592198      0.77720271   
    848200  -10158.646     -10289.79       131.14375      33314.219      469.92692      13846.299      1.5555778      0.77720271   
    848300  -10160.243     -10292.487      132.24416      30934.92       473.87         13888.489      1.5508524      0.77720271   
    848400  -10162.299     -10291.012      128.71269      28409.009      461.2157       13928.761      1.5463685      0.77720271   
    848500  -10162.966     -10290.482      127.51578      28269.796      456.92683      13955.998      1.5433505      0.77720271   
    848600  -10164.879     -10291.272      126.39251      28298.365      452.9018       13966.872      1.5421489      0.77720271   
    848700  -10165.832     -10293.089      127.2574       28027.184      456.00098      13958.985      1.5430203      0.77720271   
    848800  -10163.965     -10293.006      129.04128      31319.236      462.39313      13929.885      1.5462436      0.77720271   
    848900  -10160.714     -10291.238      130.52381      31328.516      467.7055       13889.504      1.5507391      0.77720271   
    849000  -10158.917     -10288.374      129.45649      29457.569      463.88095      13843.919      1.5558453      0.90214903   
    849100  -10157.661     -10288.428      130.76675      29261.712      468.57603      13807.582      1.5599398      0.90214903   
    849200  -10159.283     -10288.231      128.94844      30925.324      462.06048      13785.344      1.5624562      0.90214903   
    849300  -10157.737     -10289.909      132.17207      33017.475      473.61168      13781.169      1.5629296      0.90214903   
    849400  -10158.341     -10290.611      132.27063      32161.265      473.96486      13793.544      1.5615273      0.90214903   
    849500  -10161.291     -10289.162      127.87064      30588.947      458.19839      13818.412      1.5587172      0.90214903   
    849600  -10160.49      -10290.322      129.83214      31781.359      465.22701      13849.491      1.5552193      0.90214903   
    849700  -10157.714     -10289.198      131.48367      31509.564      471.14496      13879.3        1.5518792      0.90214903   
    849800  -10159.423     -10289.902      130.47962      29294.173      467.54715      13902.659      1.5492717      0.90214903   
    849900  -10159.976     -10289.012      129.03604      31409.919      462.37436      13918.077      1.5475555      0.90214903   
    850000  -10161.933     -10291.66       129.72672      27261.862      464.84928      13924.476      1.5468443      0.85981789   
    850100  -10163.743     -10290.081      126.33831      28577.546      452.7076       13918.304      1.5475302      0.85981789   
    850200  -10159.675     -10289.994      130.31945      30933.515      466.97319      13901.413      1.5494106      0.85981789   
    850300  -10159.697     -10292.267      132.5698       29593.236      475.03687      13880.74       1.5517182      0.85981789   
    850400  -10161.367     -10291.212      129.84537      28671.025      465.27444      13856.12       1.5544753      0.85981789   
    850500  -10163.273     -10291.061      127.78716      30748.341      457.89925      13833.424      1.5570257      0.85981789   
    850600  -10166.975     -10296.322      129.34784      33733.394      463.49162      13812.595      1.5593737      0.85981789   
    850700  -10161.117     -10288.772      127.65573      35791.558      457.42831      13793.725      1.5615069      0.85981789   
    850800  -10162.53      -10293.061      130.53165      31595.759      467.73356      13789.538      1.561981       0.85981789   
    850900  -10163.45      -10293.533      130.0838       34255.389      466.12879      13797.877      1.561037       0.85981789   
    851000  -10162.331     -10291.483      129.1518       30985.287      462.78917      13812.105      1.5594289      0.82862835   
    851100  -10162.487     -10290.034      127.547        30213.655      457.03869      13833.569      1.5570094      0.82862835   
    851200  -10160.394     -10289.058      128.66431      32684.86       461.04235      13861.51       1.5538708      0.82862835   
    851300  -10160.699     -10289.279      128.58016      31406.878      460.74083      13895.347      1.550087       0.82862835   
    851400  -10160.424     -10289.718      129.29339      31984.397      463.29652      13927.264      1.5465346      0.82862835   
    851500  -10163.716     -10292.089      128.3736       23867.639      460.00063      13952.214      1.543769       0.82862835   
    851600  -10158.388     -10289.599      131.21059      26316.595      470.16643      13962.958      1.5425813      0.82862835   
    851700  -10157.061     -10285.308      128.24654      28757.758      459.54534      13957.341      1.543202       0.82862835   
    851800  -10154.808     -10287.849      133.0409       29369.714      476.72497      13940.031      1.5451183      0.82862835   
    851900  -10156.704     -10289.637      132.93325      27544.944      476.33921      13916.563      1.5477239      0.82862835   
    852000  -10155.586     -10289.566      133.98038      28827.612      480.09138      13889.916      1.5506931      0.82009945   
    852100  -10156.952     -10286.724      129.77107      30138.538      465.00819      13863.862      1.5536073      0.82009945   
    852200  -10156.554     -10284.898      128.34406      32920.261      459.89478      13843.605      1.5558807      0.82009945   
    852300  -10158.543     -10292.565      134.02247      30210.488      480.24222      13831.791      1.5572095      0.82009945   
    852400  -10154.706     -10285.952      131.24639      33564.824      470.29468      13824.947      1.5579804      0.82009945   
    852500  -10154.468     -10287.273      132.80482      35354.863      475.87903      13830.411      1.5573649      0.82009945   
    852600  -10154.946     -10286.543      131.59775      31553.109      471.55372      13848.551      1.5553249      0.82009945   
    852700  -10155.814     -10289.847      134.03367      32586.389      480.28237      13873.334      1.5525465      0.82009945   
    852800  -10156.06      -10289.976      133.91595      33524.668      479.86054      13899.546      1.5496187      0.82009945   
    852900  -10155.869     -10290.288      134.41872      29958.199      481.66209      13924.89       1.5467984      0.82009945   
    853000  -10155.151     -10288.505      133.35422      27787.023      477.84769      13943.563      1.5447268      0.83077252   
    853100  -10156.886     -10289.751      132.86496      30456.337      476.09453      13953.218      1.543658       0.83077252   
    853200  -10153.285     -10283.226      129.94133      30480.325      465.6183       13951.985      1.5437944      0.83077252   
    853300  -10155.729     -10287.864      132.13449      30753.1        473.47701      13941.327      1.5449746      0.83077252   
    853400  -10158.716     -10290.596      131.87976      27599.987      472.56426      13917.824      1.5475836      0.83077252   
    853500  -10160.976     -10290.017      129.04088      27685.853      462.39171      13885.965      1.5511343      0.83077252   
    853600  -10160.793     -10293.368      132.57522      31449.53       475.05631      13851.198      1.5550277      0.83077252   
    853700  -10159.349     -10289.651      130.30214      28606.465      466.91118      13814.391      1.5591709      0.83077252   
    853800  -10159.71      -10288.901      129.19088      28530.097      462.92918      13782.129      1.5628207      0.83077252   
    853900  -10164.225     -10292.012      127.78655      28728.105      457.89707      13761.425      1.5651719      0.83077252   
    854000  -10163.348     -10295.951      132.60334      33856.127      475.15705      13753.897      1.5660286      0.87405964   
    854100  -10161.755     -10291.004      129.24911      34179.332      463.13785      13756.858      1.5656916      0.87405964   
    854200  -10160.959     -10290.209      129.24919      33842.276      463.13813      13780.548      1.563          0.87405964   
    854300  -10158.835     -10291.484      132.64906      32584.99       475.32088      13820.992      1.5584262      0.87405964   
    854400  -10160.557     -10287.143      126.58595      30291.176      453.59497      13869.708      1.5529525      0.87405964   
    854500  -10161.46      -10291.426      129.96564      28693.794      465.70541      13916.836      1.5476935      0.87405964   
    854600  -10164.352     -10293.428      129.07545      31553.285      462.51558      13951.31       1.5438691      0.87405964   
    854700  -10162.552     -10289.559      127.00723      31008.324      455.10454      13965.628      1.5422862      0.87405964   
    854800  -10162.602     -10294.649      132.04695      32067.305      473.16333      13961.068      1.54279        0.87405964   
    854900  -10162.174     -10289.292      127.11738      28994.009      455.49923      13934.81       1.5456972      0.87405964   
    855000  -10160.948     -10291.999      131.05101      29332.782      469.5946       13891.096      1.5505614      0.93681831   
    855100  -10158.777     -10291.388      132.61136      27441.516      475.1858       13838.989      1.5563996      0.93681831   
    855200  -10159.179     -10288.239      129.06007      31011.336      462.46046      13790.034      1.5619248      0.93681831   
    855300  -10159.986     -10289.854      129.86722      33134.778      465.35271      13754.121      1.5660031      0.93681831   
    855400  -10159.094     -10291.45       132.3563       31285.32       474.27184      13738.266      1.5678104      0.93681831   
    855500  -10159.086     -10289.362      130.27541      30050.053      466.81539      13739.328      1.5676892      0.93681831   
    855600  -10160.621     -10290.563      129.94158      27811.533      465.61917      13757.222      1.5656501      0.93681831   
    855700  -10161.616     -10292.914      131.29764      26482.416      470.47834      13787.35       1.5622289      0.93681831   
    855800  -10158.619     -10289.417      130.79713      31345.066      468.68485      13821.21       1.5584016      0.93681831   
    855900  -10156.537     -10288.609      132.07256      31098.279      473.25511      13860.239      1.5540133      0.93681831   
    856000  -10157.479     -10290.114      132.63522      27747.794      475.27128      13898.289      1.5497588      0.94378705   
    856100  -10157.406     -10292.048      134.64127      27065.08       482.45956      13930.474      1.5461783      0.94378705   
    856200  -10157.98      -10292.206      134.22569      30193.93       480.97041      13945.548      1.544507       0.94378705   
    856300  -10159.108     -10288.176      129.06794      29058.612      462.48867      13944.551      1.5446174      0.94378705   
    856400  -10156.943     -10289.83       132.88644      29179.913      476.1715       13926.67       1.5466006      0.94378705   
    856500  -10155.292     -10287.275      131.983        31167.152      472.93419      13894.173      1.550218       0.94378705   
    856600  -10154.706     -10287.031      132.32497      33235.651      474.15958      13859.054      1.5541462      0.94378705   
    856700  -10155.41      -10288.007      132.59736      31987.748      475.13561      13829.905      1.5574219      0.94378705   
    856800  -10157.073     -10289.06       131.98646      29855.21       472.94661      13807.352      1.5599658      0.94378705   
    856900  -10158.016     -10288.711      130.69442      34705.301      468.31683      13793.189      1.5615675      0.94378705   
    857000  -10157.736     -10288.307      130.57062      31035.5        467.87323      13793.285      1.5615567      0.82402416   
    857100  -10160.856     -10289.048      128.19152      33220.545      459.34821      13804.909      1.5602418      0.82402416   
    857200  -10164.88      -10291.742      126.86137      30727.512      454.58188      13823.627      1.5581292      0.82402416   
    857300  -10163.647     -10291.543      127.89592      30022.095      458.28898      13842.227      1.5560355      0.82402416   
    857400  -10163.038     -10294.277      131.23944      30181.658      470.26981      13857.708      1.5542971      0.82402416   
    857500  -10161.997     -10289.633      127.63632      28970.929      457.35875      13865.358      1.5534396      0.82402416   
    857600  -10159.48      -10289.844      130.3634       32160.765      467.1307       13868.287      1.5531115      0.82402416   
    857700  -10162.16      -10289.871      127.71124      28915.723      457.62722      13869.604      1.5529641      0.82402416   
    857800  -10161.465     -10288.877      127.41178      29620.093      456.55417      13868.733      1.5530616      0.82402416   
    857900  -10160.279     -10290.083      129.80474      29477.018      465.12886      13863.593      1.5536374      0.82402416   
    858000  -10159.667     -10289.927      130.25994      30486.686      466.75998      13858.205      1.5542415      0.86470922   
    858100  -10160.774     -10292.389      131.61517      31119.592      471.61616      13853.56       1.5547625      0.86470922   
    858200  -10162.024     -10290.514      128.4904       30652.431      460.41918      13847.156      1.5554816      0.86470922   
    858300  -10158.002     -10290.477      132.47447      33315.461      474.69529      13841.399      1.5561286      0.86470922   
    858400  -10160.148     -10290.826      130.67819      26672.229      468.25868      13839.115      1.5563854      0.86470922   
    858500  -10160.226     -10290.983      130.75718      28036.737      468.54171      13837.307      1.5565887      0.86470922   
    858600  -10162.085     -10289.173      127.08744      28508.706      455.39197      13834.712      1.5568807      0.86470922   
    858700  -10166.924     -10292.788      125.86358      27103.349      451.0065       13834.605      1.5568927      0.86470922   
    858800  -10163.202     -10290.016      126.81471      29601.998      454.4147       13828.998      1.557524       0.86470922   
    858900  -10160.53      -10289.309      128.77843      32394.507      461.45126      13822.716      1.5582318      0.86470922   
    859000  -10157.366     -10286.681      129.3152       31993.404      463.37468      13818.853      1.5586675      0.97014681   
    859100  -10159.633     -10288.882      129.24908      33566.147      463.13775      13822.217      1.5582881      0.97014681   
    859200  -10160.196     -10290.942      130.74585      32942.828      468.50111      13832.761      1.5571003      0.97014681   
    859300  -10161.757     -10290.94       129.18291      29833.371      462.90064      13848.403      1.5553415      0.97014681   
    859400  -10162.013     -10294.626      132.6136       28347.863      475.1938       13864.078      1.553583       0.97014681   
    859500  -10157.286     -10288.038      130.75222      28150.141      468.52394      13874.459      1.5524206      0.97014681   
    859600  -10159.045     -10288.293      129.24808      29862.361      463.13415      13885.333      1.5512049      0.97014681   
    859700  -10159.106     -10288.679      129.57308      27834.197      464.29873      13895.18       1.5501056      0.97014681   
    859800  -10160.994     -10289.711      128.71678      29823.046      461.23037      13902.439      1.5492963      0.97014681   
    859900  -10160.279     -10289.748      129.46853      30231.251      463.92411      13901.767      1.5493711      0.97014681   
    860000  -10157.441     -10290.016      132.57464      30100.438      475.0542       13894.4        1.5501926      0.88557462   
    860100  -10163.016     -10287.867      124.85047      29886.411      447.37622      13879.756      1.5518282      0.88557462   
    860200  -10161.146     -10289.68       128.5343       31172.339      460.57647      13857.478      1.5543229      0.88557462   
    860300  -10161.289     -10290.346      129.05668      27050.468      462.44833      13832.077      1.5571773      0.88557462   
    860400  -10158.411     -10290.316      131.9049       30759.704      472.65432      13811.781      1.5594655      0.88557462   
    860500  -10157.613     -10292.479      134.86625      31111.379      483.26573      13799.866      1.560812       0.88557462   
    860600  -10158.089     -10288.264      130.17448      29971.86       466.45374      13796.188      1.5612281      0.88557462   
    860700  -10160.804     -10289          128.19626      31623.382      459.36517      13800.245      1.5607691      0.88557462   
    860800  -10159.675     -10288.595      128.92009      31054.38       461.95888      13810.923      1.5595624      0.88557462   
    860900  -10162.578     -10293.6        131.02166      30024.832      469.48944      13830.404      1.5573657      0.88557462   
