LAMMPS (27 Jun 2024)
KOKKOS mode with Kokkos version 4.3.1 is enabled (src/KOKKOS/kokkos.cpp:72)
  will use up to 1 GPU(s) per node
WARNING: When using a single thread, the Kokkos Serial backend (i.e. Makefile.kokkos_mpi_only) gives better performance than the OpenMP backend (src/KOKKOS/kokkos.cpp:202)
  using 1 OpenMP thread(s) per MPI task
package kokkos
package kokkos newton on neigh half

units		metal						## E in [eV], t in [ps], P in [10000 Pa], l in [A]
atom_style	atomic						## mass x y z vx vy vz

neighbor	0.5 bin						## neighbor list, skin = 0.5 Angstrom
neigh_modify	every 2 delay 10 check yes			## update of neighbor list

############################## main variables
variable        seed equal 72922

variable	temperature equal 280
variable	tempDamp equal 0.1

variable        pressure equal 5000
variable        pressureDamp equal 1.0 				# This is 1 ps

##############################

read_data water.dat
Reading data file ...
  triclinic box = (0 0 0) to (23.34 21.468634 16.394175) with tilt (-9.157148 -9.15715 7.607424)
WARNING: Triclinic box skew is large. LAMMPS will run inefficiently. (src/domain.cpp:221)
  1 by 1 by 1 MPI processor grid
  reading atoms ...
  972 atoms
  read_data CPU = 0.008 seconds

mass		1 1.008    # H
mass		2 15.9994  # O


pair_style	pace/extrapolation
ACE/AL version: 2023.11.25
pair_coeff	* * /pc2/users/a/acepdw01/work/phase_diagram/pot_dir/interim_potential_ladder_step_1.yaml /pc2/users/a/acepdw01/work/phase_diagram/pot_dir/interim_potential_ladder_step_1.asi H O
Loading /pc2/users/a/acepdw01/work/phase_diagram/pot_dir/interim_potential_ladder_step_1.yaml
Total number of basis functions
	H: 23 (r=1) 664 (r>1)
	O: 23 (r=1) 664 (r>1)
Mapping LAMMPS atom type #1(H) -> ACE species type #0
Mapping LAMMPS atom type #2(O) -> ACE species type #1
Loading ASI /pc2/users/a/acepdw01/work/phase_diagram/pot_dir/interim_potential_ladder_step_1.asi
LINEAR ASI is loaded

fix pace_gamma all pair 1000 pace/extrapolation gamma 1
compute max_pace_gamma all reduce max f_pace_gamma
variable dump_skip equal "c_max_pace_gamma < 10"

dump pace_dump all custom 1000 extrapolative_structures.dump id type x y z f_pace_gamma
dump_modify pace_dump skip v_dump_skip
dump_modify pace_dump element H O

variable max_pace_gamma equal c_max_pace_gamma

timestep	0.0005						## timestep = 0.0005*ps = 0.5 fs

thermo		100
thermo_style custom step etotal pe ke press temp vol density c_max_pace_gamma


min_style cg
minimize 0.0 5.0e-4 10000 100000

CITE-CITE-CITE-CITE-CITE-CITE-CITE-CITE-CITE-CITE-CITE-CITE-CITE

Your simulation uses code contributions which should be cited:

- Type Label Framework: https://doi.org/10.1021/acs.jpcb.3c08419

@Article{Gissinger24,
 author = {Jacob R. Gissinger, Ilia Nikiforov, Yaser Afshar, Brendon Waters, Moon-ki Choi, Daniel S. Karls, Alexander Stukowski, Wonpil Im, Hendrik Heinz, Axel Kohlmeyer, and Ellad B. Tadmor},
 title = {Type Label Framework for Bonded Force Fields in LAMMPS},
 journal = {J. Phys. Chem. B},
 year =    2024,
 volume =  128,
 number =  13,
 pages =   {3282–-3297}
}

CITE-CITE-CITE-CITE-CITE-CITE-CITE-CITE-CITE-CITE-CITE-CITE-CITE

Switching to 'neigh_modify every 1 delay 0 check yes' setting during minimization
Neighbor list info ...
  update: every = 1 steps, delay = 0 steps, check = yes
  max neighbors/atom: 2000, page size: 100000
  master list distance cutoff = 6.5
  ghost atom cutoff = 6.5
  binsize = 6.5, bins = 7 5 3
  1 neighbor lists, perpetual/occasional/extra = 1 0 0
  (1) pair pace/extrapolation/kk, perpetual
      attributes: full, newton on, kokkos_device
      pair build: full/bin/kk/device
      stencil: full/bin/3d
      bin: kk/device
WARNING: Fix with atom-based arrays not compatible with sending data in Kokkos communication, switching to classic exchange/border communication (src/KOKKOS/comm_kokkos.cpp:754)
WARNING: Fix with atom-based arrays not compatible with Kokkos sorting on device, switching to classic host sorting (src/KOKKOS/atom_kokkos.cpp:216)
Per MPI rank memory allocation (min/avg/max) = 777.8 | 777.8 | 777.8 Mbytes
   Step         TotEng         PotEng         KinEng         Press           Temp          Volume        Density     c_max_pace_gamma
         0  -4629.8845     -4629.8845      0              19281.688      0              8214.7591      1.1798944      7.700355     
       100  -4698.3625     -4698.3625      0             -7998.344       0              8214.7591      1.1798944      7.700355     
       200  -4698.384      -4698.384       0             -8095.8802      0              8214.7591      1.1798944      7.700355     
       211  -4698.384      -4698.384       0             -8095.9653      0              8214.7591      1.1798944      7.700355     
Loop time of 1.12143 on 1 procs for 211 steps with 972 atoms

99.5% CPU use with 1 MPI tasks x 1 OpenMP threads

Minimization stats:
  Stopping criterion = force tolerance
  Energy initial, next-to-last, final = 
     -4629.88450587203  -4698.38398317787  -4698.38398318376
  Force two-norm initial, final = 81.896981 0.00036013336
  Force max component initial, final = 12.801874 1.9928813e-05
  Final line search alpha, max atom move = 1 1.9928813e-05
  Iterations, force evaluations = 211 419

MPI task timing breakdown:
Section |  min time  |  avg time  |  max time  |%varavg| %total
---------------------------------------------------------------
Pair    | 0.96149    | 0.96149    | 0.96149    |   0.0 | 85.74
Neigh   | 0.002359   | 0.002359   | 0.002359   |   0.0 |  0.21
Comm    | 0.012796   | 0.012796   | 0.012796   |   0.0 |  1.14
Output  | 0.00026341 | 0.00026341 | 0.00026341 |   0.0 |  0.02
Modify  | 0.089618   | 0.089618   | 0.089618   |   0.0 |  7.99
Other   |            | 0.0549     |            |       |  4.90

Nlocal:            972 ave         972 max         972 min
Histogram: 1 0 0 0 0 0 0 0 0 0
Nghost:           3683 ave        3683 max        3683 min
Histogram: 1 0 0 0 0 0 0 0 0 0
Neighs:              0 ave           0 max           0 min
Histogram: 1 0 0 0 0 0 0 0 0 0
FullNghs:       131994 ave      131994 max      131994 min
Histogram: 1 0 0 0 0 0 0 0 0 0

Total # of neighbors = 131994
Ave neighs/atom = 135.7963
Neighbor list builds = 6
Dangerous builds = 0

################## equilibration of main calculation
# Equilibrate to specified number of ice

fix             3 all nph tri ${pressure} ${pressure} ${pressureDamp}
fix             3 all nph tri 5000 ${pressure} ${pressureDamp}
fix             3 all nph tri 5000 5000 ${pressureDamp}
fix             3 all nph tri 5000 5000 1
fix             4 all temp/csvr ${temperature} ${temperature} ${tempDamp} ${seed}
fix             4 all temp/csvr 280 ${temperature} ${tempDamp} ${seed}
fix             4 all temp/csvr 280 280 ${tempDamp} ${seed}
fix             4 all temp/csvr 280 280 0.1 ${seed}
fix             4 all temp/csvr 280 280 0.1 72922
velocity 	all create ${temperature} ${seed} dist gaussian
velocity 	all create 280 ${seed} dist gaussian
velocity 	all create 280 72922 dist gaussian

run 200000
WARNING: Fix with atom-based arrays not compatible with Kokkos sorting on device, switching to classic host sorting (src/KOKKOS/atom_kokkos.cpp:216)
Per MPI rank memory allocation (min/avg/max) = 779.6 | 779.6 | 779.6 Mbytes
   Step         TotEng         PotEng         KinEng         Press           Temp          Volume        Density     c_max_pace_gamma
       211  -4663.2407     -4698.384       35.143248     -3526.4917      280            8214.7591      1.1798944      7.700355     
       300  -4656.3424     -4673.6559      17.313507     -4831.58        137.94348      8171.4963      1.1861412      7.700355     
       400  -4649.1351     -4672.6247      23.489559     -669.38924      187.1505       8057.1061      1.2029814      7.700355     
       500  -4645.0782     -4670.1199      25.041693      6551.9534      199.51696      7918.4391      1.2240479      7.700355     
       600  -4641.6469     -4670.9828      29.335946      7778.048       233.73095      7810.1342      1.241022       7.700355     
       700  -4639.3729     -4669.0709      29.698057      9409.1984      236.61603      7755.1187      1.2498259      7.700355     
       800  -4637.3608     -4668.3595      30.998778      11521.679      246.97939      7760.2841      1.248994       7.700355     
       900  -4636.2646     -4668.0704      31.805778      6762.5389      253.40907      7815.2453      1.2402104      7.700355     
      1000  -4636.7048     -4667.5952      30.890346      6971.2899      246.11547      7894.5394      1.2277535      0.81544509   
      1100  -4635.2398     -4668.0755      32.835709      6128.2465      261.61493      7973.1789      1.2156442      0.81544509   
      1200  -4633.4942     -4665.396       31.901793      7223.8957      254.17406      8034.4909      1.2063675      0.81544509   
      1300  -4632.911      -4665.2801      32.369071      4091.5442      257.89704      8076.091       1.2001534      0.81544509   
      1400  -4630.8502     -4663.3961      32.545898      4399.4098      259.30589      8094.6024      1.1974088      0.81544509   
      1500  -4630.4713     -4664.7898      34.318518      3786.9544      273.42905      8091.4022      1.1978824      0.81544509   
      1600  -4629.3568     -4663.3749      34.018128      2425.1371      271.03573      8069.8412      1.2010829      0.81544509   
      1700  -4627.9166     -4663.1295      35.212923      2923.498       280.55513      8040.3882      1.2054826      0.81544509   
      1800  -4628.0879     -4664.4447      36.356844      6388.8857      289.66919      8013.7038      1.2094967      0.81544509   
      1900  -4628.924      -4663.0634      34.139374      5116.8057      272.00174      7992.6049      1.2126895      0.81544509   
      2000  -4629.028      -4664.2769      35.248944      4902.6893      280.84212      7982.1903      1.2142718      0.65553794   
      2100  -4630.065      -4664.6256      34.560602      7207.9235      275.35783      7981.9872      1.2143027      0.65553794   
      2200  -4630.1341     -4663.9841      33.850053      4034.2928      269.69661      7988.1349      1.2133681      0.65553794   
      2300  -4630.6276     -4664.0076      33.379991      7592.1087      265.95144      7999.8086      1.2115975      0.65553794   
      2400  -4630.4735     -4664.1776      33.704078      6522.8458      268.53357      8013.0951      1.2095886      0.65553794   
      2500  -4631.3318     -4665.0958      33.763983      1889.2474      269.01086      8024.7977      1.2078246      0.65553794   
      2600  -4629.3497     -4664.5649      35.215237      2719.1604      280.57356      8031.5919      1.2068029      0.65553794   
      2700  -4627.4832     -4662.8071      35.323896      5570.1484      281.43929      8035.9838      1.2061433      0.65553794   
      2800  -4626.6061     -4662.8962      36.290033      8418.7451      289.13688      8040.9215      1.2054027      0.65553794   
      2900  -4626.6028     -4661.8687      35.265853      5718.482       280.97684      8046.4918      1.2045682      0.65553794   
      3000  -4626.8054     -4662.6225      35.817093      2207.5786      285.36879      8055.6408      1.2032002      0.65436393   
      3100  -4627.6038     -4662.5696      34.965782      515.96525      278.58605      8062.2378      1.2022156      0.65436393   
      3200  -4627.1147     -4662.2661      35.151382      3274.6694      280.06481      8061.16        1.2023764      0.65436393   
      3300  -4626.7634     -4660.4908      33.727443      3712.1738      268.71972      8054.8962      1.2033114      0.65436393   
      3400  -4627.8512     -4662.4292      34.577978      7516.7422      275.49627      8044.5211      1.2048633      0.65436393   
      3500  -4628.7844     -4662.6162      33.831713      7423.0156      269.55049      8028.9501      1.2072         0.65436393   
      3600  -4629.7218     -4663.6698      33.94797       4146.5657      270.47675      8013.0552      1.2095946      0.65436393   
      3700  -4630.0624     -4664.0875      34.025117      4067.9285      271.09141      7999.8277      1.2115946      0.65436393   
      3800  -4629.5916     -4663.7351      34.143504      6110.051       272.03464      7992.2197      1.212748       0.65436393   
      3900  -4628.6452     -4664.0641      35.418888      5154.4386      282.19613      7992.9819      1.2126324      0.65436393   
      4000  -4627.5346     -4662.5429      35.008288      929.37213      278.92472      8001.3773      1.21136        0.65747368   
      4100  -4625.6755     -4661.6479      35.972381      3635.6664      286.60603      8018.726       1.2087392      0.65747368   
      4200  -4625.1273     -4661.3327      36.205357      5901.3425      288.46223      8045.121       1.2047735      0.65747368   
      4300  -4625.318      -4660.7261      35.408089      2395.1576      282.11009      8075.7768      1.2002001      0.65747368   
      4400  -4623.6931     -4659.4928      35.799764      5512.8243      285.23071      8104.4452      1.1959546      0.65747368   
      4500  -4624.3096     -4661.1602      36.850579      2912.3834      293.60297      8125.6779      1.1928295      0.65747368   
      4600  -4625.2789     -4661.4469      36.167958      2107.8365      288.16426      8130.5666      1.1921123      0.65747368   
      4700  -4624.4119     -4660.745       36.333172      3124.4739      289.48059      8112.1381      1.1948204      0.65747368   
      4800  -4624.4129     -4660.6484      36.235546      8021.4226      288.70276      8075.3194      1.2002681      0.65747368   
      4900  -4623.7082     -4660.4364      36.728231      5670.252       292.62818      8029.6546      1.2070941      0.65747368   
      5000  -4624.6879     -4661.6138      36.925826      6811.8038      294.2025       7986.7986      1.2135712      0.66869616   
      5100  -4624.745      -4661.0484      36.30332       8381.5085      289.24275      7957.7595      1.2179997      0.66869616   
      5200  -4625.3911     -4662.2778      36.886712      6692.475       293.89086      7952.1874      1.2188531      0.66869616   
      5300  -4625.0994     -4663.3148      38.215383      4933.6413      304.4769       7974.559       1.2154338      0.66869616   
      5400  -4625.3979     -4662.1859      36.788072      6059.1445      293.10496      8018.5882      1.20876        0.66869616   
      5500  -4625.6074     -4661.2531      35.645712      4721.3454      284.00333      8074.0509      1.2004567      0.66869616   
      5600  -4625.7656     -4661.9536      36.188061      1705.6666      288.32444      8125.5404      1.1928497      0.66869616   
      5700  -4624.2343     -4660.4974      36.263146      108.62588      288.92266      8159.0156      1.1879556      0.66869616   
      5800  -4624.8446     -4660.6651      35.820533      2966.9401      285.3962       8166.2145      1.1869084      0.66869616   
      5900  -4623.515      -4658.208       34.693035      3813.5342      276.41298      8143.4053      1.1902328      0.66869616   
      6000  -4622.3423     -4659.685       37.342681      5707.3122      297.52374      8103.2488      1.1961312      0.66910951   
      6100  -4622.9537     -4658.9319      35.978215      4540.2141      286.6525       8057.3413      1.2029462      0.66910951   
      6200  -4623.5478     -4659.9156      36.367759      2169.8848      289.75615      8013.5897      1.2095139      0.66910951   
      6300  -4622.9928     -4659.518       36.52518       3853.7129      291.01039      7983.5928      1.2140585      0.66910951   
      6400  -4623.8328     -4661.4855      37.652697      4570.3101      299.99376      7974.0356      1.2155136      0.66910951   
      6500  -4624.3796     -4661.4745      37.094907      4630.5809      295.54963      7987.7032      1.2134337      0.66910951   
      6600  -4625.943      -4659.4573      33.51431       4529.0447      267.02161      8017.4243      1.2089354      0.66910951   
      6700  -4626.6875     -4662.8376      36.150189      4292.0353      288.02269      8052.1199      1.2037263      0.66910951   
      6800  -4626.234      -4661.7428      35.508881      3950.7735      282.91314      8080.5507      1.1994911      0.66910951   
      6900  -4626.1842     -4661.6706      35.486334      3124.6331      282.73349      8100.6346      1.1965172      0.66910951   
      7000  -4626.1133     -4660.7087      34.595386      3002.5849      275.63497      8106.8205      1.1956042      0.6864973    
      7100  -4626.7078     -4661.9488      35.240977      5157.6021      280.77864      8097.2846      1.1970122      0.6864973    
      7200  -4627.0198     -4662.2509      35.231034      4041.0481      280.69942      8073.0475      1.2006059      0.6864973    
      7300  -4627.103      -4661.1431      34.040155      4097.9052      271.21122      8043.9544      1.2049482      0.6864973    
      7400  -4626.7634     -4661.7937      35.030208      3527.5895      279.09937      8019.9362      1.2085568      0.6864973    
      7500  -4626.9968     -4662.714       35.717213      6178.7391      284.573        8008.8835      1.2102247      0.6864973    
      7600  -4626.7605     -4663.0726      36.312187      8384.129       289.31339      8008.0196      1.2103552      0.6864973    
      7700  -4626.8358     -4662.9954      36.159598      6159.1357      288.09766      8016.9244      1.2090108      0.6864973    
      7800  -4627.1195     -4663.6393      36.519842      3496.3         290.96786      8034.6101      1.2063496      0.6864973    
      7900  -4627.276      -4662.5664      35.290446      2340.3457      281.17278      8052.5258      1.2036656      0.6864973    
      8000  -4626.0945     -4661.0111      34.91655       4547.7542      278.19381      8068.2359      1.2013219      0.66810751   
      8100  -4627.3076     -4661.5424      34.234875      3101.5434      272.76263      8082.2302      1.1992418      0.66810751   
      8200  -4626.7047     -4662.5179      35.813125      1637.3901      285.33717      8089.9012      1.1981047      0.66810751   
      8300  -4624.9332     -4660.0269      35.09363       4096.415       279.60467      8088.39        1.1983285      0.66810751   
      8400  -4624.8511     -4661.5938      36.742679      1931.9143      292.74329      8078.3302      1.1998208      0.66810751   
      8500  -4625.6207     -4660.2437      34.623025      4293.2002      275.85518      8061.0068      1.2023992      0.66810751   
      8600  -4625.9893     -4662.1006      36.111386      5065.5534      287.71353      8044.9625      1.2047972      0.66810751   
      8700  -4626.4618     -4661.434       34.972197      7605.43        278.63717      8031.5449      1.20681        0.66810751   
      8800  -4626.8554     -4662.3998      35.544357      9674.0453      283.19579      8020.2486      1.2085097      0.66810751   
      8900  -4625.9965     -4660.9293      34.932779      7572.4356      278.32311      8013.4418      1.2095363      0.66810751   
      9000  -4626.4252     -4661.6793      35.254145      6499.2682      280.88356      8017.5392      1.2089181      0.65657119   
      9100  -4625.9701     -4660.5342      34.564049      5850.1487      275.38529      8029.2211      1.2071592      0.65657119   
      9200  -4626.2348     -4660.9095      34.674739      7815.8315      276.2672       8042.4678      1.2051709      0.65657119   
      9300  -4625.6098     -4662.3596      36.749823      5626.2568      292.80021      8056.7124      1.2030401      0.65657119   
      9400  -4626.2614     -4660.5542      34.292757      3554.8535      273.22381      8069.6494      1.2011115      0.65657119   
      9500  -4628.0313     -4662.3778      34.346494      4912.8795      273.65195      8075.4214      1.200253       0.65657119   
      9600  -4629.2223     -4661.998       32.775633      6575.5625      261.13629      8069.4861      1.2011358      0.65657119   
      9700  -4627.851      -4663.028       35.177093      2333.5519      280.26966      8049.4322      1.2041282      0.65657119   
      9800  -4628.6977     -4663.1169      34.419218      3458.3152      274.23137      8019.3887      1.2086393      0.65657119   
      9900  -4627.9908     -4662.1121      34.121321      7310.8732      271.85791      7986.7107      1.2135845      0.65657119   
     10000  -4628.7363     -4664.5837      35.847376      7709.4264      285.61006      7963.9209      1.2170573      0.64874556   
     10100  -4629.6806     -4663.3683      33.687723      6967.0517      268.40326      7954.7372      1.2184624      0.64874556   
     10200  -4627.5463     -4662.9578      35.411478      6578.6465      282.1371       7964.6043      1.2169529      0.64874556   
     10300  -4629.6397     -4662.5039      32.864223      4322.6206      261.84211      7992.527       1.2127014      0.64874556   
     10400  -4628.6466     -4662.3172      33.670576      2165.6078      268.26664      8032.7308      1.2066318      0.64874556   
     10500  -4629.9165     -4664.3178      34.401341      4762.2106      274.08894      8075.4846      1.2002436      0.64874556   
     10600  -4628.6268     -4663.548       34.921175      3415.6438      278.23065      8107.1919      1.1955494      0.64874556   
     10700  -4627.7289     -4661.9656      34.236753      3793.7615      272.7776       8123.8937      1.1930915      0.64874556   
     10800  -4628.0076     -4662.6343      34.62664       2878.5081      275.88398      8125.5464      1.1928488      0.64874556   
     10900  -4627.8756     -4662.6281      34.75257       725.66577      276.88731      8109.6699      1.1951841      0.64874556   
     11000  -4628.253      -4662.4625      34.209474      4338.1296      272.56026      8077.9372      1.1998791      0.63845281   
     11100  -4628.6216     -4662.9124      34.290772      6677.1463      273.20799      8035.5502      1.2062084      0.63845281   
     11200  -4627.7982     -4661.6234      33.825254      6273.2491      269.49903      7994.8242      1.2123529      0.63845281   
     11300  -4626.1514     -4661.0828      34.931363      8395.5929      278.31183      7967.5761      1.216499       0.63845281   
     11400  -4625.8108     -4661.5743      35.763499      7107.9892      284.94178      7961.342       1.2174516      0.63845281   
     11500  -4627.5115     -4660.9009      33.389328      6422.4143      266.02583      7976.7281      1.2151033      0.63845281   
     11600  -4628.097      -4663.7659      35.668962      6708.0532      284.18857      8003.7717      1.2109976      0.63845281   
     11700  -4628.2694     -4663.1079      34.838568      4433.2779      277.5725       8031.2617      1.2068525      0.63845281   
     11800  -4628.0588     -4662.122       34.063191      4340.2587      271.39476      8053.5579      1.2035114      0.63845281   
     11900  -4628.0197     -4662.2161      34.196383      2321.2025      272.45595      8069.7447      1.2010973      0.63845281   
     12000  -4628.1923     -4662.4544      34.26209       3643.3572      272.97947      8076.0794      1.2001552      0.62053957   
     12100  -4626.9626     -4661.5382      34.57559       3406.6113      275.47724      8070.4568      1.2009913      0.62053957   
     12200  -4626.9255     -4662.0742      35.14867       1545.0705      280.0432       8054.3719      1.2033897      0.62053957   
     12300  -4625.7342     -4660.9619      35.227651      3493.1518      280.67247      8035.0533      1.206283       0.62053957   
     12400  -4625.3689     -4661.6792      36.31028       6846.945       289.2982       8021.7952      1.2082767      0.62053957   
     12500  -4626.1103     -4660.2963      34.186001      8049.1159      272.37324      8017.4283      1.2089348      0.62053957   
     12600  -4625.6262     -4661.4686      35.842421      5974.7337      285.57058      8021.8072      1.2082749      0.62053957   
     12700  -4627.2307     -4662.3467      35.115955      4061.7602      279.78255      8031.7507      1.206779       0.62053957   
     12800  -4627.7906     -4662.0093      34.218662      3680.8589      272.63346      8042.0727      1.2052301      0.62053957   
     12900  -4627.8991     -4663.657       35.757913      6918.484       284.89727      8048.9413      1.2042016      0.62053957   
     13000  -4627.7432     -4662.5787      34.835586      4349.0854      277.54874      8051.1969      1.2038643      0.63530961   
     13100  -4626.796      -4662.4723      35.67625       4268.5063      284.24664      8049.3832      1.2041355      0.63530961   
     13200  -4626.5045     -4661.2759      34.771373      2066.0913      277.03713      8044.6723      1.2048407      0.63530961   
     13300  -4626.7634     -4661.9953      35.231832      2810.6121      280.70578      8038.262       1.2058015      0.63530961   
     13400  -4626.8851     -4661.7402      34.855035      7650.955       277.70369      8032.4936      1.2066674      0.63530961   
     13500  -4627.2147     -4662.8757      35.66091       8010.5795      284.12442      8029.7044      1.2070866      0.63530961   
     13600  -4628.2618     -4663.915       35.653221      4018.8656      284.06316      8031.0456      1.206885       0.63530961   
     13700  -4629.349      -4663.5198      34.17079       3114.8509      272.25205      8034.4368      1.2063756      0.63530961   
     13800  -4629.0177     -4663.367       34.349271      3524.2347      273.67407      8038.0514      1.2058331      0.63530961   
     13900  -4629.2374     -4663.3485      34.111104      7747.7807      271.7765       8039.8106      1.2055692      0.63530961   
     14000  -4629.8659     -4664.1471      34.281197      3898.7093      273.1317       8038.6179      1.2057481      0.62919834   
     14100  -4628.5834     -4662.779       34.195607      5406.6332      272.44977      8032.0371      1.206736       0.62919834   
     14200  -4627.8488     -4662.7654      34.916643      2221.7949      278.19454      8026.5579      1.2075598      0.62919834   
     14300  -4627.7465     -4663.0892      35.342656      2771.3784      281.58876      8020.1758      1.2085207      0.62919834   
     14400  -4626.5654     -4662.3391      35.773698      5937.7943      285.02304      8015.072       1.2092903      0.62919834   
     14500  -4627.9344     -4663.6839      35.749484      9450.397       284.83012      8015.6486      1.2092033      0.62919834   
     14600  -4628.5918     -4662.5788      33.986957      7400.1681      270.78738      8021.3263      1.2083473      0.62919834   
     14700  -4628.8033     -4663.2384      34.435024      3140.6844      274.3573       8027.7044      1.2073873      0.62919834   
     14800  -4630.5048     -4665.038       34.533249      6704.3864      275.1399       8030.9094      1.2069055      0.62919834   
     14900  -4629.6051     -4665.1979      35.592757      9959.4516      283.58141      8030.6606      1.2069429      0.62919834   
     15000  -4628.9213     -4663.7253      34.804038      8166.6894      277.29738      8025.6957      1.2076895      0.66938669   
     15100  -4626.5467     -4661.9879      35.441188      5595.1993      282.3738       8021.534       1.2083161      0.66938669   
     15200  -4626.5533     -4662.6588      36.105447      3017.6613      287.66621      8022.1737      1.2082197      0.66938669   
     15300  -4626.1219     -4661.7867      35.66478       6714.1511      284.15524      8026.4542      1.2075754      0.66938669   
     15400  -4626.6181     -4662.1981      35.580027      7165.4356      283.47998      8034.8701      1.2063105      0.66938669   
     15500  -4627.0245     -4662.102       35.077524      5533.8888      279.47635      8044.1368      1.2049209      0.66938669   
     15600  -4627.4134     -4662.807       35.393604      5035.571       281.99468      8049.3763      1.2041366      0.66938669   
     15700  -4627.6274     -4662.3954      34.767968      4529.5303      277.00999      8049.8062      1.2040723      0.66938669   
     15800  -4626.4959     -4662.0879      35.591944      1582.1207      283.57493      8046.5551      1.2045588      0.66938669   
     15900  -4626.5242     -4661.5509      35.02676       2092.1757      279.07189      8041.1407      1.2053698      0.66938669   
     16000  -4627.5006     -4662.9197      35.419116      4261.6947      282.19794      8038.0914      1.2058271      0.63278312   
     16100  -4627.5201     -4664.1867      36.666667      8246.5015      292.13768      8034.518       1.2063634      0.63278312   
     16200  -4626.0823     -4662.5938      36.51153       2971.2756      290.90164      8030.3992      1.2069821      0.63278312   
     16300  -4625.9419     -4660.1716      34.22965       5308.0291      272.721        8023.4764      1.2080236      0.63278312   
     16400  -4626.8746     -4661.0636      34.188947      4970.6286      272.39671      8021.4614      1.208327       0.63278312   
     16500  -4626.5819     -4662.261       35.679122      5686.9822      284.26952      8021.8583      1.2082672      0.63278312   
     16600  -4627.0304     -4661.8632      34.832799      6346.9492      277.52653      8026.598       1.2075537      0.63278312   
     16700  -4626.4255     -4662.4994      36.073904      5395.7406      287.4149       8034.502       1.2063658      0.63278312   
     16800  -4627.0421     -4663.3247      36.282649      6148.5702      289.07805      8043.1033      1.2050757      0.63278312   
     16900  -4627.365      -4662.0355      34.670574      2826.3719      276.23402      8051.7754      1.2037778      0.63278312   
     17000  -4626.8406     -4662.8901      36.049513      348.58393      287.22057      8060.2484      1.2025124      0.6632988    
     17100  -4626.2867     -4661.946       35.659245      2731.2984      284.11115      8064.684       1.201851       0.6632988    
     17200  -4626.9466     -4662.3231      35.376552      4767.4305      281.85882      8066.9954      1.2015066      0.6632988    
     17300  -4626.5963     -4661.2792      34.682849      3960.263       276.33182      8067.4947      1.2014323      0.6632988    
     17400  -4626.4702     -4661.5954      35.125185      3057.8712      279.85608      8065.159       1.2017802      0.6632988    
     17500  -4627.8646     -4663.1667      35.302129      4881.8531      281.26587      8060.0287      1.2025452      0.6632988    
     17600  -4627.1452     -4663.1864      36.041178      4365.1291      287.15416      8047.3963      1.2044329      0.6632988    
     17700  -4627.2        -4661.1415      33.941413      4648.9241      270.42451      8031.7387      1.2067808      0.6632988    
     17800  -4627.2852     -4663.4888      36.203648      6156.1232      288.44862      8018.8044      1.2087274      0.6632988    
     17900  -4626.7516     -4662.7678      36.016224      8340.5225      286.95534      8012.1634      1.2097292      0.6632988    
     18000  -4627.1928     -4663.4519      36.259097      6461.8984      288.8904       8011.6397      1.2098083      0.67120445   
     18100  -4627.2763     -4662.3563      35.079968      5560.5849      279.49582      8016.2984      1.2091052      0.67120445   
     18200  -4625.6454     -4661.5517      35.906326      4185.1005      286.07974      8024.5447      1.2078627      0.67120445   
     18300  -4624.5906     -4659.5805      34.98995       6012.7852      278.77861      8035.6033      1.2062005      0.67120445   
     18400  -4623.7865     -4659.7781      35.991659      4537.6812      286.75962      8048.8274      1.2042187      0.67120445   
     18500  -4625.1121     -4661.5907      36.478554      1146.9247      290.63891      8060.5312      1.2024702      0.67120445   
     18600  -4626.0118     -4661.6964      35.684591      4579.8302      284.31309      8068.047       1.20135        0.67120445   
     18700  -4626.8978     -4662.7041      35.806349      7227.3504      285.28319      8068.9568      1.2012146      0.67120445   
     18800  -4625.8809     -4661.6248      35.743969      9402.3926      284.78618      8058.8443      1.2027219      0.67120445   
     18900  -4624.3459     -4660.3157      35.969826      6572.1768      286.58567      8042.9852      1.2050934      0.67120445   
     19000  -4625.2111     -4661.175       35.963905      4977.5949      286.53849      8026.6618      1.2075441      0.66528509   
     19100  -4625.6919     -4662.2273      36.535439      5133.9316      291.09213      8011.7219      1.2097959      0.66528509   
     19200  -4624.555      -4660.2712      35.716187      9167.7332      284.56483      8001.2436      1.2113802      0.66528509   
     19300  -4623.8171     -4659.9023      36.085197      8209.3367      287.50488      8003.5783      1.2110269      0.66528509   
     19400  -4623.4176     -4660.1258      36.708192      6288.4169      292.46852      8021.2131      1.2083644      0.66528509   
     19500  -4624.2429     -4659.5513      35.308403      4460.5513      281.31585      8052.7556      1.2036313      0.66528509   
     19600  -4624.7043     -4660.8353      36.131061      4171.485       287.87029      8089.1289      1.1982191      0.66528509   
     19700  -4625.9529     -4663.3945      37.44163       981.95611      298.3121       8118.0816      1.1939457      0.66528509   
     19800  -4626.7283     -4662.5498      35.821476      2664.857       285.4037       8128.0852      1.1924762      0.66528509   
     19900  -4626.7858     -4661.6725      34.886746      3307.2636      277.95635      8113.3438      1.1946429      0.66528509   
     20000  -4627.7768     -4661.6345      33.857746      4068.7377      269.7579       8078.0582      1.1998612      0.71312516   
     20100  -4628.7705     -4662.6378      33.8673        3262.1098      269.83402      8026.6222      1.2075501      0.71312516   
     20200  -4627.3645     -4663.1008      35.736379      1576.4839      284.72571      7969.8663      1.2161494      0.71312516   
     20300  -4627.7703     -4661.4647      33.694346      8192.4357      268.45603      7923.0504      1.2233355      0.71312516   
     20400  -4628.1093     -4663.7256      35.6163        8527.6898      283.76899      7899.6958      1.2269521      0.71312516   
     20500  -4627.2118     -4662.6701      35.458355      7904.759       282.51058      7903.8493      1.2263073      0.71312516   
     20600  -4626.6707     -4662.0792      35.408501      7605.3413      282.11338      7936.7049      1.2212308      0.71312516   
     20700  -4627.2398     -4663.8647      36.624924      3785.7367      291.80509      7993.8691      1.2124978      0.71312516   
     20800  -4628.1576     -4664.2599      36.102294      5778.8614      287.64109      8056.7578      1.2030334      0.71312516   
     20900  -4629.4755     -4662.4416      32.966135      4780.5311      262.65409      8107.6652      1.1954796      0.71312516   
     21000  -4628.014      -4662.3873      34.373297      5622.8799      273.86549      8133.717       1.1916506      0.63760944   
     21100  -4627.3823     -4663.3308      35.94849       7271.08        286.41567      8127.6204      1.1925444      0.63760944   
     21200  -4628.3202     -4661.4437      33.123536      4030.3678      263.90816      8092.9359      1.1976554      0.63760944   
     21300  -4627.9205     -4662.8323      34.911823      1493.7596      278.15614      8040.8704      1.2054103      0.63760944   
     21400  -4627.4798     -4662.2462      34.766363      4878.793       276.99721      7987.5914      1.2134507      0.63760944   
     21500  -4627.4802     -4662.2215      34.741312      5569.9138      276.79762      7945.9105      1.219816       0.63760944   
     21600  -4625.6866     -4661.2341      35.54749       8716.8263      283.22075      7923.4038      1.2232809      0.63760944   
     21700  -4627.4373     -4662.6835      35.246237      6974.7185      280.82055      7928.4121      1.2225081      0.63760944   
     21800  -4627.4672     -4662.7897      35.322508      6744.0396      281.42823      7955.4877      1.2183475      0.63760944   
     21900  -4627.145      -4664.2034      37.058374      7536.3604      295.25856      8000.7597      1.2114535      0.63760944   
     22000  -4628.2716     -4664.0662      35.79462       6096.1841      285.18973      8048.2061      1.2043117      0.61567471   
     22100  -4626.7858     -4662.2085      35.422733      6079.3432      282.22677      8083.2667      1.199088       0.61567471   
     22200  -4627.2837     -4661.9405      34.656796      4212.0344      276.12425      8098.9629      1.1967642      0.61567471   
     22300  -4628.4072     -4663.3868      34.979569      4449.4973      278.6959       8094.9031      1.1973644      0.61567471   
     22400  -4627.2433     -4662.625       35.381676      5194.3295      281.89964      8072.6165      1.20067        0.61567471   
     22500  -4627.9256     -4663.1127      35.187048      5136.147       280.34897      8043.7834      1.2049738      0.61567471   
     22600  -4629.2358     -4664.4797      35.243898      2959.3504      280.80192      8016.3801      1.2090929      0.61567471   
     22700  -4628.5296     -4663.6584      35.128776      3688.9123      279.8847       7989.0692      1.2132262      0.61567471   
     22800  -4629.0421     -4663.123       34.080866      6426.6386      271.53558      7967.0324      1.216582       0.61567471   
     22900  -4628.2609     -4663.216       34.955088      5969.0827      278.50086      7954.7953      1.2184535      0.61567471   
     23000  -4627.2892     -4662.6146      35.325374      6188.7729      281.45107      7956.0478      1.2182617      0.64901651   
     23100  -4627.5867     -4662.3837      34.797004      5628.9056      277.24134      7976.6996      1.2151076      0.64901651   
     23200  -4627.3715     -4662.2749      34.903377      3583.3883      278.08885      8010.7413      1.209944       0.64901651   
     23300  -4625.5454     -4662.535       36.989628      5018.1692      294.71083      8048.7838      1.2042252      0.64901651   
     23400  -4626.9256     -4661.595       34.669388      3585.4194      276.22457      8081.7814      1.1993084      0.64901651   
     23500  -4626.1537     -4662.9277      36.774046      3470.928       292.9932       8102.3054      1.1962704      0.64901651   
     23600  -4627.0096     -4662.5645      35.554903      2104.9235      283.27981      8105.7225      1.1957661      0.64901651   
     23700  -4627.4724     -4663.7543      36.281838      4347.0694      289.07159      8092.5878      1.1977069      0.64901651   
     23800  -4627.1628     -4663.0066      35.843872      5110.9537      285.58214      8064.6093      1.2018621      0.64901651   
     23900  -4625.763      -4661.3576      35.594659      6037.0236      283.59656      8027.8277      1.2073688      0.64901651   
     24000  -4625.3868     -4661.1094      35.722583      2644.048       284.61579      7995.5198      1.2122474      0.63567665   
     24100  -4625.559      -4661.3157      35.756749      6392.4212      284.888        7974.7183      1.2154095      0.63567665   
     24200  -4626.3316     -4662.0657      35.734056      8787.1122      284.70719      7974.356       1.2154647      0.63567665   
     24300  -4626.1336     -4662.012       35.878392      5668.4669      285.85718      7997.8424      1.2118954      0.63567665   
     24400  -4626.9038     -4661.6074      34.703604      3396.4875      276.49718      8037.5736      1.2059048      0.63567665   
     24500  -4627.0255     -4661.3864      34.360886      5870.2773      273.76661      8083.1261      1.1991089      0.63567665   
     24600  -4626.8058     -4661.4149      34.609157      4602.834       275.74469      8122.3226      1.1933223      0.63567665   
     24700  -4627.4728     -4662.7974      35.324593      2859.952       281.44485      8145.4096      1.18994        0.63567665   
     24800  -4627.9309     -4662.6419      34.71097       4226.3012      276.55587      8141.5054      1.1905106      0.63567665   
     24900  -4629.1489     -4663.3789      34.229976      1184.9055      272.72361      8109.159       1.1952594      0.63567665   
     25000  -4629.2313     -4662.6915      33.460221      2268.9496      266.59067      8059.042       1.2026924      0.6402637    
     25100  -4629.0668     -4663.3246      34.257727      5552.1352      272.94471      7999.1803      1.2116927      0.6402637    
     25200  -4628.1713     -4663.1356      34.96428       7256.434       278.57409      7942.2936      1.2203714      0.6402637    
     25300  -4626.9564     -4662.9601      36.003712      7660.2232      286.85565      7904.5309      1.2262016      0.6402637    
     25400  -4629.0274     -4663.8462      34.818825      8580.7629      277.41519      7898.8176      1.2270885      0.6402637    
     25500  -4629.0166     -4662.4435      33.42692       7081.9705      266.32534      7926.7271      1.222768       0.6402637    
     25600  -4628.4167     -4662.7993      34.382654      6932.1974      273.94005      7979.7827      1.2146381      0.6402637    
     25700  -4629.8739     -4663.4561      33.582281      5785.5347      267.56316      8042.1886      1.2052128      0.6402637    
     25800  -4629.9853     -4664.381       34.395676      4853.9671      274.0438       8099.5087      1.1966835      0.6402637    
     25900  -4629.0403     -4663.4419      34.401581      1875.5592      274.09084      8137.1606      1.1911463      0.6402637    
     26000  -4628.6199     -4662.6457      34.025709      1457.2235      271.09612      8148.2764      1.1895213      0.63729592   
     26100  -4628.0136     -4662.1394      34.125828      3632.3169      271.89382      8128.2399      1.1924535      0.63729592   
     26200  -4629.4363     -4663.3788      33.94245       7152.7596      270.43277      8083.2025      1.1990976      0.63729592   
     26300  -4629.2627     -4663.7662      34.503496      4992.5399      274.90285      8024.8579      1.2078156      0.63729592   
     26400  -4627.3895     -4661.8476      34.458141      6331.3471      274.54148      7969.1094      1.2162649      0.63729592   
     26500  -4627.1494     -4662.7087      35.55928       6318.7946      283.31469      7936.0078      1.2213381      0.63729592   
     26600  -4627.5801     -4662.5683      34.988181      6177.1922      278.76452      7932.9513      1.2218086      0.63729592   
     26700  -4626.4761     -4661.6451      35.168982      6232.3333      280.20503      7958.166       1.2179375      0.63729592   
     26800  -4626.3241     -4661.8965      35.572455      7910.623       283.41966      8003.7735      1.2109973      0.63729592   
     26900  -4626.7251     -4663.1962      36.47108       6647.8218      290.57935      8056.6737      1.2030459      0.63729592   
     27000  -4626.9635     -4661.7034      34.739874      4627.8117      276.78616      8100.2004      1.1965813      0.64393266   
     27100  -4626.4482     -4661.2909      34.842616     -458.48269      277.60474      8126.2167      1.1927504      0.64393266   
     27200  -4626.3725     -4662.0328      35.660256      3001.3813      284.1192       8133.0652      1.1917461      0.64393266   
     27300  -4626.454      -4661.8956      35.441632      3726.0719      282.37734      8118.6384      1.1938638      0.64393266   
     27400  -4626.9077     -4662.5162      35.608481      3324.2145      283.70669      8088.2817      1.1983446      0.64393266   
     27500  -4625.7857     -4662.5954      36.809638      1749.78        293.27678      8053.6011      1.2035049      0.64393266   
     27600  -4625.4583     -4660.6893      35.230982      5506.6677      280.69901      8024.2101      1.2079131      0.64393266   
     27700  -4625.1645     -4660.736       35.571429      6236.2157      283.41148      8002.79        1.2111462      0.64393266   
     27800  -4626.4008     -4661.8337      35.432886      3955.8567      282.30766      7992.9848      1.2126319      0.64393266   
     27900  -4625.6862     -4662.3227      36.636447      3279.146       291.8969       7993.025       1.2126258      0.64393266   
     28000  -4627.0356     -4663.0866      36.050968      5253.9664      287.23216      8005.9659      1.2106657      0.61532916   
     28100  -4627.2574     -4661.7758      34.518419      3601.0549      275.02174      8025.4347      1.2077288      0.61532916   
     28200  -4628.1082     -4662.3125      34.204285      5444.065       272.51892      8045.4162      1.2047293      0.61532916   
     28300  -4629.0151     -4662.8572      33.84209       6712.793       269.63316      8061.3404      1.2023495      0.61532916   
     28400  -4629.2386     -4664.2425      35.003902      4241.8616      278.88977      8069.7508      1.2010964      0.61532916   
     28500  -4628.878      -4663.1189      34.240869      6266.8521      272.81039      8063.9928      1.201954       0.61532916   
     28600  -4627.9476     -4661.8986      33.951012      4523.0246      270.50099      8044.9064      1.2048056      0.61532916   
     28700  -4627.0008     -4661.5627      34.561893      4624.5556      275.36811      8022.0338      1.2082408      0.61532916   
     28800  -4627.1972     -4661.0073      33.810138      4290.6744      269.37859      8002.2478      1.2112282      0.61532916   
     28900  -4628.0746     -4663.0855      35.010891      5666.5013      278.94546      7992.4944      1.2127063      0.61532916   
     29000  -4628.5426     -4662.9557      34.413098      3365.5098      274.18261      7993.6001      1.2125386      0.64029254   
     29100  -4629.2117     -4663.9237      34.711938      6054.7493      276.56358      8002.981       1.2111173      0.64029254   
     29200  -4628.5434     -4663.7759      35.232493      7887.7616      280.71105      8017.653       1.208901       0.64029254   
     29300  -4628.3584     -4663.8272      35.468779      5837.1697      282.59363      8034.8664      1.2063111      0.64029254   
     29400  -4629.4568     -4662.6568      33.199951      5087.258       264.51699      8046.7009      1.2045369      0.64029254   
     29500  -4629.029      -4664.6413      35.612322      5810.2353      283.73729      8050.9952      1.2038944      0.64029254   
     29600  -4628.7812     -4662.9342      34.153006      5310.326       272.11035      8044.4466      1.2048745      0.64029254   
     29700  -4627.9669     -4663.2264      35.259468      3235.3702      280.92597      8033.5126      1.2065144      0.64029254   
     29800  -4627.2872     -4662.9351      35.647817     -195.06137      284.0201       8021.7111      1.2082894      0.64029254   
     29900  -4628.4467     -4662.5146      34.067862      2758.6652      271.43198      8009.7925      1.2100873      0.64029254   
     30000  -4628.1294     -4662.9321      34.802632      4382.9356      277.28618      8000.6948      1.2114633      0.66245339   
     30100  -4627.4096     -4662.5729      35.16329       3780.0968      280.15968      7993.3791      1.2125721      0.66245339   
     30200  -4626.0358     -4662.8878      36.851971      5896.5763      293.61406      7991.7087      1.2128255      0.66245339   
     30300  -4625.4008     -4662.0552      36.654458      6359.13        292.0404       7999.3588      1.2116657      0.66245339   
     30400  -4624.9426     -4660.8739      35.931307      7424.4903      286.27878      8016.7025      1.2090443      0.66245339   
     30500  -4626.113      -4662.4807      36.367699      4891.0797      289.75568      8038.6354      1.2057455      0.66245339   
     30600  -4625.1486     -4662.3476      37.199012      4254.4464      296.37908      8058.4967      1.2027738      0.66245339   
     30700  -4626.2439     -4660.8055      34.561601      5432.9424      275.36579      8070.7615      1.200946       0.66245339   
     30800  -4625.9561     -4661.2099      35.253723      5074.8436      280.88019      8071.0837      1.200898       0.66245339   
     30900  -4625.8398     -4661.7947      35.954957      1160           286.4672       8063.3152      1.202055       0.66245339   
     31000  -4627.104      -4662.5382      35.434218      3441.1001      282.31827      8048.6139      1.2042506      0.63595131   
     31100  -4626.826      -4661.4909      34.664832      7648.6252      276.18827      8028.332       1.2072929      0.63595131   
     31200  -4626.2686     -4662.1393      35.870751      7591.5786      285.7963       8007.9474      1.2103661      0.63595131   
     31300  -4628.2442     -4663.5962      35.351974      6614.9442      281.663        7993.6285      1.2125343      0.63595131   
     31400  -4628.0668     -4662.462       34.395211      5994.8719      274.04009      7988.2949      1.2133438      0.63595131   
     31500  -4628.7888     -4663.1785      34.389669      5538.4186      273.99594      7989.1244      1.2132179      0.63595131   
     31600  -4629.5266     -4663.6246      34.097969      6083.6478      271.67185      7994.1342      1.2124576      0.63595131   
     31700  -4629.0879     -4662.75        33.662035      4031.4216      268.1986       7999.4234      1.2116559      0.63595131   
     31800  -4629.4419     -4663.4895      34.047557      4806.7908      271.2702       8006.2995      1.2106153      0.63595131   
     31900  -4628.8538     -4664.1144      35.260642      2755.2137      280.93532      8015.2258      1.209267       0.63595131   
     32000  -4629.1352     -4663.8603      34.725103      3019.4286      276.66847      8023.1176      1.2080776      0.68147559   
     32100  -4628.4701     -4662.6848      34.214713      3433.9364      272.602        8026.6425      1.207547       0.68147559   
     32200  -4627.1649     -4662.2593      35.09444       4672.8757      279.61112      8024.2433      1.2079081      0.68147559   
     32300  -4627.4444     -4661.255       33.810622      4977.6393      269.38244      8017.2891      1.2089558      0.68147559   
     32400  -4627.7935     -4662.9776      35.184031      3897.4039      280.32493      8014.0121      1.2094502      0.68147559   
     32500  -4628.0307     -4663.0091      34.978414      4896.17        278.6867       8011.8225      1.2097807      0.68147559   
     32600  -4628.8103     -4662.8944      34.084181      5111.6865      271.562        8009.1252      1.2101881      0.68147559   
     32700  -4629.1517     -4663.0381      33.886362      3109.8098      269.9859       8008.0549      1.2103499      0.68147559   
     32800  -4629.5265     -4663.72        34.193528      2745.4149      272.43321      8008.6436      1.2102609      0.68147559   
     32900  -4629.7844     -4663.414       33.629551      4051.7383      267.93978      8006.7557      1.2105463      0.68147559   
     33000  -4628.5197     -4664.8741      36.354484      6376.3         289.65039      8000.5693      1.2114823      0.68522048   
     33100  -4627.455      -4663.3674      35.912363      4113.4578      286.12784      7996.4594      1.212105       0.68522048   
     33200  -4626.9411     -4661.3726      34.431489      3180.8396      274.32913      8000.3611      1.2115139      0.68522048   
     33300  -4626.3279     -4661.3933      35.06544       4313.8825      279.38007      8008.9341      1.210217       0.68522048   
     33400  -4624.612      -4661.4364      36.824426      7371.543       293.3946       8021.2666      1.2083564      0.68522048   
     33500  -4626.5174     -4661.5775      35.060002      6541.2553      279.33675      8035.0362      1.2062856      0.68522048   
     33600  -4627.5021     -4661.7465      34.244335      3193.0695      272.838        8048.4699      1.2042722      0.68522048   
     33700  -4627.9929     -4662.9373      34.9444        4697.6266      278.4157       8061.2217      1.2023672      0.68522048   
     33800  -4627.0288     -4661.8477      34.81888       3661.3756      277.41563      8067.5672      1.2014215      0.68522048   
     33900  -4628.0522     -4661.3912      33.338951      4478.5341      265.62446      8069.9695      1.2010638      0.68522048   
     34000  -4626.6975     -4662.4636      35.76609       4893.9512      284.96243      8063.675       1.2020014      0.7073666    
     34100  -4626.4303     -4662.8885      36.458182      5541.8588      290.4766       8048.88        1.2042108      0.7073666    
     34200  -4625.5482     -4662.2287      36.680547      5981.0259      292.24826      8029.8724      1.2070613      0.7073666    
     34300  -4627.2034     -4661.72        34.516642      4034.7973      275.00759      8015.3187      1.209253       0.7073666    
     34400  -4625.8597     -4662.1341      36.274418      5897.741       289.01247      8007.8446      1.2103817      0.7073666    
     34500  -4627.1515     -4662.6809      35.529456      6686.8886      283.07707      8008.0378      1.2103525      0.7073666    
     34600  -4628.8662     -4663.5091      34.642863      3710.7531      276.01324      8014.5132      1.2093746      0.7073666    
     34700  -4627.8382     -4662.6383      34.800157      3882.7014      277.26646      8018.7312      1.2087384      0.7073666    
     34800  -4627.4186     -4662.3482      34.929598      3320.0878      278.29777      8020.1796      1.2085201      0.7073666    
     34900  -4628.9247     -4663.6644      34.739714      5506.0958      276.78488      8020.8893      1.2084132      0.7073666    
     35000  -4628.7575     -4662.3676      33.610063      6002.7259      267.78452      8019.1749      1.2086715      0.65091184   
     35100  -4627.5057     -4662.5033      34.997599      9217.2781      278.83955      8016.5605      1.2090657      0.65091184   
     35200  -4627.7733     -4662.705       34.931682      4397.5969      278.31437      8013.5938      1.2095133      0.65091184   
     35300  -4627.2845     -4661.9554      34.670899      2840.1828      276.23661      8010.6009      1.2099652      0.65091184   
     35400  -4628.1579     -4662.7772      34.619345      6795.7203      275.82586      8010.8264      1.2099312      0.65091184   
     35500  -4627.0281     -4662.0412      35.013125      8659.6303      278.96326      8016.72        1.2090417      0.65091184   
     35600  -4625.7278     -4661.1941      35.46634       5883.7147      282.5742       8027.8915      1.2073592      0.65091184   
     35700  -4627.6279     -4663.0161      35.388178      5776.2728      281.95145      8043.2567      1.2050527      0.65091184   
     35800  -4627.345      -4662.6827      35.337694      3376.2309      281.54923      8059.2706      1.2026583      0.65091184   
     35900  -4626.8545     -4660.8987      34.044228     -464.84276      271.24367      8072.3642      1.2007075      0.65091184   
     36000  -4627.0714     -4662.6517      35.580341      3408.1025      283.48249      8079.1353      1.1997012      0.69032606   
     36100  -4628.5004     -4662.6452      34.144837      4088.7992      272.04527      8076.4432      1.2001011      0.69032606   
     36200  -4628.7074     -4664.2126      35.505194      5086.9967      282.88376      8063.1433      1.2020806      0.69032606   
     36300  -4627.6954     -4664.0362      36.340799      4172.0251      289.54135      8041.0635      1.2053814      0.69032606   
     36400  -4626.5037     -4662.0244      35.520772      4666.0964      283.00788      8019.0324      1.208693       0.69032606   
     36500  -4626.03       -4662.1328      36.102768      8228.4998      287.64487      8004.914       1.2108248      0.69032606   
     36600  -4626.2659     -4661.7168      35.450879      5922.0208      282.45102      8002.8875      1.2111314      0.69032606   
     36700  -4627.5438     -4663.3733      35.829498      7206.7859      285.46762      8010.8234      1.2099316      0.69032606   
     36800  -4628.4084     -4663.1273      34.718877      5658.4346      276.61887      8027.9837      1.2073453      0.69032606   
     36900  -4628.3709     -4662.3547      33.983804      5571.4011      270.76225      8047.1408      1.2044711      0.69032606   
     37000  -4628.7678     -4662.2053      33.437492      3425.2328      266.40957      8064.1866      1.2019251      0.70108503   
     37100  -4628.6971     -4661.969       33.271886      1767.3539      265.09013      8070.0091      1.2010579      0.70108503   
     37200  -4629.4776     -4663.4792      34.001527      4750.7255      270.90346      8064.4394      1.2018874      0.70108503   
     37300  -4628.2066     -4663.7882      35.581627      9437.4147      283.49274      8051.518       1.2038163      0.70108503   
     37400  -4627.4511     -4663.2483      35.797195      5760.2016      285.21025      8035.696       1.2061865      0.70108503   
     37500  -4626.2416     -4661.7246      35.482934      4940.7885      282.70641      8025.1626      1.2077697      0.70108503   
     37600  -4626.295      -4660.7238      34.428836      5883.308       274.308        8021.5906      1.2083075      0.70108503   
     37700  -4628.8194     -4662.0655      33.24607       2437.5387      264.88444      8020.7142      1.2084396      0.70108503   
     37800  -4628.6586     -4662.7747      34.116077      8133.4984      271.81612      8016.9927      1.2090005      0.70108503   
     37900  -4628.0732     -4663.2897      35.216516      6820.8927      280.58375      8014.9811      1.209304       0.70108503   
     38000  -4628.0162     -4662.3486      34.332463      1899.5196      273.54016      8018.5771      1.2087616      0.71448523   
     38100  -4626.5274     -4662.4749      35.947489      2410.2424      286.4077       8023.1119      1.2080784      0.71448523   
     38200  -4627.9444     -4661.3397      33.395296      6540.3214      266.07338      8029.5373      1.2071117      0.71448523   
     38300  -4626.745      -4660.7144      33.969401      2728.64        270.6475       8035.4643      1.2062213      0.71448523   
     38400  -4625.426      -4661.9491      36.523129      1743.3608      290.99405      8042.3779      1.2051844      0.71448523   
     38500  -4625.4495     -4661.3573      35.907871      7909.2445      286.09205      8046.6666      1.2045421      0.71448523   
     38600  -4626.6329     -4661.3482      34.715301      8592.0021      276.59037      8046.1561      1.2046185      0.71448523   
     38700  -4628.8863     -4663.1067      34.220407      2650.0398      272.64737      8041.8021      1.2052707      0.71448523   
     38800  -4628.1982     -4663.7802      35.582032      4618.7341      283.49596      8027.0511      1.2074856      0.71448523   
     38900  -4627.6215     -4663.0909      35.469423      7088.5607      282.59876      8005.0249      1.210808       0.71448523   
     39000  -4626.6848     -4662.4954      35.810613      3349.1851      285.31716      7986.3978      1.2136321      0.70582106   
     39100  -4626.6629     -4661.0513      34.38834       4593.9796      273.98535      7978.3556      1.2148554      0.70582106   
     39200  -4626.8275     -4662.6229      35.795425      3505.183       285.19615      7982.4171      1.2142373      0.70582106   
     39300  -4626.9883     -4663.2546      36.266244      4545.1037      288.94735      7994.319       1.2124295      0.70582106   
     39400  -4626.3694     -4661.5989      35.229459      6239.6816      280.68688      8010.3232      1.2100072      0.70582106   
     39500  -4625.1226     -4661.051       35.928397      4163.0668      286.25559      8028.4959      1.2072683      0.70582106   
     39600  -4627.0862     -4662.6438      35.557651      5115.0903      283.30171      8042.1386      1.2052203      0.70582106   
     39700  -4625.2047     -4660.0489      34.844226      3523.6534      277.61758      8046.7209      1.2045339      0.70582106   
     39800  -4624.4132     -4661.0741      36.660927      4885.3643      292.09194      8045.1812      1.2047645      0.70582106   
     39900  -4624.5264     -4661.558       37.031581      5431.4917      295.04508      8042.1696      1.2052156      0.70582106   
     40000  -4624.4606     -4660.7062      36.245528      2221.2301      288.7823       8042.1611      1.2052169      0.6581067    
     40100  -4625.0559     -4661.7666      36.71071       2967.0369      292.48858      8044.3728      1.2048855      0.6581067    
     40200  -4626.3453     -4662.5909      36.245682      4234.2348      288.78352      8044.107       1.2049254      0.6581067    
     40300  -4626.2146     -4662.3361      36.121509      2999.1446      287.79419      8038.0013      1.2058406      0.6581067    
     40400  -4626.8514     -4661.7529      34.901493      3238.886       278.07384      8029.4937      1.2071183      0.6581067    
     40500  -4627.4685     -4662.4548      34.986237      5921.9143      278.74903      8022.5301      1.208166       0.6581067    
     40600  -4626.0461     -4662.6218      36.575647      8765.9675      291.41248      8021.4708      1.2083256      0.6581067    
     40700  -4626.294      -4662.3819      36.087916      6404.5072      287.52654      8023.8203      1.2079718      0.6581067    
     40800  -4626.0154     -4661.8832      35.867809      1644.6934      285.77286      8031.8074      1.2067705      0.6581067    
     40900  -4625.9948     -4661.4886      35.49378       7127.274       282.79282      8047.1143      1.2044751      0.6581067    
     41000  -4626.2007     -4663.1235      36.922733      3263.8509      294.17785      8066.4816      1.2015832      0.65333098   
     41100  -4626.3137     -4662.774       36.460287      5893.4914      290.49337      8082.4136      1.1992146      0.65333098   
     41200  -4626.2416     -4662.2691      36.027455      5758.5473      287.04482      8090.8725      1.1979608      0.65333098   
     41300  -4626.0623     -4661.4379      35.375579      1700.9312      281.85107      8089.8729      1.1981089      0.65333098   
     41400  -4625.7059     -4660.7278      35.021946      5357.0455      279.03354      8076.4344      1.2001024      0.65333098   
     41500  -4625.9662     -4661.8909      35.924763      4352.9309      286.22663      8051.6353      1.2037987      0.65333098   
     41600  -4626.9883     -4662.4492      35.460973      7343.4268      282.53144      8018.6461      1.2087512      0.65333098   
     41700  -4627.1949     -4662.3949      35.200004      5572.339       280.4522       7986.1036      1.2136768      0.65333098   
     41800  -4627.1622     -4662.8443      35.682121      7232.3562      284.29341      7960.8787      1.2175224      0.65333098   
     41900  -4627.2968     -4663.8732      36.576413      6643.8804      291.41859      7951.1484      1.2190124      0.65333098   
     42000  -4626.4571     -4662.754       36.296848      5815.5029      289.19118      7956.5409      1.2181862      0.61731704   
     42100  -4626.9589     -4663.3059      36.346997      5330.1796      289.59074      7980.7814      1.2144861      0.61731704   
     42200  -4627.798      -4662.1368      34.338773      4312.7759      273.59043      8014.4135      1.2093896      0.61731704   
     42300  -4626.7543     -4661.9498      35.195492      4377.5737      280.41625      8052.2365      1.2037089      0.61731704   
     42400  -4626.9159     -4662.1425      35.226609      5769.9149      280.66417      8087.7099      1.1984293      0.61731704   
     42500  -4627.8738     -4662.4941      34.620232      947.23183      275.83292      8107.2904      1.1955349      0.61731704   
     42600  -4627.3087     -4662.1097      34.800979      4480.874       277.27301      8104.4554      1.1959531      0.61731704   
     42700  -4626.3445     -4661.245       34.900521      3934.8019      278.0661       8082.3192      1.1992286      0.61731704   
     42800  -4625.5746     -4661.7173      36.142768      2170.1381      287.96357      8049.3205      1.2041449      0.61731704   
     42900  -4626.4491     -4662.5799      36.130715      4747.7487      287.86754      8013.5811      1.2095152      0.61731704   
     43000  -4627.8328     -4662.8574      35.024651      4841.0144      279.05509      7982.7995      1.2141791      0.70147038   
     43100  -4626.2        -4662.199       35.999025      8159.7388      286.81831      7961.5386      1.2174215      0.70147038   
     43200  -4626.5915     -4661.3685      34.776962      6066.9358      277.08166      7957.408       1.2180535      0.70147038   
     43300  -4626.2292     -4662.0018      35.772644      3237.275       285.01464      7972.9411      1.2156804      0.70147038   
     43400  -4626.5437     -4662.6382      36.094483      6369.88        287.57886      8005.9238      1.2106721      0.70147038   
     43500  -4626.5739     -4662.8209      36.247053      5454.7374      288.79445      8047.1316      1.2044725      0.70147038   
     43600  -4626.6332     -4662.0085      35.375231      3810.9495      281.8483       8084.7375      1.1988699      0.70147038   
     43700  -4627.2842     -4662.2822      34.997916      751.56753      278.84209      8108.7865      1.1953143      0.70147038   
     43800  -4627.1818     -4662.0516      34.869802      1914.5712      277.82134      8113.4209      1.1946315      0.70147038   
     43900  -4627.9437     -4662.9796      35.035888      6047.4156      279.14462      8098.5623      1.1968233      0.70147038   
     44000  -4627.3702     -4661.9586      34.588467      7527.1847      275.57984      8069.885       1.2010764      0.6391821    
     44100  -4627.4337     -4663.4133      35.979608      3544.2029      286.66361      8034.495       1.2063668      0.6391821    
     44200  -4627.0103     -4663.9185      36.908226      6333.7676      294.06227      7995.454       1.2122574      0.6391821    
     44300  -4628.0195     -4661.6545      33.635063      7538.3365      267.9837       7962.3749      1.2172937      0.6391821    
     44400  -4627.9778     -4663.6863      35.708508      8701.5705      284.50364      7945.9949      1.219803       0.6391821    
     44500  -4628.9737     -4662.4929      33.519181      5617.8472      267.06042      7949.3111      1.2192941      0.6391821    
     44600  -4630.4739     -4663.938       33.464039      6595.3944      266.62109      7968.4358      1.2163678      0.6391821    
     44700  -4629.0024     -4662.5192      33.51677       3325.2609      267.04121      7996.3077      1.212128       0.6391821    
     44800  -4629.5018     -4664.4519      34.950167      5274.3826      278.46164      8028.8451      1.2072158      0.6391821    
     44900  -4627.7411     -4662.8942      35.153038      3228.9116      280.078        8058.9984      1.2026989      0.6391821    
     45000  -4628.6719     -4663.194       34.522087      5143.5049      275.05097      8082.6163      1.1991845      0.7335251    
     45100  -4628.8901     -4663.5196      34.629471      8764.0946      275.90654      8091.1308      1.1979226      0.7335251    
     45200  -4629.2431     -4664.3721      35.129005      5737.2207      279.88652      8083.8515      1.1990013      0.7335251    
     45300  -4629.8614     -4664.2549      34.393436      5344.3346      274.02595      8058.0887      1.2028347      0.7335251    
     45400  -4628.2449     -4663.1095      34.864539      6816.0966      277.77941      8020.3438      1.2084954      0.7335251    
     45500  -4627.7461     -4663.6129      35.866888      6138.8742      285.76552      7979.1647      1.2147322      0.7335251    
     45600  -4626.6737     -4660.9509      34.277178      7215.8035      273.09968      7944.2722      1.2200675      0.7335251    
     45700  -4626.3577     -4662.1281      35.770372      2539.6709      284.99654      7928.4732      1.2224987      0.7335251    
     45800  -4626.666      -4660.5155      33.849525      9273.2423      269.6924       7936.064       1.2213294      0.7335251    
     45900  -4627.3562     -4662.644       35.287823      4251.9005      281.15188      7963.8107      1.2170742      0.7335251    
     46000  -4626.5081     -4661.9157      35.407539      3134.4124      282.10571      8004.4424      1.2108961      0.6325651    
     46100  -4627.3157     -4663.2238      35.908138      826.0214       286.09418      8051.5163      1.2038165      0.6325651    
     46200  -4627.0753     -4662.2663      35.191042      3182.962       280.38079      8091.6608      1.1978441      0.6325651    
     46300  -4628.2132     -4663.2368      35.023616      3242.2289      279.04685      8116.3053      1.194207       0.6325651    
     46400  -4627.9381     -4662.2129      34.274752      3118.6813      273.08035      8117.0983      1.1940903      0.6325651    
     46500  -4627.4028     -4661.6688      34.265998      3579.4331      273.0106       8094.3289      1.1974493      0.6325651    
     46600  -4626.9452     -4662.1329      35.187662      6219.6202      280.35386      8050.2214      1.2040102      0.6325651    
     46700  -4626.8655     -4662.5646      35.699131      6031.196       284.42894      7995.2572      1.2122873      0.6325651    
     46800  -4626.8438     -4663.408       36.564191      5052.554       291.32121      7946.6044      1.2197094      0.6325651    
     46900  -4626.7773     -4662.2413      35.464044      8805.1987      282.5559       7912.5727      1.2249554      0.6325651    
     47000  -4627.1449     -4662.3576      35.212732      7678.5876      280.55361      7903.6397      1.2263399      0.74391638   
     47100  -4626.3937     -4662.2799      35.886221      5306.9346      285.91956      7920.393       1.2237459      0.74391638   
     47200  -4627.8572     -4661.2636      33.406334      3699.7123      266.16133      7959.7445      1.2176959      0.74391638   
     47300  -4629.0674     -4663.7236      34.656202      7092.753       276.11952      8009.7529      1.2100933      0.74391638   
     47400  -4628.345      -4663.0905      34.745458      6099.709       276.83065      8056.5905      1.2030583      0.74391638   
     47500  -4628.4131     -4663.276       34.862955      7865.9473      277.7668       8093.6611      1.1975481      0.74391638   
     47600  -4626.1192     -4662.1929      36.073729      2577.6781      287.41351      8113.0932      1.1946798      0.74391638   
     47700  -4625.8684     -4661.8473      35.978913      3233.5451      286.65807      8113.4715      1.1946241      0.74391638   
     47800  -4627.2452     -4663.0401      35.794924      4734.9593      285.19216      8098.1696      1.1968814      0.74391638   
     47900  -4627.3405     -4662.9246      35.584054      3630.4194      283.51207      8068.6874      1.2012547      0.74391638   
     48000  -4626.4018     -4662.3679      35.966082      4609.8076      286.55584      8026.7531      1.2075304      0.67671304   
     48100  -4626.3144     -4662.1148      35.800362      8234.6793      285.23548      7986.3267      1.2136429      0.67671304   
     48200  -4627.2261     -4661.8826      34.656435      8146.2266      276.12137      7961.5176      1.2174247      0.67671304   
     48300  -4627.5193     -4661.9886      34.46928       11118.127      274.63023      7956.5632      1.2181828      0.67671304   
     48400  -4628.3819     -4663.3529      34.970946      8446.6437      278.6272       7972.8549      1.2156936      0.67671304   
     48500  -4629.1478     -4662.7887      33.640853      6159.638       268.02983      8001.4045      1.2113559      0.67671304   
     48600  -4627.9916     -4663.2145      35.222903      3178.2991      280.63464      8032.0145      1.2067394      0.67671304   
     48700  -4628.7389     -4662.729       33.990165      4523.3585      270.81293      8060.9498      1.2024077      0.67671304   
     48800  -4629.2266     -4661.8239      32.597315      5709.3228      259.71556      8077.3967      1.1999594      0.67671304   
     48900  -4629.0848     -4662.6861      33.601383      1572.0531      267.71535      8075.9189      1.200179       0.67671304   
     49000  -4628.9294     -4663.6596      34.730208      5642.7945      276.70915      8054.4223      1.2033822      0.68038223   
     49100  -4630.1197     -4664.5071      34.387441      5285.5965      273.97819      8019.9783      1.2085505      0.68038223   
     49200  -4628.2942     -4662.2676      33.973374      6174.3648      270.67916      7977.9669      1.2149146      0.68038223   
     49300  -4627.445      -4662.1956      34.75055       3219.4866      276.87122      7945.0328      1.2199507      0.68038223   
     49400  -4627.254      -4662.0838      34.829824      5533.4508      277.50283      7931.3807      1.2220506      0.68038223   
     49500  -4626.4725     -4662.8425      36.369959      7243.5269      289.77368      7940.1664      1.2206984      0.68038223   
     49600  -4627.4133     -4662.5977      35.184442      6547.1978      280.32821      7973.4653      1.2156005      0.68038223   
     49700  -4628.1251     -4662.0295      33.904407      3777.9621      270.12967      8024.5694      1.207859       0.68038223   
     49800  -4628.5824     -4663.7744      35.19203       4031.0189      280.38866      8079.3575      1.1996682      0.68038223   
     49900  -4630.0497     -4663.2764      33.226762      4256.4553      264.7306       8122.3025      1.1933252      0.68038223   
     50000  -4629.0602     -4663.5268      34.4666        306.92323      274.60888      8140.5241      1.1906541      0.6604946    
     50100  -4628.761      -4663.2671      34.506145      2471.1549      274.92395      8127.4715      1.1925663      0.6604946    
     50200  -4628.5259     -4662.6797      34.153724      5501.4256      272.11607      8085.3313      1.1987819      0.6604946    
     50300  -4628.4079     -4662.8701      34.462148      6961.1436      274.57341      8027.2307      1.2074586      0.6604946    
     50400  -4627.2492     -4662.2816      35.032322      7252.5358      279.11621      7966.453       1.2166705      0.6604946    
     50500  -4626.299      -4662.3343      36.035337      6941.3749      287.10762      7919.7367      1.2238473      0.6604946    
     50600  -4626.1994     -4661.7439      35.544549      8300.7757      283.19732      7898.7677      1.2270963      0.6604946    
     50700  -4625.2551     -4661.5016      36.246537      8451.6347      288.79033      7911.2356      1.2251624      0.6604946    
     50800  -4626.2028     -4662.3243      36.12149       6091.8113      287.79404      7954.715       1.2184658      0.6604946    
     50900  -4626.9201     -4662.1541      35.234013      2782.1734      280.72316      8018.1546      1.2088253      0.6604946    
     51000  -4628.5372     -4662.955       34.417807      5299.7682      274.22013      8080.6372      1.1994782      0.69665257   
     51100  -4629.629      -4663.6566      34.02767       5452.6069      271.11175      8125.3799      1.1928733      0.69665257   
     51200  -4629.4145     -4662.6021      33.187604      3464.0356      264.41862      8142.5161      1.1903628      0.69665257   
     51300  -4628.8686     -4663.5859      34.717278      3725.8904      276.60613      8128.8555      1.1923632      0.69665257   
     51400  -4629.2438     -4663.541       34.297152      3309.9723      273.25882      8086.3827      1.198626       0.69665257   
     51500  -4628.6132     -4661.8384      33.225155      6405.1906      264.7178       8023.8598      1.2079658      0.69665257   
     51600  -4629.0301     -4662.4718      33.441646      7099.2397      266.44267      7962.278       1.2173085      0.69665257   
     51700  -4629.2795     -4663.8839      34.604489      7241.475       275.7075       7920.7333      1.2236933      0.69665257   
     51800  -4629.1039     -4664.0717      34.967799      3281.8118      278.60213      7902.778       1.2264736      0.69665257   
     51900  -4628.1326     -4662.5964      34.463807      4765.0453      274.58663      7911.4953      1.2251222      0.69665257   
     52000  -4628.5163     -4662.6321      34.115785      7035.0751      271.8138       7944.0867      1.220096       0.67042676   
     52100  -4628.8705     -4663.9862      35.115632      5592.5226      279.77997      7988.8171      1.2132645      0.67042676   
     52200  -4628.9524     -4663.5217      34.569337      5292.6142      275.42742      8033.8526      1.2064633      0.67042676   
     52300  -4630.0015     -4663.5679      33.566373      1866.1364      267.43642      8069.6059      1.2011179      0.67042676   
     52400  -4629.4751     -4664.3644      34.889286      5650.9124      277.97658      8087.7623      1.1984215      0.67042676   
     52500  -4629.2419     -4664.5563      35.314365      5519.1755      281.36335      8089.4745      1.1981679      0.67042676   
     52600  -4630.8124     -4663.4         32.587512      6052.1564      259.63745      8074.5188      1.2003871      0.67042676   
     52700  -4631.2327     -4663.942       32.709302      2959.3956      260.6078       8042.8235      1.2051176      0.67042676   
     52800  -4630.2237     -4663.6053      33.381597      5110.5925      265.96424      7999.8048      1.2115981      0.67042676   
     52900  -4629.1287     -4663.9107      34.781976      2634.1195      277.12161      7959.3687      1.2177534      0.67042676   
     53000  -4628.5787     -4663.2118      34.633132      3238.0137      275.93571      7932.9189      1.2218136      0.75552646   
     53100  -4628.5644     -4663.6394      35.075009      6842.8951      279.45631      7929.4201      1.2223527      0.75552646   
     53200  -4628.9982     -4662.3957      33.397511      6377.1735      266.09103      7948.6073      1.2194021      0.75552646   
     53300  -4627.8555     -4663.9422      36.086662      6144.6133      287.51654      7984.0031      1.2139961      0.75552646   
     53400  -4627.7557     -4662.2045      34.448871      5517.227       274.46763      8028.7125      1.2072357      0.75552646   
     53500  -4629.0038     -4663.0926      34.08877       4738.358       271.59856      8076.9704      1.2000228      0.75552646   
     53600  -4629.5289     -4663.6195      34.090572      5068.5843      271.61292      8114.4067      1.1944864      0.75552646   
     53700  -4630.0642     -4663.3366      33.272415      3565.9273      265.09434      8130.1053      1.1921799      0.75552646   
     53800  -4629.9016     -4663.5255      33.62389       1024.4095      267.89468      8117.8462      1.1939803      0.75552646   
     53900  -4628.2258     -4662.7616      34.53582       4831.588       275.16038      8080.2605      1.1995341      0.75552646   
     54000  -4627.3961     -4661.0273      33.631233      9732.106       267.95318      8027.9865      1.2073449      0.69178465   
     54100  -4625.4963     -4661.7749      36.278528      7851.8619      289.04522      7975.5791      1.2152783      0.69178465   
     54200  -4625.1898     -4660.8552      35.665386      7189.482       284.16008      7939.3017      1.2208314      0.69178465   
     54300  -4627.3556     -4662.2905      34.934873      6966.7846      278.33979      7931.6268      1.2220127      0.69178465   
     54400  -4626.3642     -4662.9705      36.606323      7761.817       291.65689      7952.9737      1.2187326      0.69178465   
     54500  -4625.5348     -4661.1591      35.624358      10220.354      283.83319      7999.7689      1.2116036      0.69178465   
     54600  -4624.9867     -4661.5686      36.581859      5882.9637      291.46197      8066.0244      1.2016513      0.69178465   
     54700  -4625.4077     -4661.0344      35.626722      4191.8166      283.85202      8131.8087      1.1919302      0.69178465   
     54800  -4625.7769     -4660.6428      34.865878      1558.5812      277.79009      8181.2186      1.1847316      0.69178465   
     54900  -4624.7214     -4660.0308      35.309447      482.80877      281.32417      8202.2496      1.1816939      0.69178465   
     55000  -4626.4035     -4662.3654      35.96186       777.42146      286.5222       8191.8889      1.1831885      0.62674368   
     55100  -4626.2473     -4661.7635      35.51626       5086.3433      282.97193      8148.7379      1.1894539      0.62674368   
[...]
   2186300  -4627.9001     -4663.8526      35.95256       5244.913       286.4481       8011.504       1.2098288      0.70223703   
   2186400  -4628.7256     -4664.4814      35.755762      7591.2949      284.88014      8047.3965      1.2044328      0.70223703   
   2186500  -4628.8216     -4663.0005      34.17884       4768.1116      272.31619      8074.4613      1.2003957      0.70223703   
   2186600  -4628.981      -4663.116       34.13504       4155.2831      271.96721      8085.1562      1.1988078      0.70223703   
   2186700  -4629.4071     -4663.61        34.202915      4587.7828      272.508        8081.5975      1.1993357      0.70223703   
   2186800  -4628.4332     -4663.4448      35.011639      1906.0193      278.95141      8058.7995      1.2027286      0.70223703   
   2186900  -4626.4468     -4662.9531      36.506231      4160.9761      290.85942      8022.9243      1.2081067      0.70223703   
   2187000  -4626.0687     -4662.5761      36.507359      7326.7799      290.86841      7987.9098      1.2134023      0.69362299   
   2187100  -4626.1159     -4662.2384      36.122559      3569.88        287.80255      7963.5492      1.2171141      0.69362299   
   2187200  -4627.3401     -4662.2298      34.889739      6735.1361      277.9802       7954.6007      1.2184833      0.69362299   
   2187300  -4626.7805     -4662.5177      35.737209      6906.5625      284.73232      7964.6514      1.2169457      0.69362299   
   2187400  -4627.2213     -4663.8083      36.587046      4296.996       291.5033       7994.159       1.2124538      0.69362299   
   2187500  -4626.2668     -4663.0214      36.754667      3861.815       292.8388       8033.8896      1.2064578      0.69362299   
   2187600  -4626.902      -4661.6395      34.73756       8282.307       276.76772      8074.9267      1.2003265      0.69362299   
   2187700  -4625.9038     -4661.6046      35.700825      2622.9912      284.44243      8109.0723      1.1952722      0.69362299   
   2187800  -4625.8264     -4661.9095      36.083069      559.19554      287.48792      8131.6643      1.1919514      0.69362299   
   2187900  -4625.7321     -4661.6346      35.902479      953.7847       286.04909      8134.6545      1.1915132      0.69362299   
   2188000  -4626.9601     -4661.6021      34.642033      3877.1727      276.00663      8116.9954      1.1941054      0.63652873   
   2188100  -4626.806      -4661.7157      34.909695      4073.6084      278.13919      8084.8197      1.1988577      0.63652873   
   2188200  -4628.3093     -4662.6728      34.363552      3901.9707      273.78785      8045.3261      1.2047428      0.63652873   
   2188300  -4628.3139     -4664.176       35.862083      5169.5505      285.72724      8005.0568      1.2108032      0.63652873   
   2188400  -4627.824      -4663.4385      35.614499      3831.6698      283.75464      7973.2547      1.2156326      0.63652873   
   2188500  -4627.557      -4662.3362      34.779237      10214.872      277.09978      7959.4164      1.2177461      0.63652873   
   2188600  -4628.6013     -4662.6854      34.084099      5348.4028      271.56135      7967.3526      1.2165331      0.63652873   
   2188700  -4628.8414     -4663.047       34.205516      5384.0992      272.52872      7992.4316      1.2127158      0.63652873   
   2188800  -4629.6067     -4663.2423      33.635684      3833.4771      267.98864      8026.3047      1.2075979      0.63652873   
   2188900  -4628.1678     -4661.8619      33.694038      5745.2135      268.45358      8058.8451      1.2027218      0.63652873   
   2189000  -4627.6331     -4662.3832      34.750069      2200.175       276.86739      8083.2235      1.1990945      0.62128047   
   2189100  -4628.579      -4663.6956      35.1166        4558.3121      279.78769      8095.6825      1.1972491      0.62128047   
   2189200  -4627.5284     -4663.5396      36.01116       10420.498      286.91499      8092.2731      1.1977535      0.62128047   
   2189300  -4627.2417     -4662.0178      34.776102      6723.2321      277.0748       8074.1532      1.2004415      0.62128047   
   2189400  -4626.6442     -4661.7395      35.095281      5505.0505      279.61783      8047.6014      1.2044022      0.62128047   
   2189500  -4626.8621     -4662.7763      35.914111      3362.9525      286.14176      8017.9686      1.2088534      0.62128047   
   2189600  -4626.9803     -4662.3559      35.375544      5628.6669      281.85079      7993.6921      1.2125246      0.62128047   
   2189700  -4627.711      -4662.7751      35.064139      4169.7081      279.36971      7978.3883      1.2148504      0.62128047   
   2189800  -4630.3426     -4664.3829      34.040251      4081.8996      271.21199      7976.84        1.2150862      0.62128047   
   2189900  -4629.3203     -4663.8195      34.499204      6032.5484      274.86865      7986.9124      1.2135539      0.62128047   
   2190000  -4630.0987     -4664.4211      34.322423      4243.6742      273.46016      8009.6248      1.2101127      0.61616592   
   2190100  -4630.0367     -4664.549       34.512294      3761.4218      274.97294      8035.7726      1.206175       0.61616592   
   2190200  -4628.4008     -4662.7365      34.335694      3224.5214      273.5659       8058.0756      1.2028366      0.61616592   
   2190300  -4628.5889     -4662.7303      34.141345      5438.8669      272.01744      8078.1335      1.19985        0.61616592   
   2190400  -4628.0297     -4661.6367      33.606966      1531.2467      267.75984      8091.8561      1.1978152      0.61616592   
   2190500  -4628.1729     -4663.3245      35.151606      2092.6053      280.06659      8091.9504      1.1978013      0.61616592   
   2190600  -4627.0001     -4661.9788      34.978668      1703.9142      278.68873      8077.6136      1.1999272      0.61616592   
   2190700  -4626.5905     -4661.7735      35.183031      6779.4417      280.31696      8057.655       1.2028994      0.61616592   
   2190800  -4625.6442     -4661.9325      36.288283      5315.424       289.12294      8039.259       1.205652       0.61616592   
   2190900  -4626.0703     -4660.1777      34.10731       1236.1353      271.74627      8022.9273      1.2081062      0.61616592   
   2191000  -4626.7944     -4661.4028      34.60838       3049.8332      275.73849      8012.6874      1.2096501      0.7106115    
   2191100  -4627.2188     -4663.2836      36.064778      2210.518       287.34219      8009.7027      1.2101009      0.7106115    
   2191200  -4626.033      -4661.5609      35.527896      4916.1916      283.06464      8011.021       1.2099018      0.7106115    
   2191300  -4626.7004     -4663.1195      36.419067      3884.1941      290.16495      8019.9231      1.2085588      0.7106115    
   2191400  -4627.9562     -4662.9056      34.949398      2652.5338      278.45552      8033.9357      1.2064508      0.7106115    
   2191500  -4626.7863     -4660.6462      33.859876      4999.6137      269.77487      8046.1291      1.2046225      0.7106115    
   2191600  -4626.3973     -4662.959       36.561698      4567.35        291.30134      8054.0827      1.2034329      0.7106115    
   2191700  -4626.1302     -4661.4379      35.307692      2824.7905      281.31019      8056.7132      1.20304        0.7106115    
   2191800  -4625.1476     -4661.1174      35.969784      5504.8733      286.58533      8056.2925      1.2031028      0.7106115    
   2191900  -4626.1598     -4661.4811      35.321309      7849.8296      281.41868      8056.0452      1.2031398      0.7106115    
   2192000  -4626.9897     -4662.8416      35.851867      3294.6276      285.64585      8055.4065      1.2032352      0.60850609   
   2192100  -4626.1317     -4662.1008      35.969059      4554.3244      286.57956      8052.4174      1.2036818      0.60850609   
   2192200  -4626.924      -4661.3387      34.414707      3272.4671      274.19543      8048.065       1.2043328      0.60850609   
   2192300  -4627.3182     -4662.2595      34.941349      6390.1834      278.39139      8042.8368      1.2051156      0.60850609   
   2192400  -4628.2908     -4663.1724      34.88165       6402.475       277.91575      8036.8227      1.2060174      0.60850609   
   2192500  -4628.2748     -4663.3543      35.079435      4065.3815      279.49157      8030.8912      1.2069082      0.60850609   
   2192600  -4627.9337     -4662.3195      34.38587       6008.8756      273.96567      8026.4603      1.2075744      0.60850609   
   2192700  -4627.6169     -4662.8034      35.186549      9592.8504      280.345        8024.5078      1.2078683      0.60850609   
   2192800  -4627.2556     -4663.0037      35.748018      6464.1042      284.81844      8022.1475      1.2082237      0.60850609   
   2192900  -4627.8305     -4662.9893      35.15875       4882.8452      280.12351      8019.9596      1.2085533      0.60850609   
   2193000  -4626.9765     -4663.0702      36.093719      3837.1225      287.57277      8021.7675      1.2082809      0.63717009   
   2193100  -4628.1017     -4663.7182      35.616565      6940.1625      283.7711       8025.818       1.2076711      0.63717009   
   2193200  -4628.5419     -4662.1585      33.616687      6090.3094      267.83729      8025.4397      1.207728       0.63717009   
   2193300  -4628.4932     -4663.4247      34.931495      3488.3068      278.31288      8025.3284      1.2077448      0.63717009   
   2193400  -4628.0243     -4663.6204      35.596138      5118.9724      283.60835      8024.9105      1.2078077      0.63717009   
   2193500  -4627.2731     -4662.9959      35.7228        2292.219       284.61752      8024.1514      1.2079219      0.63717009   
   2193600  -4626.1692     -4661.7049      35.535679      5729.1018      283.12665      8024.6264      1.2078504      0.63717009   
   2193700  -4626.8533     -4662.3341      35.48075       6278.67        282.68901      8027.7426      1.2073816      0.63717009   
   2193800  -4627.392      -4663.3423      35.950295      5815.5626      286.43006      8031.4457      1.2068249      0.63717009   
   2193900  -4627.7661     -4662.4624      34.696282      7720.5055      276.43885      8031.8131      1.2067697      0.63717009   
   2194000  -4625.9558     -4660.8638      34.907957      6288.1197      278.12534      8029.2433      1.2071559      0.63978024   
   2194100  -4626.5126     -4661.8879      35.375319      3352.7008      281.849        8029.3058      1.2071465      0.63978024   
   2194200  -4625.9674     -4660.7171      34.749714      9261.9883      276.86456      8034.3979      1.2063814      0.63978024   
   2194300  -4626.2554     -4662.727       36.471614      8660.7112      290.58361      8045.9871      1.2046438      0.63978024   
   2194400  -4624.949      -4660.6331      35.684157      2862.5562      284.30963      8057.8677      1.2028677      0.63978024   
   2194500  -4625.4331     -4661.2859      35.852815      2929.7061      285.6534       8072.9269      1.2006238      0.63978024   
   2194600  -4627.3768     -4662.0254      34.648606      3820.2078      276.05899      8087.0623      1.1985253      0.63978024   
   2194700  -4627.3612     -4661.3655      34.004366      2468.3526      270.92608      8098.3498      1.1968547      0.63978024   
   2194800  -4626.3433     -4661.2096      34.866336      5435.2123      277.79373      8102.2602      1.1962771      0.63978024   
   2194900  -4627.2293     -4661.5478      34.318495      7030.1845      273.42887      8096.9762      1.1970578      0.63978024   
   2195000  -4627.5278     -4663.0476      35.519745      6760.9901      282.9997       8080.6047      1.1994831      0.73740419   
   2195100  -4627.1294     -4663.2541      36.124776      6779.4647      287.82022      8058.7934      1.2027295      0.73740419   
   2195200  -4627.4325     -4663.6153      36.182782      5022.9166      288.28237      8034.1932      1.2064122      0.73740419   
   2195300  -4627.4364     -4661.5923      34.155907      4022.4858      272.13347      8014.626       1.2093575      0.73740419   
   2195400  -4627.5795     -4663.4494      35.869906      4165.5762      285.78957      8008.319       1.21031        0.73740419   
   2195500  -4628.307      -4663.9279      35.620844      5582.7318      283.80519      8016.434       1.2090848      0.73740419   
   2195600  -4629.3382     -4663.8316      34.493413      4198.2048      274.82251      8036.944       1.2059992      0.73740419   
   2195700  -4629.1552     -4662.8464      33.691233      1125.2657      268.43123      8056.3266      1.2030977      0.73740419   
   2195800  -4627.7742     -4662.1463      34.37218       3867.6845      273.8566       8067.448       1.2014392      0.73740419   
   2195900  -4627.6012     -4663.5338      35.932578      2300.4347      286.2889       8068.0632      1.2013476      0.73740419   
   2196000  -4627.5666     -4663.2158      35.649164      1966.933       284.03083      8062.447       1.2021845      0.66295931   
   2196100  -4627.5116     -4662.5597      35.048071      3946.6347      279.24168      8050.5276      1.2039644      0.66295931   
   2196200  -4629.1475     -4662.9357      33.788188      4986.1576      269.2037       8034.1639      1.2064166      0.66295931   
   2196300  -4628.9373     -4663.1469      34.209608      3301.8558      272.56132      8018.6429      1.2087517      0.66295931   
   2196400  -4627.9361     -4662.0141      34.078027      6874.9402      271.51297      8002.8162      1.2111422      0.66295931   
   2196500  -4626.621      -4661.928       35.307037      6731.1537      281.30497      7991.6679      1.2128317      0.66295931   
   2196600  -4626.7612     -4661.4549      34.693671      6216.6168      276.41804      7992.8155      1.2126576      0.66295931   
   2196700  -4627.4797     -4663.7061      36.226425      3664.7701      288.63009      8004.7054      1.2108564      0.66295931   
   2196800  -4627.8028     -4662.5541      34.75129       4678.4197      276.87712      8024.3207      1.2078964      0.66295931   
   2196900  -4627.9638     -4662.4593      34.495418      4806           274.83848      8048.9428      1.2042014      0.66295931   
   2197000  -4628.901      -4662.8232      33.922199      3043.031       270.27142      8069.6685      1.2011086      0.68374584   
   2197100  -4628.9408     -4664.588       35.647182      1767.3754      284.01504      8085.2401      1.1987954      0.68374584   
   2197200  -4629.5159     -4662.7202      33.204329      6343.1057      264.55187      8087.4524      1.1984674      0.68374584   
   2197300  -4628.3669     -4663.6242      35.257366      5718.0729      280.90922      8079.082       1.1997091      0.68374584   
   2197400  -4627.6873     -4662.8269      35.139574      3400.8281      279.97073      8065.6689      1.2017042      0.68374584   
   2197500  -4627.372      -4662.3188      34.946824      3340.2756      278.43501      8052.8114      1.2036229      0.68374584   
   2197600  -4627.482      -4663.2984      35.816355      4193.5569      285.36291      8043.3543      1.2050381      0.68374584   
   2197700  -4627.3567     -4662.0071      34.650392      7099.3219      276.07322      8037.4272      1.2059267      0.68374584   
   2197800  -4627.2389     -4662.7097      35.470857      4560.3137      282.61019      8036.9561      1.2059974      0.68374584   
   2197900  -4627.2872     -4662.0801      34.792927      5024.0754      277.20885      8038.4395      1.2057749      0.68374584   
   2198000  -4626.7475     -4661.0847      34.337143      7402.4423      273.57744      8042.7949      1.2051219      0.77435197   
   2198100  -4627.624      -4663.7866      36.162596      5095.1685      288.12154      8052.101       1.2037291      0.77435197   
   2198200  -4629.2662     -4663.144       33.877803      7060.8282      269.9177       8062.2864      1.2022084      0.77435197   
   2198300  -4628.2794     -4662.8158      34.536387      4659.3185      275.1649       8068.7409      1.2012467      0.77435197   
   2198400  -4628.9122     -4662.6532      33.741013      4641.478       268.82784      8066.8102      1.2015342      0.77435197   
   2198500  -4628.5059     -4663.2945      34.788593      1850.3421      277.17432      8058.8472      1.2027215      0.77435197   
   2198600  -4627.2067     -4663.5139      36.307195      3583.7229      289.27362      8048.0564      1.2043341      0.77435197   
   2198700  -4627.0843     -4662.8117      35.727422      7689.0469      284.65434      8038.5341      1.2057607      0.77435197   
   2198800  -4628.0823     -4662.3612      34.278959      7411.5644      273.11387      8033.8232      1.2064677      0.77435197   
   2198900  -4628.2158     -4663.0845      34.868701      7638.8279      277.81257      8034.446       1.2063742      0.77435197   
   2199000  -4627.164      -4661.358       34.193966      4286.2897      272.4367       8041.3988      1.2053311      0.6244675    
   2199100  -4626.1659     -4662.5005      36.33455       6932.16        289.49157      8052.3999      1.2036844      0.6244675    
   2199200  -4627.2659     -4662.2974      35.03149       5620.0254      279.10958      8069.3784      1.2011518      0.6244675    
   2199300  -4627.4814     -4661.6404      34.158995      4373.5003      272.15807      8087.46        1.1984663      0.6244675    
   2199400  -4627.7213     -4661.547       33.825672      4022.4433      269.50235      8099.2193      1.1967263      0.6244675    
   2199500  -4627.389      -4663.354       35.964994      2013.9758      286.54717      8099.6432      1.1966636      0.6244675    
   2199600  -4627.4572     -4661.9608      34.50365       4909.0205      274.90407      8088.7492      1.1982753      0.6244675    
   2199700  -4626.7628     -4662.4735      35.710708      4591.2651      284.52117      8074.9333      1.2003255      0.6244675    
   2199800  -4627.7958     -4662.5834      34.787551      6207.8047      277.16602      8063.2487      1.2020649      0.6244675    
   2199900  -4627.8546     -4664.2045      36.349947      3030.9893      289.61424      8053.0486      1.2035875      0.6244675    
   2200000  -4629.9328     -4663.7584      33.825586      4560.439       269.50167      8043.5381      1.2050106      0.64000547   
   2200100  -4629.5377     -4664.6743      35.136609      5987.9889      279.9471       8034.8792      1.2063092      0.64000547   
   2200200  -4629.6612     -4664.9693      35.308064      3491.2539      281.31315      8031.0184      1.2068891      0.64000547   
   2200211  -4630.3534     -4664.952       34.598573      5461.1951      275.66036      8030.7626      1.2069275      0.64000547   
Loop time of 6990.44 on 1 procs for 2000000 steps with 972 atoms

Performance: 12.360 ns/day, 1.942 hours/ns, 286.105 timesteps/s, 278.094 katom-step/s
99.8% CPU use with 1 MPI tasks x 1 OpenMP threads

MPI task timing breakdown:
Section |  min time  |  avg time  |  max time  |%varavg| %total
---------------------------------------------------------------
Pair    | 4956.5     | 4956.5     | 4956.5     |   0.0 | 70.90
Neigh   | 78.698     | 78.698     | 78.698     |   0.0 |  1.13
Comm    | 95.418     | 95.418     | 95.418     |   0.0 |  1.36
Output  | 4.8577     | 4.8577     | 4.8577     |   0.0 |  0.07
Modify  | 1807.4     | 1807.4     | 1807.4     |   0.0 | 25.85
Other   |            | 47.6       |            |       |  0.68

Nlocal:            972 ave         972 max         972 min
Histogram: 1 0 0 0 0 0 0 0 0 0
Nghost:           3846 ave        3846 max        3846 min
Histogram: 1 0 0 0 0 0 0 0 0 0
Neighs:              0 ave           0 max           0 min
Histogram: 1 0 0 0 0 0 0 0 0 0
FullNghs:       134474 ave      134474 max      134474 min
Histogram: 1 0 0 0 0 0 0 0 0 0

Total # of neighbors = 134474
Ave neighs/atom = 138.34774
Neighbor list builds = 199061
Dangerous builds = 194369

unfix		3
unfix		4
Total wall time: 2:08:14
