LAMMPS (7 Feb 2024 - Update 1)
KOKKOS mode with Kokkos version 4.2.0 is enabled (src/KOKKOS/kokkos.cpp:72)
  will use up to 4 GPU(s) per node
  using 1 OpenMP thread(s) per MPI task
Reading data file ...
  triclinic box = (0 0 0) to (24.989956 24.989919 23.167336) with tilt (-0.22207236 -0.16357316 -0.098737559)
  2 by 2 by 1 MPI processor grid
  reading atoms ...
  1920 atoms
  read_data CPU = 0.012 seconds
ACE/AL version: 2023.11.25
Loading /home/cicn/cicn607503/pd/pot_dir/interim_potential_ladder_step_1.yaml
Total number of basis functions
	H: 23 (r=1) 664 (r>1)
	O: 23 (r=1) 664 (r>1)
Mapping LAMMPS atom type #1(H) -> ACE species type #0
Mapping LAMMPS atom type #2(O) -> ACE species type #1
Loading ASI /home/cicn/cicn607503/pd/pot_dir/interim_potential_ladder_step_1.asi
LINEAR ASI is loaded
Switching to 'neigh_modify every 1 delay 0 check yes' setting during minimization
Neighbor list info ...
  update: every = 1 steps, delay = 0 steps, check = yes
  max neighbors/atom: 2000, page size: 100000
  master list distance cutoff = 6.5
  ghost atom cutoff = 6.5
  binsize = 6.5, bins = 4 4 4
  1 neighbor lists, perpetual/occasional/extra = 1 0 0
  (1) pair pace/extrapolation/kk, perpetual
      attributes: full, newton on, kokkos_device
      pair build: full/bin/kk/device
      stencil: full/bin/3d
      bin: kk/device
Setting up cg/kk style minimization ...
  Unit style    : metal
  Current step  : 0
WARNING: Fix with atom-based arrays not compatible with sending data in Kokkos communication, switching to classic exchange/border communication (src/KOKKOS/comm_kokkos.cpp:666)
WARNING: Fix with atom-based arrays not compatible with Kokkos sorting on device, switching to classic host sorting (src/KOKKOS/atom_kokkos.cpp:218)
Per MPI rank memory allocation (min/avg/max) = 423.1 | 425.1 | 428.5 Mbytes
   Step         TotEng         PotEng         KinEng         Press           Temp          Volume        Density     c_max_pace_gamma
         0  -9257.6624     -9257.6624      0              4199.2215      0              14467.932      1.3233249      0.59040826   
       100  -9273.0754     -9273.0754      0             -8062.4723      0              14467.932      1.3233249      0.59040826   
       200  -9273.115      -9273.115       0             -8132.5793      0              14467.932      1.3233249      0.59040826   
       300  -9273.1151     -9273.1151      0             -8129.1373      0              14467.932      1.3233249      0.59040826   
       330  -9273.1151     -9273.1151      0             -8129.2551      0              14467.932      1.3233249      0.59040826   
Loop time of 1.3629 on 4 procs for 330 steps with 1920 atoms

99.5% CPU use with 4 MPI tasks x 1 OpenMP threads

Minimization stats:
  Stopping criterion = force tolerance
  Energy initial, next-to-last, final = 
     -9257.66239234843  -9273.11512032474  -9273.11512032963
  Force two-norm initial, final = 10.318152 0.00048118279
  Force max component initial, final = 0.72934274 3.9574739e-05
  Final line search alpha, max atom move = 1 3.9574739e-05
  Iterations, force evaluations = 330 660

MPI task timing breakdown:
Section |  min time  |  avg time  |  max time  |%varavg| %total
---------------------------------------------------------------
Pair    | 0.85663    | 0.88144    | 0.92401    |   2.8 | 64.67
Neigh   | 0.0020663  | 0.0022227  | 0.0024678  |   0.3 |  0.16
Comm    | 0.1995     | 0.24215    | 0.26833    |   5.4 | 17.77
Output  | 0.0004415  | 0.00044252 | 0.00044394 |   0.0 |  0.03
Modify  | 0.1469     | 0.1501     | 0.15269    |   0.5 | 11.01
Other   |            | 0.08655    |            |       |  6.35

Nlocal:            480 ave         483 max         478 min
Histogram: 1 0 1 0 1 0 0 0 0 1
Nghost:         2633.5 ave        2637 max        2632 min
Histogram: 2 0 1 0 0 0 0 0 0 1
Neighs:              0 ave           0 max           0 min
Histogram: 4 0 0 0 0 0 0 0 0 0
FullNghs:        75282 ave       75862 max       74860 min
Histogram: 1 0 0 2 0 0 0 0 0 1

Total # of neighbors = 301128
Ave neighs/atom = 156.8375
Neighbor list builds = 5
Dangerous builds = 0
Setting up Verlet run ...
  Unit style    : metal
  Current step  : 330
  Time step     : 0.0005
WARNING: Fix with atom-based arrays not compatible with sending data in Kokkos communication, switching to classic exchange/border communication (src/KOKKOS/comm_kokkos.cpp:666)
WARNING: Fix with atom-based arrays not compatible with Kokkos sorting on device, switching to classic host sorting (src/KOKKOS/atom_kokkos.cpp:218)
Per MPI rank memory allocation (min/avg/max) = 424.6 | 426.3 | 427.6 Mbytes
   Step         TotEng         PotEng         KinEng         Press           Temp          Volume        Density     c_max_pace_gamma
       330  -9187.5378     -9273.1151      85.577325     -1811.3753      345            14467.932      1.3233249      0.59040826   
       400  -9175.7236     -9219.4979      43.774262     -5383.4674      176.47339      14396.641      1.3298779      0.59040826   
       500  -9155.4484     -9207.7673      52.318917      5374.9636      210.92066      14127.571      1.3552064      0.59040826   
       600  -9140.6437     -9204.6436      63.9999        11962.704      258.01187      13817.433      1.3856246      0.59040826   
       700  -9133.326      -9203.6193      70.293326      17906.437      283.38345      13602.037      1.4075667      0.59040826   
       800  -9124.2117     -9195.9557      71.743939      20311.252      289.23151      13488.406      1.4194245      0.59040826   
       900  -9117.4851     -9196.7277      79.242587      20671.294      319.46187      13460.755      1.4223403      0.59040826   
      1000  -9113.3785     -9190.515       77.136477      19176.337      310.97121      13508.396      1.4173241      0.70497026   
      1100  -9111.5582     -9191.0336      79.475445      19228.392      320.40063      13612.358      1.4064995      0.70497026   
      1200  -9109.5454     -9188.8911      79.345731      16080.562      319.87769      13745.769      1.3928486      0.70497026   
      1300  -9108.3728     -9189.0412      80.668412      15530.076      325.21         13878.644      1.3795133      0.70497026   
      1400  -9109.2243     -9188.4505      79.226233      15048.149      319.39594      13984.5        1.3690711      0.70497026   
      1500  -9107.6302     -9188.4143      80.784123      12136.65       325.67649      14042.401      1.363426       0.70497026   
      1600  -9105.1216     -9187.0395      81.91786       11913.437      330.24708      14054.46       1.3622561      0.70497026   
      1700  -9103.2426     -9186.4472      83.204569      12962.408      335.43437      14028.437      1.3647832      0.70497026   
      1800  -9100.5651     -9186.5251      85.959911      12423.478      346.54237      13981.679      1.3693473      0.70497026   
      1900  -9099.5045     -9186.0178      86.513276      14859.868      348.77323      13927.91       1.3746337      0.70497026   
      2000  -9097.2997     -9185.5877      88.288031      16205.894      355.92805      13879.753      1.3794031      0.75597323   
      2100  -9096.4752     -9181.6394      85.16422       18480.308      343.33459      13847.836      1.3825824      0.75597323   
      2200  -9093.0394     -9180.1474      87.108035      14137.545      351.17097      13839.918      1.3833735      0.75597323   
      2300  -9093.1067     -9181.0157      87.909064      15744.627      354.40027      13857.272      1.381641       0.75597323   
      2400  -9093.789      -9181.2608      87.471855      16077.006      352.63769      13894.572      1.3779319      0.75597323   
      2500  -9096.9117     -9182.8073      85.895563      14696.34       346.28296      13941.288      1.3733146      0.75597323   
      2600  -9098.1268     -9183.1175      84.990702      12237.847      342.63506      13983.935      1.3691264      0.75597323   
      2700  -9101.0328     -9184.9571      83.924319      16811.419      338.336        14009.539      1.3666242      0.75597323   
      2800  -9101.7248     -9184.2651      82.540317      14876.576      332.75648      14012.953      1.3662912      0.75597323   
      2900  -9100.8514     -9184.1221      83.270757      15720.819      335.7012       13988.902      1.3686403      0.75597323   
      3000  -9097.3457     -9184.1622      86.816506      15170.074      349.99568      13950.266      1.3724308      0.71359212   
      3100  -9097.7068     -9183.3928      85.686032      13047.949      345.43825      13907.609      1.3766403      0.71359212   
      3200  -9097.9597     -9182.8569      84.897203      14967.292      342.25813      13867.187      1.3806531      0.71359212   
      3300  -9098.1544     -9181.2638      83.109429      17138.079      335.05082      13840.528      1.3833124      0.71359212   
      3400  -9099.3404     -9182.5618      83.221389      15788.332      335.50218      13833.412      1.3840241      0.71359212   
      3500  -9098.3757     -9185.1153      86.739599      17233.571      349.68564      13845.578      1.3828079      0.71359212   
      3600  -9095.925      -9183.1908      87.265763      14466.571      351.80684      13874.215      1.3799538      0.71359212   
      3700  -9097.0306     -9181.7213      84.690688      14927.38       341.42557      13913.888      1.3760191      0.71359212   
      3800  -9097.0567     -9182.2021      85.145428      17093.914      343.25883      13956.114      1.3718557      0.71359212   
      3900  -9096.3618     -9183.4216      87.059797      13214.518      350.9765       13992.834      1.3682557      0.71359212   
      4000  -9097.6768     -9183.2918      85.615031      11594.676      345.15201      14014.053      1.366184       0.81601634   
      4100  -9096.6041     -9182.435       85.830892      13269.505      346.02224      14010.725      1.3665085      0.81601634   
      4200  -9094.3953     -9180.766       86.370738      13409.012      348.1986       13988.461      1.3686834      0.81601634   
      4300  -9093.5491     -9183.9916      90.442493      12711.835      364.61364      13954.487      1.3720156      0.81601634   
      4400  -9092.9888     -9180.2469      87.258099      14254.668      351.77594      13906.859      1.3767145      0.81601634   
      4500  -9093.505      -9181.4324      87.927348      14911.543      354.47398      13858.31       1.3815375      0.81601634   
      4600  -9092.9588     -9180.3222      87.363377      14820.982      352.20036      13821.597      1.3852072      0.81601634   
      4700  -9094.6127     -9180.1675      85.554837      16281.437      344.90934      13809.668      1.3864037      0.81601634   
      4800  -9097.8175     -9183.8251      86.007628      18395.171      346.73474      13824.222      1.3849441      0.81601634   
      4900  -9098.3217     -9183.7195      85.397773      15182.669      344.27615      13866.359      1.3807355      0.81601634   
      5000  -9100.1906     -9184.8688      84.678212      17722.494      341.37528      13928.188      1.3746063      0.67016131   
      5100  -9100.9099     -9184.7977      83.887849      15418.145      338.18897      13992.349      1.3683032      0.67016131   
      5200  -9098.1802     -9184.7512      86.571022      13885.106      349.00603      14047.101      1.3629698      0.67016131   
      5300  -9097.21       -9181.7754      84.56532       13299.43       340.92016      14080.997      1.3596888      0.67016131   
      5400  -9100.1909     -9184.4447      84.253872      12110.385      339.66458      14086.902      1.3591188      0.67016131   
      5500  -9098.6871     -9184.0691      85.381999      14004.927      344.21255      14051.932      1.3625012      0.67016131   
      5600  -9096.3854     -9180.2328      83.847414      16268.53       338.02596      13978.844      1.369625       0.67016131   
      5700  -9095.0648     -9180.5181      85.453298      16990.36       344.49999      13892.276      1.3781596      0.67016131   
      5800  -9092.8594     -9180.3752      87.515779      18602.935      352.81476      13816.621      1.385706       0.67016131   
      5900  -9096.7998     -9184.9052      88.105454      17842.061      355.192        13768.679      1.390531       0.67016131   
      6000  -9095.8512     -9180.5715      84.720358      15787.974      341.54519      13756.466      1.3917655      0.69651404   
      6100  -9096.8051     -9183.8993      87.094167      13675.657      351.11506      13782.456      1.389141       0.69651404   
      6200  -9098.6501     -9182.3907      83.7406        16960.344      337.59535      13841.85       1.3831803      0.69651404   
      6300  -9098.15       -9183.3126      85.162627      15319.443      343.32817      13926.116      1.3748108      0.69651404   
      6400  -9098.9024     -9182.1749      83.272597      12536.559      335.70862      14011.341      1.3664484      0.69651404   
      6500  -9097.0638     -9181.0846      84.020766      14986.554      338.72482      14074.578      1.3603089      0.69651404   
      6600  -9098.6917     -9184.6615      85.969827      13940.927      346.58235      14103.101      1.3575578      0.69651404   
      6700  -9098.5903     -9185.1103      86.519987      9982.3351      348.80028      14087.897      1.3590229      0.69651404   
      6800  -9097.0713     -9179.9328      82.861425      11755.224      334.05101      14032.887      1.3643504      0.69651404   
      6900  -9093.7508     -9179.871       86.12018       11900.563      347.18849      13959.176      1.3715548      0.69651404   
      7000  -9093.1178     -9180.6357      87.517934      15102.129      352.82345      13888.666      1.3785179      0.74257495   
      7100  -9093.0108     -9179.4689      86.458067      17725.133      348.55066      13837.453      1.3836198      0.74257495   
      7200  -9091.6292     -9179.8355      88.206246      19048.725      355.59834      13814.437      1.385925       0.74257495   
      7300  -9093.3909     -9178.8717      85.480779      14368.662      344.61078      13819.549      1.3854124      0.74257495   
      7400  -9095.3486     -9181.7028      86.354151      15934.533      348.13173      13849.569      1.3824094      0.74257495   
      7500  -9095.4445     -9182.3828      86.938233      15069.865      350.48642      13889.358      1.3784492      0.74257495   
      7600  -9097.83       -9183.5221      85.692062      12574.282      345.46255      13928.215      1.3746037      0.74257495   
      7700  -9096.9612     -9181.6407      84.679411      16740.078      341.38011      13957.624      1.3717073      0.74257495   
      7800  -9096.9754     -9180.8248      83.849371      15363.62       338.03385      13975.015      1.3700003      0.74257495   
      7900  -9093.82       -9182.4048      88.584777      15341.677      357.12437      13977.134      1.3697926      0.74257495   
      8000  -9093.3848     -9182.3244      88.939622      14982.855      358.5549       13963.522      1.3711279      0.70659133   
      8100  -9094.6608     -9182.1922      87.531337      14031.022      352.87748      13940.706      1.3733719      0.70659133   
      8200  -9091.733      -9180.3022      88.569178      16596.01       357.06148      13916.755      1.3757355      0.70659133   
      8300  -9093.3107     -9183.2893      89.9786        14288.012      362.74348      13897.022      1.377689       0.70659133   
      8400  -9092.5901     -9181.1535      88.563381      17357.707      357.03811      13884.725      1.3789092      0.70659133   
      8500  -9092.3536     -9180.6282      88.274606      15924.278      355.87393      13881.215      1.3792579      0.70659133   
      8600  -9092.9351     -9180.7648      87.829713      17284.465      354.08037      13886.677      1.3787153      0.70659133   
      8700  -9093.9595     -9180.4304      86.470927      16381.363      348.6025       13901.212      1.3772738      0.70659133   
      8800  -9095.0128     -9179.4559      84.443073      18416.084      340.42733      13920.165      1.3753986      0.70659133   
      8900  -9094.9314     -9180.8199      85.888475      15867.161      346.25438      13937.001      1.3737371      0.70659133   
      9000  -9098.1226     -9182.2878      84.165193      12002.334      339.30707      13944.605      1.372988       0.69963639   
      9100  -9095.6334     -9181.429       85.795682      12673.969      345.88029      13945.631      1.372887       0.69963639   
      9200  -9096.1598     -9182.9018      86.742013      13851.302      349.69537      13938.881      1.3735518      0.69963639   
      9300  -9098.0504     -9183.1906      85.140252      12007.286      343.23796      13922.51       1.3751669      0.69963639   
      9400  -9098.9761     -9185.9996      87.023529      13179.733      350.83029      13896.977      1.3776935      0.69963639   
      9500  -9096.6053     -9183.1916      86.586308      13346.093      349.06765      13863.064      1.3810637      0.69963639   
      9600  -9095.027      -9181.2151      86.188107      15424.374      347.46233      13834.285      1.3839367      0.69963639   
      9700  -9096.1605     -9182.2006      86.040089      16790.727      346.8656       13820.358      1.3853313      0.69963639   
      9800  -9095.6364     -9183.8921      88.255787      15863.461      355.79806      13822.483      1.3851183      0.69963639   
      9900  -9096.3052     -9184.7395      88.43433       13449.894      356.51785      13839.862      1.383379       0.69963639   
     10000  -9097.4544     -9183.664       86.209582      15793.573      347.5489       13870.604      1.380313       0.76583589   
     10100  -9098.1632     -9183.0917      84.92847       13354.388      342.38418      13908.576      1.3765446      0.76583589   
     10200  -9097.7032     -9184.3649      86.661664      13957.064      349.37145      13940.782      1.3733644      0.76583589   
     10300  -9097.5334     -9183.2956      85.762201      14887.011      345.74532      13962.919      1.3711871      0.76583589   
     10400  -9096.6626     -9182.3652      85.702632      13902.736      345.50517      13969.389      1.3705521      0.76583589   
     10500  -9096.761      -9183.9258      87.164819      15124.029      351.39989      13958.038      1.3716666      0.76583589   
     10600  -9099.0126     -9182.9133      83.900758      13435.508      338.24102      13925.553      1.3748664      0.76583589   
     10700  -9100.2797     -9183.8488      83.569116      13024.81       336.90402      13878.048      1.3795726      0.76583589   
     10800  -9096.2341     -9182.9819      86.747864      13232.946      349.71896      13825.69       1.3847971      0.76583589   
     10900  -9097.5897     -9183.558       85.968285      15703.861      346.57613      13785.782      1.3888059      0.76583589   
     11000  -9096.4075     -9183.8973      87.489792      14624.605      352.71         13764.664      1.3909366      0.66202721   
     11100  -9096.3489     -9181.8594      85.510453      13753.724      344.73041      13767.525      1.3906475      0.66202721   
     11200  -9095.2227     -9183.4937      88.271051      14774.539      355.8596       13797.167      1.3876598      0.66202721   
     11300  -9097.5131     -9183.5773      86.064107      14379.661      346.96243      13845.616      1.3828041      0.66202721   
     11400  -9096.2008     -9181.1976      84.99681       16252.727      342.65969      13900.632      1.3773313      0.66202721   
     11500  -9098.9834     -9184.1262      85.142839      16353.401      343.2484       13950.957      1.3723629      0.66202721   
     11600  -9098.1188     -9182.471       84.35217       14625.279      340.06086      13978.689      1.3696403      0.66202721   
     11700  -9098.4692     -9183.027       84.557791      12393.962      340.88981      13981.409      1.3693738      0.66202721   
     11800  -9098.6935     -9184.891       86.19746       13687.727      347.50004      13961.157      1.3713602      0.66202721   
     11900  -9100.2327     -9185.6146      85.381904      15369.278      344.21217      13923.664      1.3750529      0.66202721   
     12000  -9098.7876     -9183.241       84.453407      15759.558      340.46899      13873.65       1.3800099      0.66679729   
     12100  -9099.0881     -9185.92        86.831871      17209.97       350.05763      13826.196      1.3847464      0.66679729   
     12200  -9099.4759     -9184.2159      84.740023      15106.991      341.62447      13793.493      1.3880295      0.66679729   
     12300  -9098.5703     -9185.2521      86.68173       16254.443      349.45234      13779.551      1.3894338      0.66679729   
     12400  -9099.5972     -9184.0498      84.452577      19344.665      340.46564      13784.162      1.3889691      0.66679729   
     12500  -9098.3154     -9184.1735      85.858084      17694.72       346.13186      13807.997      1.3865715      0.66679729   
     12600  -9098.8129     -9184.8459      86.033072      15031.187      346.83732      13845.907      1.3827751      0.66679729   
     12700  -9101.2056     -9184.4848      83.279224      17340.988      335.73534      13887.436      1.37864        0.66679729   
     12800  -9100.3234     -9186.1948      85.87133       14976.947      346.18526      13922.999      1.3751186      0.66679729   
     12900  -9099.6804     -9186.4214      86.74103       14878.81       349.69141      13945.369      1.3729127      0.66679729   
     13000  -9100.5877     -9186.3549      85.76716       14078.345      345.76531      13954.404      1.3720238      0.68222526   
     13100  -9100.4383     -9187.5516      87.113356      13889.773      351.19242      13946.585      1.372793       0.68222526   
     13200  -9099.2579     -9184.6899      85.432047      15287.692      344.41432      13924.488      1.3749716      0.68222526   
     13300  -9100.094      -9185.6682      85.574209      12696.884      344.98744      13897.086      1.3776827      0.68222526   
     13400  -9099.8589     -9184.3742      84.515325      15639.791      340.71861      13870.448      1.3803285      0.68222526   
     13500  -9098.5942     -9182.7468      84.152624      16102.793      339.2564       13849.111      1.3824551      0.68222526   
     13600  -9099.2475     -9184.7084      85.460876      15494.218      344.53054      13840.234      1.3833418      0.68222526   
     13700  -9098.8505     -9184.2531      85.402517      16191.993      344.29527      13846.986      1.3826673      0.68222526   
     13800  -9098.367      -9185.8569      87.489859      13204.709      352.71027      13864.33       1.3809376      0.68222526   
     13900  -9097.9263     -9185.2871      87.360792      14280.634      352.18994      13887.765      1.3786073      0.68222526   
     14000  -9098.001      -9182.3219      84.320869      16699.472      339.93467      13912.317      1.3761744      0.78434126   
     14100  -9098.3366     -9184.7583      86.421612      15687.63       348.40369      13940.206      1.3734212      0.78434126   
     14200  -9097.429      -9182.2652      84.836128      17024.818      342.01191      13960.776      1.3713976      0.78434126   
     14300  -9094.581      -9185.0424      90.461427      15024.336      364.68997      13969.331      1.3705578      0.78434126   
     14400  -9094.9545     -9181.0501      86.095638      12550.332      347.08955      13967.206      1.3707663      0.78434126   
     14500  -9094.2724     -9182.7692      88.496821      14471.073      356.76977      13958.274      1.3716434      0.78434126   
     14600  -9095.6238     -9181.9735      86.349795      13894.964      348.11417      13942.467      1.3731985      0.78434126   
     14700  -9095.3338     -9182.7713      87.437505      15534.289      352.49921      13922.482      1.3751697      0.78434126   
     14800  -9094.8437     -9181.2593      86.415647      16627.815      348.37964      13901.709      1.3772245      0.78434126   
     14900  -9094.042      -9181.9686      87.926593      17492.754      354.47094      13885.76       1.3788064      0.78434126   
     15000  -9093.6076     -9181.4292      87.821652      16537.418      354.04787      13884.995      1.3788823      0.82112271   
     15100  -9093.1992     -9179.5264      86.327185      16247.129      348.02302      13902.386      1.3771575      0.82112271   
     15200  -9095.8289     -9181.2913      85.462417      16058.714      344.53675      13931.969      1.3742332      0.82112271   
     15300  -9096.5772     -9182.6856      86.108408      9321.3287      347.14103      13963.556      1.3711245      0.82112271   
     15400  -9097.7653     -9183.8498      86.084508      12603.77       347.04468      13988.718      1.3686583      0.82112271   
     15500  -9096.49       -9182.1502      85.660199      12752.202      345.3341       13998.644      1.3676878      0.82112271   
     15600  -9098.0625     -9183.282       85.219528      12933.319      343.55756      13989.912      1.3685414      0.82112271   
     15700  -9100.3039     -9185.947       85.643129      12323.395      345.26528      13958.816      1.3715902      0.82112271   
     15800  -9098.8436     -9183.8769      85.033259      13949.902      342.80663      13902.277      1.3771682      0.82112271   
     15900  -9096.4997     -9183.4763      86.976545      16039.443      350.64087      13836.501      1.383715       0.82112271   
     16000  -9097.8643     -9183.8086      85.944304      15269.012      346.47945      13780.477      1.3893404      0.72485762   
     16100  -9095.7652     -9179.7914      84.026132      16014.334      338.74646      13743.51       1.3930775      0.72485762   
     16200  -9095.0552     -9179.4979      84.442703      14287.974      340.42584      13743.001      1.3931291      0.72485762   
     16300  -9099.6464     -9184.3642      84.717816      12359.872      341.53494      13776.871      1.3897041      0.72485762   
     16400  -9100.547      -9182.1602      81.61325       14394.228      329.01906      13831.882      1.3841771      0.72485762   
     16500  -9098.8434     -9185.1896      86.346181      11355.242      348.0996       13901.084      1.3772864      0.72485762   
     16600  -9099.0363     -9185.4831      86.446794      11664.688      348.50521      13967.667      1.370721       0.72485762   
     16700  -9099.6808     -9184.7539      85.0731        11855.743      342.96724      14015.729      1.3660207      0.72485762   
     16800  -9100.5887     -9185.7344      85.145753      14210.146      343.26014      14035.579      1.3640887      0.72485762   
     16900  -9102.2745     -9186.224       83.949521      11233.008      338.4376       14021.665      1.3654423      0.72485762   
     17000  -9102.1712     -9186.0236      83.852469      11067.528      338.04634      13971.943      1.3703016      0.75174673   
     17100  -9100.1389     -9182.9451      82.806172      13512.594      333.82826      13901.314      1.3772637      0.75174673   
     17200  -9095.5536     -9181.6981      86.1445        14733.908      347.28653      13833.25       1.3840402      0.75174673   
     17300  -9093.7843     -9181.9797      88.19543       18004.994      355.55474      13787.083      1.3886747      0.75174673   
     17400  -9095.0064     -9182.1815      87.175082      17703.231      351.44126      13775.639      1.3898284      0.75174673   
     17500  -9093.994      -9183.6987      89.704779      14571.704      361.63959      13792.563      1.3881231      0.75174673   
     17600  -9096.1979     -9182.5963      86.39837       16386.486      348.31         13831.918      1.3841735      0.75174673   
     17700  -9094.5136     -9180.5412      86.027606      16054.495      346.81528      13886.676      1.3787154      0.75174673   
     17800  -9097.5837     -9182.7178      85.134079      14632.984      343.21308      13939.553      1.3734855      0.75174673   
     17900  -9096.786      -9184.6069      87.820871      11495.872      354.04472      13975.175      1.3699847      0.75174673   
     18000  -9098.3103     -9183.9912      85.680877      13803.532      345.41746      13987.008      1.3688256      0.67414082   
     18100  -9097.3769     -9182.1637      84.786785      13559.403      341.81298      13974.402      1.3700604      0.67414082   
     18200  -9097.9765     -9185.2446      87.268097      13259.85       351.81625      13944.928      1.3729561      0.67414082   
     18300  -9098.9972     -9184.1263      85.129074      17769.445      343.1929       13902.318      1.3771642      0.67414082   
     18400  -9099.0888     -9185.8363      86.747546      17799.029      349.71768      13859.334      1.3814354      0.67414082   
     18500  -9099.2577     -9184.2515      84.993761      17657.992      342.64739      13823.158      1.3850507      0.67414082   
     18600  -9101.6354     -9186.7965      85.161022      12853.525      343.3217       13802.257      1.3871481      0.67414082   
     18700  -9100.3964     -9185.1117      84.715272      14490.353      341.52468      13793.999      1.3879785      0.67414082   
     18800  -9100.6712     -9185.2443      84.573105      15440.377      340.95154      13805.38       1.3868343      0.67414082   
     18900  -9101.3765     -9184.9157      83.539228      18537.85       336.78353      13833.001      1.3840651      0.67414082   
     19000  -9101.5044     -9184.6619      83.157469      16488.683      335.24449      13869.463      1.3804265      0.6997219    
     19100  -9103.1736     -9187.5204      84.346856      14406.295      340.03943      13907.17       1.3766837      0.6997219    
     19200  -9101.4287     -9184.6632      83.234539      13717.271      335.55519      13934.316      1.3740018      0.6997219    
     19300  -9098.8502     -9184.8504      86.000254      12448.111      346.70501      13949.988      1.3724582      0.6997219    
     19400  -9098.1744     -9182.3388      84.164498      12784.003      339.30427      13952.046      1.3722557      0.6997219    
     19500  -9099.0323     -9184.923       85.890669      14958.266      346.26323      13939.455      1.3734952      0.6997219    
     19600  -9098.3252     -9182.3395      84.01433       15944.743      338.69888      13915.189      1.3758903      0.6997219    
     19700  -9098.9123     -9184.5183      85.606006      12420.01       345.11563      13887.974      1.3785866      0.6997219    
     19800  -9098.4951     -9184.1961      85.700973      14113.891      345.49848      13862.314      1.3811385      0.6997219    
     19900  -9098.498      -9185.0188      86.520821      15951.925      348.80365      13845.421      1.3828236      0.6997219    
     20000  -9098.9691     -9184.1325      85.163349      15604.905      343.33108      13833.034      1.3840619      0.66283937   
     20100  -9100.572      -9184.9523      84.380344      16447.242      340.17444      13829.578      1.3844077      0.66283937   
     20200  -9098.1581     -9185.3161      87.158019      16074.587      351.37247      13837.796      1.3835855      0.66283937   
     20300  -9097.5865     -9183.4797      85.89323       15318.848      346.27355      13858.694      1.3814992      0.66283937   
     20400  -9097.0892     -9182.6057      85.516502      12417.594      344.75479      13888.978      1.378487       0.66283937   
     20500  -9098.188      -9183.7722      85.584193      13293.247      345.02769      13926.012      1.3748211      0.66283937   
     20600  -9100.4712     -9186.2022      85.731006      12990.612      345.61955      13959.291      1.3715435      0.66283937   
     20700  -9098.4413     -9184.0766      85.635315      13924.368      345.23378      13976.797      1.3698256      0.66283937   
     20800  -9096.8713     -9182.9863      86.114961      14921.17       347.16745      13977.735      1.3697337      0.66283937   
     20900  -9097.0914     -9184.9147      87.823376      15486.127      354.05482      13962.032      1.3712742      0.66283937   
     21000  -9097.6175     -9182.9228      85.305265      15682.252      343.90321      13929.057      1.3745205      0.71175356   
     21100  -9099.5726     -9186.4547      86.88208       14907.085      350.26004      13886.901      1.3786931      0.71175356   
     21200  -9099.4794     -9184.5883      85.108959      18463.569      343.11181      13839.737      1.3833915      0.71175356   
     21300  -9098.2296     -9186.4101      88.180499      14866.268      355.49454      13797.133      1.3876632      0.71175356   
     21400  -9098.2461     -9183.1766      84.930425      17356.258      342.39206      13769.554      1.3904426      0.71175356   
     21500  -9096.8732     -9182.7655      85.892297      15984.607      346.26979      13768.903      1.3905084      0.71175356   
     21600  -9100.9291     -9185.826       84.89687       18761.567      342.25678      13796.733      1.3877035      0.71175356   
     21700  -9101.6938     -9183.8296      82.135808      15884.01       331.12572      13837.712      1.383594       0.71175356   
     21800  -9100.6095     -9184.1763      83.566867      13265.358      336.89496      13883.117      1.3790689      0.71175356   
     21900  -9100.8254     -9183.5662      82.740831      12763.991      333.56484      13918.891      1.3755244      0.71175356   
     22000  -9101.2651     -9184.8484      83.58326       15481.545      336.96104      13934.704      1.3739635      0.67399669   
     22100  -9102.9679     -9184.3608      81.392832      12386.444      328.13046      13929.13       1.3745134      0.67399669   
     22200  -9099.8771     -9183.9092      84.032051      15008.121      338.77032      13900.624      1.3773321      0.67399669   
     22300  -9098.4388     -9184.1877      85.748905      14605.565      345.69171      13857.238      1.3816444      0.67399669   
     22400  -9097.4061     -9182.2145      84.808328      16740.743      341.89983      13808.44       1.386527       0.67399669   
     22500  -9096.6888     -9183.581       86.892182      18782.824      350.30077      13772.317      1.3901637      0.67399669   
     22600  -9096.2662     -9183.054       86.787768      17623.608      349.87983      13755.594      1.3918537      0.67399669   
     22700  -9096.2367     -9183.7568      87.520099      16793.105      352.83218      13762.924      1.3911125      0.67399669   
     22800  -9095.5236     -9182.5517      87.028082      15565.468      350.84864      13789.449      1.3884365      0.67399669   
     22900  -9098.0526     -9185.7482      87.695622      13087.068      353.53979      13827.355      1.3846303      0.67399669   
     23000  -9099.2182     -9184.7417      85.523556      15770.846      344.78323      13865.29       1.380842       0.66332952   
     23100  -9100.8368     -9183.489       82.652172      13146.181      333.20741      13894.162      1.3779726      0.66332952   
     23200  -9098.627      -9183.3526      84.72553       12393.858      341.56604      13911.538      1.3762515      0.66332952   
     23300  -9097.6058     -9184.0519      86.446058      16472.202      348.50225      13912.815      1.3761252      0.66332952   
     23400  -9097.7154     -9183.3925      85.67708       17501.292      345.40215      13901.64       1.3772314      0.66332952   
     23500  -9097.6994     -9182.5004      84.800933      14060.835      341.87002      13880.348      1.379344       0.66332952   
     23600  -9098.8505     -9181.1823      82.331795      15403.029      331.91584      13855.624      1.3818053      0.66332952   
     23700  -9098.7689     -9181.9457      83.176861      17579.181      335.32267      13833.542      1.384011       0.66332952   
     23800  -9097.9074     -9185.0534      87.146054      16628.599      351.32424      13817.68       1.3855998      0.66332952   
     23900  -9098.677      -9182.6179      83.940882      17053.918      338.40277      13808.754      1.3864955      0.66332952   
     24000  -9098.699      -9182.8599      84.160848      14245.429      339.28956      13813.124      1.3860568      0.6694847    
     24100  -9097.7152     -9183.4968      85.781613      14443.866      345.82357      13828.963      1.3844693      0.6694847    
     24200  -9097.1383     -9182.8804      85.742089      16185.771      345.66424      13850.277      1.3823388      0.6694847    
     24300  -9097.9072     -9182.854       84.946806      16133.334      342.4581       13874.595      1.3799159      0.6694847    
     24400  -9097.8162     -9182.1955      84.379337      16545.008      340.17038      13894.488      1.3779403      0.6694847    
     24500  -9098.2615     -9183.662       85.400537      13174.702      344.28729      13910.026      1.3764011      0.6694847    
     24600  -9097.2645     -9183.5047      86.240218      15818.302      347.67241      13911.484      1.3762568      0.6694847    
     24700  -9099.1884     -9182.3826      83.194144      15410.627      335.39234      13901.617      1.3772337      0.6694847    
     24800  -9097.6191     -9183.4386      85.819497      16763.914      345.9763       13885.765      1.3788059      0.6694847    
     24900  -9097.8337     -9183.5772      85.743499      12486.766      345.66992      13871.888      1.3801852      0.6694847    
     25000  -9098.6526     -9183.3377      84.685149      14358.392      341.40324      13858.371      1.3815314      0.69147465   
     25100  -9098.0521     -9184.6048      86.552697      14784.883      348.93216      13849.797      1.3823867      0.69147465   
     25200  -9098.5796     -9182.2598      83.680212      16249.735      337.3519       13847.634      1.3826025      0.69147465   
     25300  -9095.9176     -9180.8427      84.925003      17070.729      342.3702       13852.947      1.3820723      0.69147465   
     25400  -9094.1318     -9182.6214      88.489592      13949.308      356.74063      13866.727      1.3806989      0.69147465   
     25500  -9096.5974     -9181.1512      84.553873      17643.636      340.87401      13889.258      1.3784592      0.69147465   
     25600  -9095.3028     -9181.2101      85.907365      16283.102      346.33054      13918.765      1.3755369      0.69147465   
     25700  -9094.5735     -9180.8211      86.247633      14953.967      347.70231      13948.515      1.3726031      0.69147465   
     25800  -9096.8044     -9181.0405      84.236171      13367.643      339.59321      13969.733      1.3705183      0.69147465   
     25900  -9097.3504     -9183.113       85.762601      11819.802      345.74693      13976.568      1.369848       0.69147465   
     26000  -9098.7396     -9184.0139      85.274288      9976.1955      343.77832      13964.678      1.3710144      0.67659599   
     26100  -9097.4043     -9182.0652      84.660901      10282.971      341.30549      13934.295      1.3740038      0.67659599   
     26200  -9095.6781     -9182.2196      86.541559      14504.43       348.88725      13895.389      1.3778509      0.67659599   
     26300  -9093.8596     -9181.5323      87.672708      16809.549      353.44741      13857.419      1.3816263      0.67659599   
     26400  -9095.3722     -9183.6197      88.247488      14851.601      355.7646       13834.014      1.3839638      0.67659599   
     26500  -9094.8083     -9182.6418      87.833435      15300.271      354.09538      13825.71       1.384795       0.67659599   
     26600  -9095.5853     -9181.8486      86.263255      14628.193      347.76528      13835.302      1.3838349      0.67659599   
     26700  -9095.9409     -9180.1463      84.2054        13372.086      339.46916      13862.118      1.3811579      0.67659599   
     26800  -9099.3026     -9185.0797      85.777064      12702.594      345.80524      13900.623      1.3773321      0.67659599   
     26900  -9095.126      -9179.6031      84.477041      13823.644      340.56427      13937.797      1.3736586      0.67659599   
     27000  -9097.5843     -9181.1864      83.602122      14839.823      337.03708      13966.581      1.3708276      0.63192601   
     27100  -9098.9287     -9183.7126      84.783913      11032.276      341.80141      13978.534      1.3696554      0.63192601   
     27200  -9096.7014     -9181.448       84.746584      14146.076      341.65091      13968.605      1.3706289      0.63192601   
     27300  -9097.5375     -9182.7159      85.178362      15363.251      343.3916       13940.491      1.3733931      0.63192601   
     27400  -9096.754      -9182.9904      86.236321      14311.602      347.6567       13897.793      1.3776126      0.63192601   
     27500  -9097.1388     -9182.552       85.413198      14472.701      344.33833      13852.728      1.3820942      0.63192601   
     27600  -9100.9473     -9185.312       84.364675      15448.005      340.11127      13819.027      1.3854648      0.63192601   
     27700  -9099.74       -9184.6069      84.866939      16127.231      342.13612      13796.624      1.3877144      0.63192601   
     27800  -9100.4687     -9183.4849      83.016208      15769.849      334.67501      13785.159      1.3888686      0.63192601   
     27900  -9101.0629     -9185.8995      84.836584      15675.571      342.01374      13789.155      1.3884661      0.63192601   
     28000  -9098.5628     -9185.3839      86.821149      15913.869      350.0144       13806.23       1.3867489      0.66256698   
     28100  -9096.654      -9181.3809      84.7269        15657.382      341.57156      13837.718      1.3835934      0.66256698   
     28200  -9098.6841     -9182.9168      84.232729      16537.215      339.57934      13878.486      1.3795291      0.66256698   
     28300  -9097.5159     -9183.4862      85.9703        17971.182      346.58425      13921.964      1.3752209      0.66256698   
     28400  -9096.9744     -9184.5137      87.53924       12961.722      352.90935      13956.935      1.371775       0.66256698   
     28500  -9098.8394     -9184.7136      85.87415       12976.013      346.19663      13974.73       1.3700282      0.66256698   
     28600  -9100.3935     -9185.8455      85.45206       15071.549      344.495        13971.588      1.3703363      0.66256698   
     28700  -9099.5042     -9184.6851      85.180851      15144.781      343.40164      13947.599      1.3726933      0.66256698   
     28800  -9096.6356     -9182.5085      85.872913      14961.532      346.19164      13911.389      1.3762662      0.66256698   
     28900  -9096.136      -9183.0453      86.909318      17281.377      350.36985      13873.534      1.3800214      0.66256698   
     29000  -9095.5572     -9181.3907      85.83347       14675.543      346.03263      13842.94       1.3830714      0.7001932    
     29100  -9095.8892     -9181.6194      85.730155      18168.008      345.61612      13828.585      1.3845071      0.7001932    
     29200  -9097.555      -9184.6483      87.093292      16586.092      351.11153      13831.182      1.3842472      0.7001932    
     29300  -9096.4942     -9181.4167      84.922522      15341.192      342.3602       13844.082      1.3829573      0.7001932    
     29400  -9099.602      -9183.6637      84.061703      13695.902      338.88986      13868.057      1.3805664      0.7001932    
     29500  -9099.3515     -9184.0915      84.739946      10830.631      341.62415      13895.581      1.3778319      0.7001932    
     29600  -9102.4611     -9186.502       84.04082       11685.461      338.80567      13918.855      1.375528       0.7001932    
     29700  -9101.4581     -9188.3654      86.907307      15374.238      350.36175      13926.244      1.3747982      0.7001932    
     29800  -9102.1068     -9185.3106      83.203773      14996.774      335.43116      13914.198      1.3759884      0.7001932    
     29900  -9102.2926     -9188.5668      86.274169      18692.531      347.80929      13893.392      1.378049       0.7001932    
     30000  -9101.6509     -9187.0615      85.410587      15612.137      344.3278       13867.597      1.3806122      0.77482378   
     30100  -9100.1108     -9183.3904      83.279595      16097.538      335.73684      13838.061      1.383559       0.77482378   
     30200  -9100.9543     -9185.6179      84.663589      14881.814      341.31633      13816.985      1.3856695      0.77482378   
     30300  -9100.9371     -9186.3182      85.381107      14147.917      344.20896      13810.081      1.3863623      0.77482378   
     30400  -9100.8516     -9183.4463      82.594675      14145.415      332.97562      13812.562      1.3861132      0.77482378   
     30500  -9098.302      -9184.0746      85.772597      16309.964      345.78723      13827.57       1.3846088      0.77482378   
     30600  -9097.8646     -9183.3692      85.504593      12998.368      344.70679      13856.09       1.3817589      0.77482378   
     30700  -9099.3774     -9185.0838      85.70648       14889.403      345.52068      13893.148      1.3780732      0.77482378   
     30800  -9098.9069     -9184.0968      85.189882      12999.558      343.43804      13927.551      1.3746691      0.77482378   
     30900  -9099.137      -9183.3354      84.19836       16407.654      339.44078      13951.914      1.3722687      0.77482378   
     31000  -9099.9646     -9185.6831      85.718487      13709.315      345.56908      13960.439      1.3714307      0.66061727   
     31100  -9099.3439     -9182.8309      83.487023      13146.626      336.57307      13949.731      1.3724835      0.66061727   
     31200  -9099.4087     -9186.7595      87.350756      15088.634      352.14948      13924.548      1.3749657      0.66061727   
     31300  -9101.4387     -9185.5237      84.084917      13972.5        338.98344      13885.529      1.3788293      0.66061727   
     31400  -9100.3671     -9184.2712      83.904157      12821.188      338.25472      13840.995      1.3832657      0.66061727   
     31500  -9098.0225     -9183.6796      85.657053      14881.858      345.32142      13802.452      1.3871285      0.66061727   
     31600  -9096.4946     -9182.5956      86.100952      15082.74       347.11097      13781.224      1.3892652      0.66061727   
     31700  -9097.3998     -9182.3707      84.970879      15268.493      342.55515      13788.355      1.3885467      0.66061727   
     31800  -9098.2615     -9183.6316      85.370052      14836.302      344.16439      13819.763      1.3853909      0.66061727   
     31900  -9098.327      -9185.2308      86.903817      12703.303      350.34767      13864.326      1.380938       0.66061727   
     32000  -9098.3167     -9183.1651      84.848388      17144.965      342.06133      13911.15       1.3762898      0.74100608   
     32100  -9097.4788     -9183.6773      86.198442      13398.216      347.504        13953.31       1.3721314      0.74100608   
     32200  -9098.8937     -9182.7515      83.857839      10684.132      338.06799      13975.661      1.369937       0.74100608   
     32300  -9098.8462     -9180.3638      81.51765       8997.5707      328.63366      13973.379      1.3701607      0.74100608   
     32400  -9097.4541     -9182.6981      85.243921      10748.821      343.6559       13946.823      1.3727696      0.74100608   
     32500  -9097.4223     -9184.1771      86.754841      11403.178      349.74709      13902.298      1.3771662      0.74100608   
     32600  -9096.8757     -9182.2915      85.415803      16467.947      344.34883      13850.982      1.3822684      0.74100608   
     32700  -9095.1146     -9181.1038      85.989242      16132.844      346.66062      13806.736      1.3866982      0.74100608   
     32800  -9093.146      -9182.3204      89.174398      14621.677      359.50139      13783.227      1.3890633      0.74100608   
     32900  -9095.1593     -9181.2237      86.064399      16826.574      346.96361      13788.004      1.388582       0.74100608   
     33000  -9094.3597     -9181.2843      86.92457       15287.475      350.43134      13819.611      1.3854062      0.73751786   
     33100  -9092.0913     -9181.4855      89.394201      16098.483      360.38751      13864.986      1.3808723      0.73751786   
     33200  -9093.0075     -9179.862       86.85456       13633.704      350.1491       13918.792      1.3755342      0.73751786   
     33300  -9092.8559     -9181.3649      88.50896       12360.622      356.81871      13967.361      1.370751       0.73751786   
     33400  -9096.4991     -9181.7832      85.284081      15421.412      343.8178       14000.466      1.3675098      0.73751786   
     33500  -9097.1801     -9182.7836      85.603474      15188.068      345.10542      14010.895      1.3664919      0.73751786   
     33600  -9096.6142     -9181.5449      84.930646      14282.922      342.39295      13994.231      1.3681191      0.73751786   
     33700  -9094.8813     -9179.7738      84.892532      11630.244      342.2393       13958.587      1.3716126      0.73751786   
     33800  -9092.5586     -9179.8774      87.318765      14985.146      352.02051      13918.35       1.3755779      0.73751786   
     33900  -9096.4495     -9180.7111      84.261557      17474.753      339.69556      13885.771      1.3788053      0.73751786   
     34000  -9096.272      -9183.5178      87.245784      16591.771      351.72629      13860.538      1.3813154      0.66349825   
     34100  -9095.0754     -9181.3192      86.243729      15150.532      347.68657      13842.357      1.3831296      0.66349825   
     34200  -9097.0974     -9184.866       87.768511      15119.923      353.83364      13836.576      1.3837075      0.66349825   
     34300  -9098.0367     -9182.9065      84.869806      16054.305      342.14768      13842.841      1.3830813      0.66349825   
     34400  -9098.1702     -9185.4818      87.311674      15874.023      351.99193      13857.799      1.3815885      0.66349825   
     34500  -9098.3619     -9182.5077      84.145863      15574.652      339.22914      13877.177      1.3796592      0.66349825   
     34600  -9094.0686     -9181.2395      87.1709        14083.927      351.4244       13899.909      1.3774029      0.66349825   
     34700  -9093.2348     -9182.3792      89.144428      13253.523      359.38056      13925.483      1.3748733      0.66349825   
     34800  -9095.0815     -9183.5056      88.424121      14578.266      356.47669      13948.778      1.3725772      0.66349825   
     34900  -9095.0672     -9182.0028      86.935609      12264.708      350.47584      13961.412      1.3713351      0.66349825   
     35000  -9096.9037     -9181.0625      84.158853      15131.55       339.28151      13956.749      1.3717933      0.7019106    
     35100  -9096.8578     -9184.318       87.460164      12284.416      352.59056      13934.715      1.3739624      0.7019106    
     35200  -9094.612      -9180.077       85.46497       15233.915      344.54705      13900.186      1.3773754      0.7019106    
     35300  -9093.3983     -9180.8825      87.484182      15495.588      352.68738      13863.604      1.3810099      0.7019106    
     35400  -9094.1853     -9182.0798      87.894505      15612.772      354.34157      13836.528      1.3837124      0.7019106    
     35500  -9097.2618     -9183.7054      86.443561      15576.158      348.49218      13822.554      1.3851112      0.7019106    
     35600  -9101.3625     -9185.1616      83.799072      13111.364      337.83107      13818.004      1.3855674      0.7019106    
     35700  -9100.2517     -9185.4592      85.207458      14023.514      343.5089       13823.143      1.3850522      0.7019106    
     35800  -9097.061      -9183.6624      86.601326      17760.164      349.1282       13835.428      1.3838223      0.7019106    
     35900  -9099.6074     -9185.479       85.871559      13794.349      346.18619      13856.25       1.3817429      0.7019106    
     36000  -9098.995      -9184.1355      85.140526      12392.593      343.23907      13882.194      1.3791606      0.79674118   
     36100  -9097.8672     -9183.1741      85.306926      14214.303      343.9099       13906.607      1.3767394      0.79674118   
     36200  -9097.4977     -9184.0878      86.590146      16012.159      349.08313      13924.682      1.3749524      0.79674118   
     36300  -9096.6223     -9184.4926      87.870291      16191.368      354.24396      13935.449      1.3738901      0.79674118   
     36400  -9095.0102     -9181.7374      86.72718       13907.846      349.63557      13933.409      1.3740912      0.79674118   
     36500  -9096.6164     -9183.3094      86.693034      14940.156      349.49792      13924.931      1.3749278      0.79674118   
     36600  -9096.0148     -9182.4058      86.391008      15174.766      348.28032      13904.215      1.3769763      0.79674118   
     36700  -9095.1163     -9181.2177      86.101414      14056.52       347.11283      13876.929      1.3796839      0.79674118   
     36800  -9095.232      -9182.7511      87.519045      16135.344      352.82793      13849.211      1.3824452      0.79674118   
     36900  -9097.2898     -9184.0274      86.737583      15607.675      349.67751      13829.188      1.3844468      0.79674118   
     37000  -9096.0971     -9182.7156      86.618522      16715.127      349.19753      13817.588      1.385609       0.62573223   
     37100  -9096.0348     -9182.3867      86.351847      18058.707      348.12244      13820.138      1.3853534      0.62573223   
     37200  -9097.9843     -9184.5632      86.578837      12704.312      349.03753      13837.994      1.3835658      0.62573223   
     37300  -9098.3719     -9181.3769      83.004941      14670.959      334.62958      13865.361      1.3808349      0.62573223   
     37400  -9099.7015     -9183.173       83.471487      17528.969      336.51044      13897.418      1.3776498      0.62573223   
     37500  -9099.7645     -9183.783       84.018457      14426.072      338.71552      13926.276      1.374795       0.62573223   
     37600  -9100.3588     -9185.239       84.880199      13156.115      342.18958      13948.417      1.3726127      0.62573223   
     37700  -9100.618      -9185.6061      84.988155      13506.045      342.6248       13952.662      1.3721951      0.62573223   
     37800  -9099.6737     -9185.2526      85.578884      13791.319      345.00628      13935.451      1.3738899      0.62573223   
     37900  -9099.0755     -9184.992       85.916493      13361.261      346.36733      13901.994      1.3771963      0.62573223   
     38000  -9094.7006     -9181.713       87.012405      17642.085      350.78544      13864.027      1.3809678      0.68322439   
     38100  -9094.8309     -9182.5457      87.71476       14272.18       353.61694      13832.72       1.3840932      0.68322439   
     38200  -9096.2732     -9182.4176      86.144428      16820.193      347.28624      13813.838      1.3859852      0.68322439   
     38300  -9096.9005     -9181.6249      84.724428      14896.92       341.56159      13815.601      1.3858083      0.68322439   
     38400  -9098.2201     -9183.0242      84.804119      17633.075      341.88286      13831.73       1.3841923      0.68322439   
     38500  -9096.4895     -9182.3538      85.86429       14713.201      346.15688      13858.154      1.381553       0.68322439   
     38600  -9098.773      -9184.0246      85.251616      15708.661      343.68692      13886.98       1.3786852      0.68322439   
     38700  -9101.736      -9185.6622      83.926175      14832.085      338.34348      13908.387      1.3765633      0.68322439   
     38800  -9102.7242     -9186.1131      83.388931      16118.335      336.17762      13918.365      1.3755764      0.68322439   
     38900  -9101.3594     -9185.9985      84.639057      17008.221      341.21743      13915.206      1.3758887      0.68322439   
     39000  -9098.7642     -9183.673       84.908722      14044.356      342.30457      13899.511      1.3774423      0.79267262   
     39100  -9098.2563     -9183.8501      85.593819      17371.461      345.06649      13876.289      1.3797475      0.79267262   
     39200  -9099.8735     -9184.5473      84.673811      15496.292      341.35754      13857.62       1.3816063      0.79267262   
     39300  -9099.2101     -9184.964       85.753912      13880.375      345.7119       13845.419      1.3828238      0.79267262   
     39400  -9100.725      -9182.9812      82.256218      18711.345      331.61115      13840.881      1.3832772      0.79267262   
     39500  -9098.5741     -9184.0879      85.513851      16393.84       344.74411      13843.988      1.3829668      0.79267262   
     39600  -9097.1617     -9182.9381      85.776402      14784.149      345.80257      13852.157      1.3821511      0.79267262   
     39700  -9096.9747     -9184.123       87.148346      15555.091      351.33348      13867.178      1.380654       0.79267262   
     39800  -9096.2464     -9182.2909      86.044459      13927.827      346.88322      13888.029      1.3785811      0.79267262   
     39900  -9097.3612     -9184.1847      86.823503      11920.725      350.02389      13912.591      1.3761473      0.79267262   
     40000  -9096.7985     -9183.2619      86.463433      13285.095      348.57229      13928.209      1.3746042      0.65815025   
     40100  -9097.7311     -9181.9844      84.253385      14700.815      339.66261      13931.009      1.3743279      0.65815025   
     40200  -9095.8694     -9184.6977      88.828258      17447.248      358.10594      13921.012      1.3753149      0.65815025   
     40300  -9096.7935     -9181.9795      85.186001      16015.215      343.4224       13899.443      1.377449       0.65815025   
     40400  -9095.4509     -9179.5363      84.085478      15921.326      338.9857       13876.245      1.3797518      0.65815025   
     40500  -9096.7375     -9184.0234      87.285899      15317.093      351.88802      13857.343      1.3816339      0.65815025   
     40600  -9095.7498     -9182.5047      86.754937      16613.833      349.74747      13844.468      1.3829188      0.65815025   
     40700  -9096.551      -9183.5397      86.988713      14453.923      350.68993      13845.896      1.3827762      0.65815025   
     40800  -9097.0438     -9183.2954      86.251582      15817.735      347.71823      13856.846      1.3816835      0.65815025   
     40900  -9098.6672     -9185.2785      86.611318      15294.335      349.16848      13871.894      1.3801846      0.65815025   
     41000  -9100.2877     -9185.201       84.913332      14243.275      342.32315      13880.438      1.3793351      0.71523458   
     41100  -9100.9537     -9184.5688      83.615109      14916.079      337.08944      13882.274      1.3791526      0.71523458   
     41200  -9100.1654     -9184.7006      84.535212      14329.107      340.79878      13879.805      1.3793979      0.71523458   
     41300  -9099.3653     -9184.2621      84.896856      13994.452      342.25673      13874.974      1.3798782      0.71523458   
     41400  -9098.849      -9183.5141      84.665106      15980.47       341.32244      13869.211      1.3804516      0.71523458   
     41500  -9099.9349     -9183.28        83.345131      14596.067      336.00104      13866.262      1.3807452      0.71523458   
     41600  -9099.5656     -9185.2407      85.675174      14836.055      345.39447      13866.052      1.3807661      0.71523458   
     41700  -9097.3327     -9184.7089      87.376165      15190.91       352.25192      13868.67       1.3805054      0.71523458   
     41800  -9098.1783     -9185.2727      87.094361      13478.127      351.11584      13873.461      1.3800288      0.71523458   
     41900  -9097.9393     -9183.7737      85.834467      17190.526      346.03665      13881.524      1.3792271      0.71523458   
     42000  -9098.2903     -9182.6854      84.395116      15712.935      340.23399      13889.791      1.3784063      0.81288304   
     42100  -9099.8423     -9184.514       84.67178       15107.82       341.34935      13901.087      1.3772861      0.81288304   
     42200  -9099.1796     -9183.516       84.336331      15950.503      339.997        13910.569      1.3763474      0.81288304   
     42300  -9098.703      -9182.237       83.533951      15349.881      336.76226      13911.018      1.3763029      0.81288304   
     42400  -9097.9121     -9183.4649      85.552806      13708.643      344.90115      13907.719      1.3766294      0.81288304   
     42500  -9096.3665     -9182.0411      85.67461       15508.519      345.3922       13900.462      1.3773481      0.81288304   
     42600  -9096.5194     -9180.0981      83.578689      14763.57       336.94261      13888.769      1.3785077      0.81288304   
     42700  -9097.53       -9182.691       85.160997      13646.332      343.3216       13881.326      1.3792468      0.81288304   
     42800  -9093.9591     -9181.3634      87.404283      17313.058      352.36527      13880.109      1.3793677      0.81288304   
     42900  -9094.8269     -9182.2572      87.430356      15262.932      352.47039      13885.798      1.3788027      0.81288304   
     43000  -9097.4118     -9182.8832      85.471428      13494.154      344.57308      13894.524      1.3779367      0.76883225   
     43100  -9098.648      -9183.4674      84.819472      13121.172      341.94476      13904.943      1.3769043      0.76883225   
     43200  -9100.7045     -9184.7764      84.071815      13194.884      338.93062      13911.961      1.3762097      0.76883225   
     43300  -9098.4141     -9181.6284      83.21433       18235.55       335.47372      13908.692      1.376533       0.76883225   
     43400  -9099.3658     -9182.6807      83.314886      15729.962      335.87911      13901.482      1.377247       0.76883225   
     43500  -9099.0799     -9183.846       84.766149      14820.572      341.72979      13891.376      1.378249       0.76883225   
     43600  -9099.1212     -9186.6209      87.499721      15633.585      352.75003      13880.93       1.3792862      0.76883225   
     43700  -9097.5621     -9183.6355      86.073319      16247.021      346.99957      13870.87       1.3802865      0.76883225   
     43800  -9096.5971     -9181.3962      84.79907       16719.184      341.86251      13866.072      1.3807641      0.76883225   
     43900  -9098.2803     -9184.4259      86.145659      13891.753      347.2912       13869.136      1.380459       0.76883225   
     44000  -9099.2045     -9185.0372      85.832744      15096.323      346.0297       13873.925      1.3799826      0.65057329   
     44100  -9098.6112     -9181.8031      83.191911      16829.118      335.38334      13877.458      1.3796312      0.65057329   
     44200  -9100.7663     -9185.6805      84.914275      14460.547      342.32695      13883.002      1.3790803      0.65057329   
     44300  -9099.4646     -9184.1355      84.670971      14046.288      341.34609      13886.18       1.3787647      0.65057329   
     44400  -9098.3539     -9182.8955      84.541544      10848.516      340.82431      13883.566      1.3790243      0.65057329   
     44500  -9096.2575     -9181.3108      85.053219      15621.963      342.88709      13877.442      1.3796328      0.65057329   
     44600  -9094.9924     -9181.4049      86.412479      14485.235      348.36687      13876.823      1.3796943      0.65057329   
     44700  -9094.4554     -9181.3516      86.896132      15659.194      350.31669      13879.602      1.3794181      0.65057329   
     44800  -9095.1751     -9182.2524      87.07734       15624.455      351.04722      13889.268      1.3784581      0.65057329   
     44900  -9093.3596     -9181.2476      87.887952      16232.525      354.31516      13904.19       1.3769788      0.65057329   
     45000  -9093.3669     -9178.7905      85.423572      14112.131      344.38015      13919.355      1.3754786      0.65086643   
     45100  -9092.788      -9182.4593      89.671264      14415.774      361.50447      13932.567      1.3741743      0.65086643   
     45200  -9094.5876     -9181.7374      87.149814      15693.986      351.3394       13940.249      1.373417       0.65086643   
     45300  -9094.4628     -9180.7544      86.291603      14224.002      347.87957      13942.158      1.3732289      0.65086643   
     45400  -9094.8363     -9180.4966      85.660308      14616.819      345.33454      13936.695      1.3737672      0.65086643   
     45500  -9096.8217     -9182.4356      85.613828      13713.376      345.14716      13924.574      1.374963       0.65086643   
     45600  -9096.7267     -9181.6157      84.889054      15050.221      342.22528      13903.964      1.3770012      0.65086643   
     45700  -9097.7006     -9185.1727      87.472118      15797.204      352.63875      13878.474      1.3795302      0.65086643   
     45800  -9098.889      -9184.207       85.318058      14733.339      343.95478      13851.832      1.3821836      0.65086643   
     45900  -9098.7992     -9183.7843      84.985099      14748.644      342.61247      13831.663      1.3841991      0.65086643   
     46000  -9095.6755     -9182.4115      86.735998      13857.608      349.67112      13821.252      1.3852417      0.65642901   
     46100  -9095.5408     -9184.3813      88.840444      14337.815      358.15507      13823.516      1.3850148      0.65642901   
     46200  -9095.2016     -9183.3839      88.182245      15757.283      355.50158      13840.821      1.3832831      0.65642901   
     46300  -9095.1582     -9182.148       86.98981       13890.615      350.69435      13868.546      1.3805178      0.65642901   
     46400  -9097.7067     -9184.6512      86.944416      13144.919      350.51135      13903.126      1.3770842      0.65642901   
     46500  -9096.1227     -9181.8579      85.735163      16160.058      345.63631      13934.336      1.3739998      0.65642901   
     46600  -9096.9746     -9181.0346      84.060001      14179.515      338.88299      13956.05       1.371862       0.65642901   
     46700  -9097.2356     -9183.262       86.026461      17165.076      346.81066      13963.825      1.3710981      0.65642901   
     46800  -9095.9503     -9181.5815      85.631253      14045.658      345.21741      13953.723      1.3720908      0.65642901   
     46900  -9096.291      -9182.3653      86.074301      14181.317      347.00353      13932.917      1.3741397      0.65642901   
     47000  -9099.3643     -9183.1976      83.833315      16997.631      337.96912      13902.279      1.3771681      0.69503108   
     47100  -9098.9201     -9183.1137      84.19357       17482.9        339.42147      13861.827      1.381187       0.69503108   
     47200  -9095.7165     -9181.5037      85.787222      15000.979      345.84618      13824.417      1.3849246      0.69503108   
     47300  -9096.0463     -9184.926       88.879711      15482.563      358.31337      13803.575      1.3870156      0.69503108   
     47400  -9098.7551     -9185.2166      86.461547      18704.205      348.56469      13799.833      1.3873917      0.69503108   
     47500  -9100.6794     -9185.8369      85.157572      15101.583      343.30779      13810.06       1.3863643      0.69503108   
     47600  -9098.75       -9183.332       84.581975      15272.775      340.9873       13830.354      1.3843301      0.69503108   
     47700  -9099.54       -9181.0818      81.541836      17562.606      328.73116      13859.593      1.3814095      0.69503108   
     47800  -9097.9538     -9183.1094      85.155612      14550.616      343.29989      13891.463      1.3782403      0.69503108   
     47900  -9096.4198     -9182.6287      86.208889      13141.672      347.54611      13919.455      1.3754687      0.69503108   
     48000  -9093.645      -9178.8937      85.248731      11632.904      343.67529      13939.572      1.3734837      0.73647889   
     48100  -9095.0172     -9180.2825      85.26533       17778.481      343.74221      13957.55       1.3717146      0.73647889   
     48200  -9096.4993     -9180.8726      84.373364      14114.797      340.1463       13965.051      1.3709777      0.73647889   
     48300  -9095.3821     -9183.3221      87.939953      13508.919      354.5248       13956.007      1.3718662      0.73647889   
     48400  -9095.7806     -9181.7773      85.996674      14467.229      346.69058      13935.365      1.3738983      0.73647889   
     48500  -9096.9576     -9180.7332      83.775578      14430.401      337.73636      13908.88       1.3765144      0.73647889   
     48600  -9095.6144     -9184.5609      88.946507      14393.602      358.58266      13881.827      1.3791971      0.73647889   
     48700  -9095.4228     -9182.1669      86.744083      16018.335      349.70372      13856.297      1.3817382      0.73647889   
     48800  -9096.7143     -9179.7315      83.017165      17690.306      334.67886      13843.911      1.3829744      0.73647889   
     48900  -9096.7576     -9185.2878      88.530167      15138.709      356.90421      13849.668      1.3823996      0.73647889   
     49000  -9100.4856     -9185.2288      84.743235      15532.236      341.63741      13861.005      1.3812688      0.70213139   
     49100  -9099.4019     -9184.8052      85.403321      20533.92       344.29851      13872.35       1.3801392      0.70213139   
     49200  -9101.9736     -9184.541       82.567383      12897.85       332.86559      13883.383      1.3790425      0.70213139   
     49300  -9101.0142     -9184.7328      83.718645      16163.916      337.50684      13886.84       1.3786991      0.70213139   
     49400  -9099.7752     -9183.3635      83.588293      16412.411      336.98133      13886.46       1.3787369      0.70213139   
     49500  -9097.8872     -9182.5616      84.674459      17439.772      341.36015      13882.855      1.3790949      0.70213139   
     49600  -9099.0732     -9185.6153      86.542087      13258.39       348.88938      13877.119      1.379665       0.70213139   
     49700  -9097.8957     -9183.8767      85.980998      12167.847      346.62738      13868.814      1.3804911      0.70213139   
     49800  -9100.2941     -9184.922       84.627915      15637.59       341.17251      13862.598      1.3811102      0.70213139   
     49900  -9099.8597     -9185.4489      85.589201      16107.244      345.04788      13855.947      1.3817731      0.70213139   
     50000  -9100.3237     -9184.5166      84.192913      14558.692      339.41882      13850.707      1.3822959      0.68622328   
     50100  -9101.5338     -9184.9962      83.462434      15213.159      336.47394      13850.474      1.3823191      0.68622328   
     50200  -9098.615      -9183.8405      85.225479      15266.377      343.58155      13854.662      1.3819012      0.68622328   
     50300  -9096.439      -9182.4876      86.048566      14893.571      346.89978      13864.747      1.3808961      0.68622328   
     50400  -9097.1019     -9183.6628      86.560961      16977.926      348.96547      13880.932      1.3792859      0.68622328   
     50500  -9095.802      -9182.3508      86.548826      15052.107      348.91655      13898.306      1.3775617      0.68622328   
     50600  -9095.8848     -9182.2831      86.398274      12422.631      348.30961      13913.853      1.3760225      0.68622328   
     50700  -9095.1994     -9179.2398      84.040386      16028.864      338.80392      13924.563      1.3749641      0.68622328   
     50800  -9094.7403     -9183.1869      88.446592      14317.776      356.56728      13933.176      1.3741142      0.68622328   
     50900  -9094.7654     -9180.7201      85.954696      14641.914      346.52135      13938.062      1.3736324      0.68622328   
     51000  -9095.5522     -9181.7304      86.17822       12639.989      347.42247      13932.704      1.3741607      0.68854704   
     51100  -9097.9446     -9183.9677      86.023026      13476.589      346.79682      13917.797      1.3756325      0.68854704   
     51200  -9097.5699     -9182.4812      84.911312      18145.111      342.31501      13893.738      1.3780146      0.68854704   
     51300  -9095.0114     -9181.5148      86.503411      16812.679      348.73346      13871.642      1.3802096      0.68854704   
     51400  -9096.0474     -9180.9281      84.88071       15309.647      342.19163      13857.044      1.3816637      0.68854704   
     51500  -9096.8729     -9182.4648      85.591838      15803.307      345.05851      13855.054      1.3818622      0.68854704   
     51600  -9099.1491     -9184.3206      85.171455      16730.973      343.36376      13865.004      1.3808705      0.68854704   
     51700  -9097.7106     -9181.7611      84.050509      15299.294      338.84473      13878.481      1.3795295      0.68854704   
     51800  -9097.3101     -9181.9429      84.632774      15713.624      341.1921       13893.819      1.3780067      0.68854704   
     51900  -9094.024      -9180.413       86.389029      13655.418      348.27233      13908.323      1.3765696      0.68854704   
     52000  -9096.0616     -9182.7344      86.672837      14705.21       349.41649      13919.809      1.3754337      0.78097116   
     52100  -9095.8952     -9183.9482      88.053016      11702.501      354.9806       13925.449      1.3748766      0.78097116   
     52200  -9097.4409     -9181.9549      84.513997      9104.8207      340.71325      13921.894      1.3752278      0.78097116   
     52300  -9097.9428     -9182.4886      84.545842      14397.188      340.84163      13912.339      1.3761722      0.78097116   
     52400  -9099.9193     -9183.5176      83.598292      12322.718      337.02164      13896.362      1.3777544      0.78097116   
     52500  -9096.6237     -9183.4361      86.812435      14611.194      349.97927      13874.087      1.3799664      0.78097116   
     52600  -9096.7138     -9182.096       85.382236      16700.94       344.21351      13853.45       1.3820222      0.78097116   
     52700  -9095.5698     -9181.6459      86.076076      16657.422      347.01069      13842.024      1.3831629      0.78097116   
     52800  -9098.1972     -9185.1         86.902797      14466.115      350.34356      13840.02       1.3833632      0.78097116   
     52900  -9099.2086     -9183.9248      84.716241      16905.432      341.52859      13843.425      1.383023       0.78097116   
     53000  -9098.6277     -9184.9669      86.339254      14692.164      348.07167      13852.622      1.3821048      0.69430952   
     53100  -9096.6213     -9185.253       88.631703      16150.5        357.31355      13870.593      1.3803141      0.69430952   
     53200  -9098.2781     -9183.1962      84.918127      15069.667      342.34248      13895.815      1.3778087      0.69430952   
     53300  -9097.665      -9181.298       83.633002      15271.774      337.16157      13918.599      1.3755533      0.69430952   
     53400  -9097.2845     -9183.3387      86.054176      14250.982      346.92239      13938.728      1.3735668      0.69430952   
     53500  -9094.4859     -9182.5194      88.033466      13328.43       354.90179      13948.279      1.3726263      0.69430952   
     53600  -9096.8756     -9181.6696      84.793937      14240.793      341.84181      13947.342      1.3727186      0.69430952   
     53700  -9096.6418     -9183.6792      87.037487      14310.545      350.88656      13935.697      1.3738656      0.69430952   
     53800  -9098.1505     -9182.6207      84.470227      15428.463      340.5368       13918.481      1.375565       0.69430952   
     53900  -9099.0737     -9183.9996      84.925862      14040.353      342.37367      13895.864      1.3778038      0.69430952   
     54000  -9096.0154     -9182.3203      86.304991      16754.564      347.93354      13872.706      1.3801038      0.72499605   
     54100  -9095.9974     -9182.6337      86.6363        14500.882      349.26919      13858.447      1.3815238      0.72499605   
     54200  -9095.2472     -9184.0947      88.847502      13307          358.18353      13853.789      1.3819883      0.72499605   
     54300  -9094.5024     -9181.1806      86.678259      16825.948      349.43835      13857.76       1.3815923      0.72499605   
     54400  -9094.6092     -9180.3755      85.766266      14020.87       345.7617       13873.719      1.380003       0.72499605   
     54500  -9097.0907     -9181.9339      84.843239      17676.96       342.04057      13897.964      1.3775957      0.72499605   
     54600  -9096.8523     -9182.9915      86.139166      14414.614      347.26503      13923.932      1.3750265      0.72499605   
     54700  -9098.8947     -9183.5535      84.658753      14631.798      341.29683      13943.684      1.3730786      0.72499605   
     54800  -9097.7389     -9181.2954      83.556466      14679.942      336.85303      13949.711      1.3724854      0.72499605   
     54900  -9097.6377     -9183.807       86.169312      11482.454      347.38656      13939.188      1.3735215      0.72499605   
     55000  -9098.745      -9183.6253      84.880306      13361.874      342.19001      13912.524      1.3761539      0.68878694   
     55100  -9097.1554     -9181.6672      84.511803      17083.767      340.70441      13876.981      1.3796787      0.68878694   
     55200  -9096.7271     -9184.0477      87.320648      16915.491      352.0281       13843.056      1.3830599      0.68878694   
     55300  -9098.3814     -9186.0155      87.634024      14973.059      353.29146      13814.356      1.3859332      0.68878694   
     55400  -9100.5488     -9183.4114      82.862616      13076.9        334.05581      13800.049      1.3873701      0.68878694   
     55500  -9100.8855     -9182.985       82.099534      15504.358      330.97949      13798.113      1.3875647      0.68878694   
     55600  -9099.7725     -9186.7741      87.001593      11328.985      350.74185      13806.366      1.3867353      0.68878694   
     55700  -9099.3077     -9183.9798      84.672023      15079.875      341.35033      13821.306      1.3852363      0.68878694   
     55800  -9102.1731     -9184.5001      82.327044      17523.021      331.89668      13844.051      1.3829604      0.68878694   
     55900  -9102.0462     -9185.2532      83.207003      14548.297      335.44418      13867.046      1.3806672      0.68878694   
     56000  -9102.3996     -9186.0292      83.629599      13709.005      337.14785      13883.458      1.379035       0.68047526   
     56100  -9100.1495     -9185.1812      85.031677      12536.916      342.80025      13887.96       1.3785879      0.68047526   
     56200  -9099.759      -9184.7181      84.959096      13835.726      342.50764      13885.637      1.3788186      0.68047526   
     56300  -9100.6868     -9185.182       84.495179      16013.986      340.63739      13878.377      1.3795399      0.68047526   
     56400  -9098.8535     -9183.5039      84.650391      16234.094      341.26312      13865.383      1.3808327      0.68047526   
     56500  -9100.6343     -9183.7944      83.160145      14384.827      335.25528      13851.868      1.38218        0.68047526   
     56600  -9103.8815     -9186.3288      82.44721       12174.823      332.38112      13838.84       1.3834812      0.68047526   
     56700  -9104.1041     -9186.4886      82.384542      16658.78       332.12848      13819.059      1.3854615      0.68047526   
     56800  -9103.7907     -9188.2455      84.45488       15558.462      340.47493      13796.764      1.3877004      0.68047526   
     56900  -9101.6212     -9185.8329      84.211751      15792.494      339.49477      13777.696      1.389621       0.68047526   
     57000  -9099.897      -9185.1177      85.220638      18097.093      343.56203      13770.976      1.390299       0.6678581    
     57100  -9101.1941     -9184.341       83.14683       20701.728      335.2016       13784.913      1.3888934      0.6678581    
     57200  -9101.1355     -9186.3802      85.244713      16162.903      343.65909      13813.301      1.3860391      0.6678581    
[...]
    386300  -9096.4956     -9182.8706      86.374998      11581.025      348.21577      13879.588      1.3794195      0.66511766   
    386400  -9097.5709     -9185.3608      87.78991       14566.972      353.91991      13880.886      1.3792906      0.66511766   
    386500  -9096.6455     -9183.2263      86.580741      15407.78       349.04521      13884.807      1.378901       0.66511766   
    386600  -9096.3095     -9182.4659      86.156337      13932.369      347.33425      13894.767      1.3779126      0.66511766   
    386700  -9096.3638     -9182.6064      86.242578      13333.9        347.68193      13908.738      1.3765286      0.66511766   
    386800  -9098.1494     -9183.7843      85.634866      14682.584      345.23197      13925.834      1.3748387      0.66511766   
    386900  -9095.3912     -9181.9512      86.560024      16404.114      348.96169      13939.996      1.3734419      0.66511766   
    387000  -9094.567      -9182.6732      88.106225      12331.713      355.19511      13952.212      1.3722394      0.76072984   
    387100  -9095.375      -9181.6045      86.229458      13000.262      347.62903      13958.915      1.3715805      0.76072984   
    387200  -9094.1816     -9180.8608      86.679209      11217.001      349.44218      13960.146      1.3714595      0.76072984   
    387300  -9094.1798     -9181.045       86.865182      14108.239      350.19192      13953.703      1.3720927      0.76072984   
    387400  -9093.352      -9183.0164      89.664364      13636.813      361.47666      13942.764      1.3731692      0.76072984   
    387500  -9093.961      -9181.4795      87.518454      15362.883      352.82555      13931.299      1.3742993      0.76072984   
    387600  -9096.8999     -9182.8708      85.970883      15618.457      346.5866       13920.879      1.375328       0.76072984   
    387700  -9098.7965     -9183.2116      84.415147      15473.874      340.31475      13910.426      1.3763615      0.76072984   
    387800  -9096.1438     -9182.2354      86.091567      17607.967      347.07314      13900.106      1.3773833      0.76072984   
    387900  -9095.1289     -9180.6022      85.473271      13641.8        344.58051      13895.358      1.377854       0.76072984   
    388000  -9096.3984     -9183.3415      86.943156      15598.853      350.50627      13895.813      1.3778089      0.6877241    
    388100  -9096.0855     -9184.5126      88.427138      16120.296      356.48885      13897.321      1.3776594      0.6877241    
    388200  -9095.2125     -9181.9683      86.755746      14750.96       349.75073      13899.041      1.3774889      0.6877241    
    388300  -9093.732      -9182.2281      88.496059      16394.125      356.7667       13899.305      1.3774628      0.6877241    
    388400  -9095.7663     -9182.616       86.84969       14699.601      350.12946      13899.746      1.3774191      0.6877241    
    388500  -9095.1282     -9180.7995      85.671331      13542.642      345.37898      13898.804      1.3775123      0.6877241    
    388600  -9093.1615     -9180.945       87.783496      13300.425      353.89405      13898.433      1.3775491      0.6877241    
    388700  -9094.7118     -9181.8439      87.132089      13426.603      351.26794      13899.908      1.377403       0.6877241    
    388800  -9093.1952     -9180.1347      86.939503      17418.579      350.49154      13903.996      1.376998       0.6877241    
    388900  -9094.0976     -9183.9763      89.878711      13075.062      362.34079      13909.437      1.3764593      0.6877241    
    389000  -9096.429      -9184.2661      87.837133      12520.81       354.11028      13911.567      1.3762486      0.68618106   
    389100  -9097.6894     -9181.9722      84.28281       14876.856      339.78124      13909.62       1.3764413      0.68618106   
    389200  -9096.4097     -9181.8974      85.487682      17358.915      344.63861      13902.607      1.3771355      0.68618106   
    389300  -9096.9852     -9182.8194      85.834193      14348.955      346.03555      13892.916      1.3780962      0.68618106   
    389400  -9096.5243     -9183.2565      86.732162      12429.959      349.65566      13882.142      1.3791658      0.68618106   
    389500  -9095.5485     -9184.4612      88.91264       16392.628      358.44613      13872.942      1.3800804      0.68618106   
    389600  -9096.0513     -9181.4937      85.442346      15126.396      344.45584      13869.466      1.3804263      0.68618106   
    389700  -9093.5054     -9180.9587      87.453316      12562.66       352.56295      13874.025      1.3799726      0.68618106   
    389800  -9096.3933     -9183.8025      87.409207      14896.013      352.38512      13886.314      1.3787514      0.68618106   
    389900  -9098.4938     -9183.5242      85.03037       14776.259      342.79498      13900.175      1.3773765      0.68618106   
    390000  -9094.9061     -9181.4083      86.502126      14663.006      348.72828      13915.421      1.3758674      0.74207345   
    390100  -9094.9503     -9183.6877      88.737405      14371.443      357.73968      13932.522      1.3741786      0.74207345   
    390200  -9097.7133     -9182.2122      84.49888       14268.858      340.65231      13947.193      1.3727331      0.74207345   
    390300  -9097.9347     -9182.7107      84.776023      14506.471      341.7696       13951.124      1.3723464      0.74207345   
    390400  -9094.8268     -9180.7706      85.943861      16124.885      346.47767      13941.836      1.3732606      0.74207345   
    390500  -9095.6202     -9182.7389      87.118784      13642.166      351.2143       13924.002      1.3750195      0.74207345   
    390600  -9094.6779     -9181.1452      86.467303      17112.964      348.58789      13896.922      1.3776989      0.74207345   
    390700  -9094.7049     -9181.5545      86.849557      14678.016      350.12893      13872.091      1.3801651      0.74207345   
    390800  -9096.9102     -9183.4643      86.554144      15210.525      348.93799      13855.089      1.3818586      0.74207345   
    390900  -9097.6969     -9183.8103      86.113307      16467.568      347.16078      13847.31       1.3826349      0.74207345   
    391000  -9099.0271     -9185.1984      86.171333      16643.637      347.39471      13850.333      1.3823332      0.74558963   
    391100  -9099.1294     -9183.3791      84.249675      16893.71       339.64766      13864.101      1.3809604      0.74558963   
    391200  -9099.5835     -9186.0739      86.490426      12703.23       348.68111      13885.34       1.3788481      0.74558963   
    391300  -9099.018      -9185.2561      86.238105      15068.73       347.66389      13906.013      1.3767983      0.74558963   
    391400  -9097.8989     -9182.9152      85.016312      14667.543      342.73831      13924.597      1.3749607      0.74558963   
    391500  -9099.3945     -9185.2223      85.827787      13027.515      346.00972      13937.185      1.373719       0.74558963   
    391600  -9098.7466     -9184.4029      85.656342      14225.031      345.31855      13935.09       1.3739254      0.74558963   
    391700  -9095.3304     -9181.2374      85.907021      14472.818      346.32915      13921.763      1.3752407      0.74558963   
    391800  -9095.0047     -9180.1401      85.135402      14311.145      343.21841      13908.992      1.3765034      0.74558963   
    391900  -9096.134      -9184.0892      87.955209      15817.619      354.5863       13896.355      1.3777552      0.74558963   
    392000  -9098.7881     -9185.2967      86.508524      15488.225      348.75407      13882.203      1.3791597      0.72544107   
    392100  -9099.3086     -9184.949       85.640383      16565.94       345.25421      13867.698      1.3806022      0.72544107   
    392200  -9097.8123     -9182.9834      85.171169      17344.885      343.3626       13856.339      1.381734       0.72544107   
    392300  -9097.2231     -9182.9465      85.72344       18129.29       345.58905      13847.835      1.3825825      0.72544107   
    392400  -9095.908      -9181.591       85.682956      16104.99       345.42584      13848.797      1.3824865      0.72544107   
    392500  -9095.094      -9182.0675      86.973428      15627.305      350.62831      13867.218      1.38065        0.72544107   
    392600  -9096.474      -9184.0716      87.597685      16068.261      353.14496      13896.911      1.3777001      0.72544107   
    392700  -9097.414      -9183.0234      85.609391      16461.864      345.12927      13927.918      1.3746329      0.72544107   
    392800  -9100.6269     -9184.5446      83.917624      15015.137      338.30901      13956.556      1.3718123      0.72544107   
    392900  -9098.8194     -9184.1222      85.302777      14296.755      343.89317      13973.545      1.3701444      0.72544107   
    393000  -9098.1505     -9184.064       85.913543      15681.259      346.35544      13969.351      1.3705557      0.73572362   
    393100  -9098.2467     -9182.268       84.021281      11396.012      338.7269       13942.807      1.373165       0.73572362   
    393200  -9097.0808     -9183.77        86.689146      14133.667      349.48224      13906.248      1.376775       0.73572362   
    393300  -9095.8436     -9182.6299      86.786258      15644.595      349.87374      13870.756      1.3802978      0.73572362   
    393400  -9096.7421     -9184.1229      87.380828      15708.634      352.27072      13843.93       1.3829725      0.73572362   
    393500  -9097.5624     -9181.7423      84.179895      14641.327      339.36634      13830.663      1.3842992      0.73572362   
    393600  -9094.7266     -9181.5048      86.778221      17542.038      349.84134      13832.986      1.3840666      0.73572362   
    393700  -9091.0608     -9178.5728      87.512012      16054.475      352.79958      13848.578      1.3825083      0.73572362   
    393800  -9089.9682     -9176.8012      86.832935      15596.702      350.06192      13879.081      1.3794699      0.73572362   
    393900  -9091.1358     -9178.5081      87.37232       17845.679      352.23642      13917.328      1.3756789      0.73572362   
    394000  -9090.935      -9179.8797      88.944692      18467.064      358.57534      13959.288      1.3715438      0.6377974    
    394100  -9093.4607     -9181.776       88.315279      17292.776      356.0379       13994.205      1.3681216      0.6377974    
    394200  -9096.166      -9182.0625      85.896564      15814.557      346.28699      14011.202      1.366462       0.6377974    
    394300  -9097.3131     -9182.7218      85.408693      13810.541      344.32017      14003.812      1.3671831      0.6377974    
    394400  -9096.1934     -9182.6003      86.406936      12571.206      348.34453      13974.539      1.370047       0.6377974    
    394500  -9098.1395     -9183.3598      85.220336      14964.598      343.56082      13929.114      1.3745148      0.6377974    
    394600  -9095.6053     -9180.4479      84.842584      16073.226      342.03793      13879.406      1.3794376      0.6377974    
    394700  -9095.9334     -9180.4454      84.511977      16378.954      340.70511      13844.941      1.3828716      0.6377974    
    394800  -9097.7158     -9183.5258      85.810077      16823.984      345.93833      13829.224      1.3844432      0.6377974    
    394900  -9098.1178     -9184.4278      86.309933      14783.069      347.95346      13828.631      1.3845026      0.6377974    
    395000  -9096.0939     -9183.8047      87.710794      14106.559      353.60095      13844.062      1.3829593      0.70377893   
    395100  -9096.4038     -9182.1923      85.788543      16018.396      345.85151      13869.991      1.380374       0.70377893   
    395200  -9097.0646     -9183.1668      86.102147      16315.151      347.11579      13903.8        1.3770174      0.70377893   
    395300  -9096.2808     -9183.97        87.689208      12373.558      353.51393      13935.607      1.3738744      0.70377893   
    395400  -9095.4847     -9181.6607      86.176068      11899.122      347.4138       13955.133      1.3719522      0.70377893   
    395500  -9094.277      -9180.9087      86.631669      12897.508      349.25052      13967.576      1.37073        0.70377893   
    395600  -9095.7743     -9183.4531      87.678763      12930.557      353.47182      13971.089      1.3703853      0.70377893   
    395700  -9098.2574     -9184.5716      86.314197      14649.069      347.97065      13959.968      1.371477       0.70377893   
    395800  -9097.9411     -9181.6319      83.690816      15786.443      337.39465      13938.407      1.3735985      0.70377893   
    395900  -9098.5259     -9182.0341      83.508215      13441.956      336.6585       13913.079      1.376099       0.70377893   
    396000  -9098.1923     -9184.0608      85.868467      16892.634      346.17372      13891.865      1.3782005      0.76901886   
    396100  -9095.4123     -9180.182       84.769671      15998.348      341.74399      13877.931      1.3795842      0.76901886   
    396200  -9095.1131     -9181.4103      86.297158      13022.835      347.90197      13880.356      1.3793432      0.76901886   
    396300  -9094.929      -9182.5094      87.580465      16367.483      353.07554      13899.016      1.3774913      0.76901886   
    396400  -9094.2376     -9180.3579      86.120319      14518.278      347.18905      13928.931      1.3745329      0.76901886   
    396500  -9095.9901     -9180.6353      84.645251      15249.892      341.2424       13967.591      1.3707284      0.76901886   
    396600  -9096.7143     -9183.7283      87.013983      13678.422      350.7918       14004.785      1.3670881      0.76901886   
    396700  -9095.1783     -9180.8485      85.670184      15439.72       345.37436      14027.704      1.3648545      0.76901886   
    396800  -9097.616      -9183.478       85.862053      14167.686      346.14786      14036.56       1.3639934      0.76901886   
    396900  -9097.1517     -9181.2129      84.061135      14092.119      338.88757      14021.976      1.3654121      0.76901886   
    397000  -9097.0533     -9181.7686      84.715261      14428.342      341.52464      13986.89       1.3688372      0.69879238   
    397100  -9096.0148     -9183.8452      87.830422      16917.985      354.08323      13936.102      1.3738256      0.69879238   
    397200  -9095.5794     -9181.818       86.238654      17806.757      347.66611      13877.724      1.3796048      0.69879238   
    397300  -9096.0325     -9184.423       88.39045       16833.586      356.34095      13828.944      1.3844712      0.69879238   
    397400  -9094.7149     -9181.5282      86.813221      17034.027      349.98244      13797.949      1.3875812      0.69879238   
    397500  -9094.6517     -9181.8456      87.193879      16866.202      351.51704      13796.961      1.3876806      0.69879238   
    397600  -9095.3505     -9181.545       86.194508      18675.169      347.48814      13827.294      1.3846364      0.69879238   
    397700  -9095.6865     -9180.8849      85.198381      14719.369      343.47231      13882.742      1.3791062      0.69879238   
    397800  -9094.8761     -9179.3623      84.486255      16251.302      340.60141      13955.387      1.3719272      0.69879238   
    397900  -9098.3871     -9185.452       87.064909      14213.031      350.99711      14027.023      1.3649207      0.69879238   
    398000  -9098.6404     -9182.2086      83.568113      12694.473      336.89998      14070.821      1.3606722      0.69641067   
    398100  -9098.9756     -9183.7651      84.789533      12547.019      341.82406      14074.646      1.3603024      0.69641067   
    398200  -9097.3814     -9183.2295      85.84812       13965.834      346.09169      14039.255      1.3637315      0.69641067   
    398300  -9096.7102     -9182.0468      85.336618      14885.55       344.0296       13977.15       1.3697911      0.69641067   
    398400  -9095.6782     -9182.9832      87.304921      14139.053      351.9647       13899.537      1.3774398      0.69641067   
    398500  -9095.4488     -9183.2793      87.830516      14397.922      354.08361      13828.076      1.3845581      0.69641067   
    398600  -9095.7755     -9181.1052      85.329795      19275.965      344.00209      13777.296      1.3896613      0.69641067   
    398700  -9095.7276     -9182.1488      86.421182      19362.016      348.40196      13758.667      1.3915429      0.69641067   
    398800  -9097.5242     -9184.1717      86.647587      14144.141      349.3147       13772.581      1.390137       0.69641067   
    398900  -9098.2495     -9182.9064      84.656896      16972.532      341.28934      13809.182      1.3864525      0.69641067   
    399000  -9098.6236     -9183.9057      85.282043      16639.947      343.80959      13862.613      1.3811086      0.66977849   
    399100  -9099.8663     -9184.0251      84.158872      13717.395      339.28159      13918.177      1.375595       0.66977849   
    399200  -9101.6999     -9185.1888      83.488935      8775.9432      336.58078      13963.081      1.3711712      0.66977849   
    399300  -9099.497      -9184.9051      85.408167      10623.512      344.31805      13983.984      1.3691216      0.66977849   
    399400  -9100.668      -9184.1253      83.457318      13920.231      336.45331      13981.563      1.3693587      0.66977849   
    399500  -9097.6249     -9182.6101      84.985221      12697.633      342.61296      13958.961      1.3715759      0.66977849   
    399600  -9095.3232     -9183.6218      88.298605      13021.125      355.97068      13922.634      1.3751546      0.66977849   
    399700  -9094.4284     -9181.667       87.23855       14536.75       351.69713      13880.511      1.3793278      0.66977849   
    399800  -9094.666      -9182.6691      88.003148      12459.26       354.77956      13845.258      1.3828398      0.66977849   
    399900  -9098.0944     -9184.1863      86.091909      17494.017      347.07451      13824.268      1.3849395      0.66977849   
    400000  -9097.4865     -9181.9185      84.431997      17828.343      340.38268      13818.012      1.3855665      0.72569171   
    400100  -9097.0488     -9183.45        86.401234      17448.754      348.32154      13828.646      1.384501       0.72569171   
    400200  -9098.5709     -9184.9527      86.381819      13710.414      348.24327      13857.592      1.3816091      0.72569171   
    400300  -9096.8332     -9183.5485      86.715377      15641.027      349.58799      13892.71       1.3781166      0.72569171   
    400330  -9096.679      -9183.3396      86.660545      13355.599      349.36694      13902.927      1.3771039      0.72569171   
Loop time of 559.35 on 4 procs for 200000 steps with 1920 atoms

Performance: 15.446 ns/day, 1.554 hours/ns, 357.558 timesteps/s, 686.511 katom-step/s
99.6% CPU use with 4 MPI tasks x 1 OpenMP threads

MPI task timing breakdown:
Section |  min time  |  avg time  |  max time  |%varavg| %total
---------------------------------------------------------------
Pair    | 277.35     | 282.31     | 291.73     |  33.4 | 50.47
Neigh   | 8.0007     | 8.3345     | 9.1887     |  17.1 |  1.49
Comm    | 65.087     | 75.163     | 82.532     |  73.6 | 13.44
Output  | 0.31055    | 0.31672    | 0.32387    |   0.9 |  0.06
Modify  | 188.66     | 190.84     | 192.15     |  10.0 | 34.12
Other   |            | 2.389      |            |       |  0.43

Nlocal:            480 ave         485 max         474 min
Histogram: 1 0 1 0 0 0 0 0 0 2
Nghost:           2696 ave        2700 max        2693 min
Histogram: 1 0 1 0 1 0 0 0 0 1
Neighs:              0 ave           0 max           0 min
Histogram: 4 0 0 0 0 0 0 0 0 0
FullNghs:      77564.5 ave       78664 max       76042 min
Histogram: 1 0 0 1 0 0 0 0 0 2

Total # of neighbors = 310258
Ave neighs/atom = 161.59271
Neighbor list builds = 20000
Dangerous builds = 20000
Total wall time: 0:18:42
