LAMMPS (7 Feb 2024 - Update 1)
KOKKOS mode with Kokkos version 4.2.0 is enabled (src/KOKKOS/kokkos.cpp:72)
  will use up to 4 GPU(s) per node
  using 1 OpenMP thread(s) per MPI task
Reading data file ...
  triclinic box = (0 0 0) to (24.989956 24.989919 23.167336) with tilt (-0.22207236 -0.16357316 -0.098737559)
  2 by 2 by 1 MPI processor grid
  reading atoms ...
  1920 atoms
  read_data CPU = 0.013 seconds
ACE/AL version: 2023.11.25
Loading /home/cicn/cicn607503/pd/pot_dir/interim_potential_ladder_step_1.yaml
Total number of basis functions
	H: 23 (r=1) 664 (r>1)
	O: 23 (r=1) 664 (r>1)
Mapping LAMMPS atom type #1(H) -> ACE species type #0
Mapping LAMMPS atom type #2(O) -> ACE species type #1
Loading ASI /home/cicn/cicn607503/pd/pot_dir/interim_potential_ladder_step_1.asi
LINEAR ASI is loaded
Switching to 'neigh_modify every 1 delay 0 check yes' setting during minimization
Neighbor list info ...
  update: every = 1 steps, delay = 0 steps, check = yes
  max neighbors/atom: 2000, page size: 100000
  master list distance cutoff = 6.5
  ghost atom cutoff = 6.5
  binsize = 6.5, bins = 4 4 4
  1 neighbor lists, perpetual/occasional/extra = 1 0 0
  (1) pair pace/extrapolation/kk, perpetual
      attributes: full, newton on, kokkos_device
      pair build: full/bin/kk/device
      stencil: full/bin/3d
      bin: kk/device
Setting up cg/kk style minimization ...
  Unit style    : metal
  Current step  : 0
WARNING: Fix with atom-based arrays not compatible with sending data in Kokkos communication, switching to classic exchange/border communication (src/KOKKOS/comm_kokkos.cpp:666)
WARNING: Fix with atom-based arrays not compatible with Kokkos sorting on device, switching to classic host sorting (src/KOKKOS/atom_kokkos.cpp:218)
Per MPI rank memory allocation (min/avg/max) = 423.1 | 425.6 | 428.5 Mbytes
   Step         TotEng         PotEng         KinEng         Press           Temp          Volume        Density     c_max_pace_gamma
         0  -9186.3912     -9186.3912      0              71325.798      0              14467.932      1.3233249      0.69469986   
       100  -9273.0205     -9273.0205      0             -8111.2101      0              14467.932      1.3233249      0.69469986   
       200  -9273.1149     -9273.1149      0             -8128.9388      0              14467.932      1.3233249      0.69469986   
       296  -9273.1151     -9273.1151      0             -8129.2424      0              14467.932      1.3233249      0.69469986   
Loop time of 1.19174 on 4 procs for 296 steps with 1920 atoms

99.3% CPU use with 4 MPI tasks x 1 OpenMP threads

Minimization stats:
  Stopping criterion = force tolerance
  Energy initial, next-to-last, final = 
     -9186.39119087423  -9273.11512020203  -9273.11512021414
  Force two-norm initial, final = 64.044178 0.00049963331
  Force max component initial, final = 2.4633048 0.00012637562
  Final line search alpha, max atom move = 1 0.00012637562
  Iterations, force evaluations = 296 591

MPI task timing breakdown:
Section |  min time  |  avg time  |  max time  |%varavg| %total
---------------------------------------------------------------
Pair    | 0.78083    | 0.78325    | 0.78934    |   0.4 | 65.72
Neigh   | 0.0029121  | 0.00308    | 0.0032223  |   0.2 |  0.26
Comm    | 0.18436    | 0.19004    | 0.19312    |   0.8 | 15.95
Output  | 0.00030868 | 0.00030924 | 0.00031038 |   0.0 |  0.03
Modify  | 0.13149    | 0.13492    | 0.13964    |   0.8 | 11.32
Other   |            | 0.08013    |            |       |  6.72

Nlocal:            480 ave         482 max         478 min
Histogram: 1 0 0 0 0 2 0 0 0 1
Nghost:         2630.5 ave        2633 max        2629 min
Histogram: 1 0 2 0 0 0 0 0 0 1
Neighs:              0 ave           0 max           0 min
Histogram: 4 0 0 0 0 0 0 0 0 0
FullNghs:        75285 ave       75712 max       74890 min
Histogram: 1 0 0 1 0 1 0 0 0 1

Total # of neighbors = 301140
Ave neighs/atom = 156.84375
Neighbor list builds = 7
Dangerous builds = 0
Setting up Verlet run ...
  Unit style    : metal
  Current step  : 296
  Time step     : 0.0005
WARNING: Fix with atom-based arrays not compatible with sending data in Kokkos communication, switching to classic exchange/border communication (src/KOKKOS/comm_kokkos.cpp:666)
WARNING: Fix with atom-based arrays not compatible with Kokkos sorting on device, switching to classic host sorting (src/KOKKOS/atom_kokkos.cpp:218)
Per MPI rank memory allocation (min/avg/max) = 424.7 | 426.4 | 427.6 Mbytes
   Step         TotEng         PotEng         KinEng         Press           Temp          Volume        Density     c_max_pace_gamma
       296  -9188.778      -9273.1151      84.337074     -1902.9261      340            14467.932      1.3233249      0.69469986   
       300  -9188.1323     -9250.628       62.495704     -3021.6959      251.94779      14467.766      1.3233401      0.69469986   
       400  -9169.2161     -9221.3971      52.18095       4989.5135      210.36446      14363.882      1.3329109      0.69469986   
       500  -9151.6845     -9209.6334      57.948851      9088.472       233.61741      14149.365      1.353119       0.69469986   
       600  -9140.8256     -9208.0801      67.254545      13432.671      271.13278      13932.273      1.3742032      0.69469986   
       700  -9132.321      -9204.2325      71.911511      14967.862      289.90706      13782.017      1.3891853      0.69469986   
       800  -9126.5429     -9198.7052      72.162301      15383.695      290.91811      13717.098      1.3957598      0.69469986   
       900  -9121.4081     -9194.4057      72.99754       15429.418      294.28533      13739.013      1.3935335      0.69469986   
      1000  -9116.6663     -9193.6518      76.985544      14222.532      310.36274      13835.724      1.3837927      0.71387548   
      1100  -9114.2689     -9193.6911      79.422194      14750.718      320.18595      13976.381      1.3698664      0.71387548   
      1200  -9109.798      -9187.9724      78.17449       15637.644      315.1559       14127.035      1.3552578      0.71387548   
      1300  -9107.4404     -9187.4405      80.000091      9238.6154      322.5157       14264.002      1.3422443      0.71387548   
      1400  -9106.7793     -9189.1076      82.328295      8189.4605      331.90172      14362.257      1.3330617      0.71387548   
      1500  -9103.7912     -9188.0236      84.232416      7199.2889      339.57808      14416.511      1.3280449      0.71387548   
      1600  -9101.2047     -9185.3226      84.117851      8544.6709      339.11621      14427.059      1.327074       0.71387548   
      1700  -9099.1836     -9182.6165      83.432943      10824.479      336.35505      14402.459      1.3293406      0.71387548   
      1800  -9097.6767     -9181.9948      84.318098      11488.544      339.9235       14356.807      1.3335677      0.71387548   
      1900  -9097.9592     -9183.8435      85.884286      11433.052      346.23749      14298.364      1.3390186      0.71387548   
      2000  -9097.4123     -9182.3597      84.947364      11079.705      342.46035      14243.283      1.3441967      0.70197678   
      2100  -9097.6837     -9182.3138      84.630058      10926.44       341.18115      14207.009      1.3476288      0.70197678   
      2200  -9098.4817     -9183.8188      85.337131      10541.11       344.03167      14191.278      1.3491227      0.70197678   
      2300  -9099.1824     -9184.0752      84.892745      10624.486      342.24015      14198.002      1.3484837      0.70197678   
      2400  -9100.6223     -9186.363       85.740789      12681.528      345.659        14223.22       1.3460928      0.70197678   
      2500  -9099.3662     -9185.455       86.088853      12089.872      347.06219      14260.091      1.3426124      0.70197678   
      2600  -9101.8595     -9185.4696      83.610101      10534.86       337.06925      14297.983      1.3390542      0.70197678   
      2700  -9101.21       -9184.6197      83.409738      10383.219      336.2615       14332.13       1.3358638      0.70197678   
      2800  -9100.3616     -9185.4174      85.055859      7415.8401      342.89774      14354.086      1.3338205      0.70197678   
      2900  -9099.9895     -9184.5096      84.520164      7617.0088      340.73812      14358.713      1.3333907      0.70197678   
      3000  -9099.3879     -9181.3613      81.973347      7569.1123      330.47077      14349.275      1.3342677      0.68208242   
      3100  -9098.0762     -9182.6309      84.554671      12271.199      340.87723      14330.124      1.3360508      0.68208242   
      3200  -9098.1768     -9182.7932      84.616392      12128.045      341.12605      14302.382      1.3386424      0.68208242   
      3300  -9096.4225     -9181.8632      85.440675      10581.462      344.4491       14272.776      1.3414192      0.68208242   
      3400  -9099.2328     -9183.701       84.468241      12124.645      340.52879      14246.468      1.3438962      0.68208242   
      3500  -9098.615      -9183.643       85.027944      10424.045      342.7852       14226.898      1.3457448      0.68208242   
      3600  -9099.9111     -9184.9136      85.002495      10250.615      342.68261      14211.205      1.3472309      0.68208242   
      3700  -9099.0146     -9184.6296      85.614967      11005.328      345.15175      14202.429      1.3480634      0.68208242   
      3800  -9098.0827     -9181.8222      83.739481      13285.839      337.59084      14204.573      1.3478599      0.68208242   
      3900  -9100.5301     -9183.7312      83.201092      10137.487      335.42036      14220.289      1.3463703      0.68208242   
      4000  -9099.8936     -9183.9809      84.087302      7849.1168      338.99306      14243.745      1.3441531      0.73834371   
      4100  -9100.467      -9184.7165      84.249595      8026.4108      339.64733      14266.813      1.3419798      0.73834371   
      4200  -9100.1296     -9182.6637      82.534083      11011.747      332.73135      14284.426      1.3403251      0.73834371   
      4300  -9103.8372     -9184.5903      80.753108      8269.5433      325.55145      14294.697      1.3393621      0.73834371   
      4400  -9103.9686     -9185.5464      81.577793      9638.1508      328.87612      14291.732      1.3396399      0.73834371   
      4500  -9103.7233     -9187.8037      84.080368      10693.179      338.96511      14274.708      1.3412376      0.73834371   
      4600  -9102.7888     -9183.8297      81.040832      9644.6683      326.71139      14243.751      1.3441525      0.73834371   
      4700  -9102.242      -9185.3674      83.125382      11190.37       335.11514      14206.48       1.347679       0.73834371   
      4800  -9104.7407     -9186.5852      81.844547      12763.563      329.95152      14173.497      1.3508152      0.73834371   
      4900  -9103.46       -9187.138       83.678072      13958.443      337.34327      14145.463      1.3534923      0.73834371   
      5000  -9103.0363     -9185.8069      82.770607      14785.549      333.68488      14130.748      1.3549017      0.68388265   
      5100  -9104.2455     -9187.0618      82.816262      14089.987      333.86894      14140.056      1.3540099      0.68388265   
      5200  -9102.8636     -9184.7177      81.854051      9075.2305      329.98984      14171.138      1.35104        0.68388265   
      5300  -9103.5379     -9184.3563      80.818371      8855.0868      325.81455      14220.174      1.3463812      0.68388265   
      5400  -9101.561      -9182.7474      81.18643       11402.023      327.29836      14280.717      1.3406732      0.68388265   
      5500  -9101.5677     -9184.0328      82.465124      11784.533      332.45334      14340.465      1.3350875      0.68388265   
      5600  -9098.1089     -9182.0656      83.95674       11425.612      338.46671      14382.561      1.3311798      0.68388265   
      5700  -9097.7836     -9181.7553      83.971693      9530.2799      338.52699      14405.229      1.3290851      0.68388265   
      5800  -9096.3354     -9181.9425      85.607108      11899.284      345.12007      14409.735      1.3286694      0.68388265   
      5900  -9099.2397     -9183.4584      84.218658      9180.5298      339.52261      14393.614      1.3301576      0.68388265   
      6000  -9100.0202     -9183.14        83.119808      8706.9084      335.09266      14358.125      1.3334453      0.65888107   
      6100  -9097.9842     -9185.5958      87.611592      9416.2644      353.20103      14311.066      1.3378301      0.65888107   
      6200  -9100.9653     -9183.2111      82.245839      12663.369      331.56931      14261.184      1.3425095      0.65888107   
      6300  -9099.6882     -9183.6283      83.940049      12983.838      338.39942      14214.838      1.3468866      0.65888107   
      6400  -9099.2057     -9184.8156      85.609956      12936.117      345.13155      14180.815      1.3501181      0.65888107   
      6500  -9099.412      -9182.8931      83.481017      12744.016      336.54886      14171.749      1.3509818      0.65888107   
      6600  -9099.3893     -9182.0841      82.694852      11335.201      333.37947      14189.177      1.3493225      0.65888107   
      6700  -9101.8638     -9185.5082      83.644412      9534.8603      337.20757      14225.174      1.345908       0.65888107   
      6800  -9102.0041     -9185.227       83.222867      9514.9065      335.50814      14268.681      1.3418041      0.65888107   
      6900  -9101.3192     -9185.0044      83.685136      10564.934      337.37175      14302.809      1.3386024      0.65888107   
      7000  -9100.0855     -9183.3744      83.288835      8011.3771      335.77408      14324.55       1.3365708      0.71191424   
      7100  -9100.3627     -9183.0633      82.700644      8154.5564      333.40283      14335.55       1.3355452      0.71191424   
      7200  -9099.128      -9183.3081      84.180049      8987.9989      339.36696      14334.957      1.3356005      0.71191424   
      7300  -9099.8118     -9183.5699      83.758079      7729.8725      337.66581      14326.332      1.3364045      0.71191424   
      7400  -9098.9466     -9183.8309      84.884337      8123.1665      342.20626      14308.705      1.3380509      0.71191424   
      7500  -9098.6092     -9182.5507      83.941476      11891.023      338.40517      14287.543      1.3400327      0.71191424   
      7600  -9098.0725     -9183.0097      84.937211      10722.034      342.41942      14271.51       1.3415381      0.71191424   
      7700  -9100.3647     -9183.6189      83.254224      11745.034      335.63455      14264.564      1.3421914      0.71191424   
      7800  -9098.9847     -9183.1857      84.201014      11886.88       339.45148      14261.829      1.3424487      0.71191424   
      7900  -9099.5493     -9181.2658      81.716544      14050.419      329.43548      14265.604      1.3420935      0.71191424   
      8000  -9100.2645     -9182.6546      82.390192      10298.232      332.15126      14278.217      1.340908       0.6940393    
      8100  -9100.9023     -9184.1553      83.25305       9698.9361      335.62982      14293.03       1.3395183      0.6940393    
      8200  -9098.8497     -9181.7018      82.85209       8637.8395      334.01337      14309.127      1.3380114      0.6940393    
      8300  -9099.6253     -9184.1699      84.544572      8921.5292      340.83652      14322.008      1.336808       0.6940393    
      8400  -9100.7421     -9183.3022      82.560019      11093.711      332.83591      14327.625      1.3362839      0.6940393    
      8500  -9101.951      -9184.5556      82.60464       8418.4192      333.01579      14321.677      1.3368389      0.6940393    
      8600  -9102.6656     -9185.4703      82.80474       8486.3255      333.82248      14302.021      1.3386762      0.6940393    
      8700  -9101.147      -9183.0537      81.906676      9787.7349      330.20199      14273.592      1.3413424      0.6940393    
      8800  -9099.3461     -9182.8989      83.552821      7857.532       336.83833      14247.416      1.3438068      0.6940393    
      8900  -9098.3773     -9181.2925      82.915234      9400.0928      334.26794      14227.278      1.3457089      0.6940393    
      9000  -9097.9404     -9184.1587      86.218312      8599.6537      347.5841       14222.785      1.346134       0.68470083   
      9100  -9095.5914     -9182.3975      86.806094      10586.13       349.95371      14229.847      1.3454659      0.68470083   
      9200  -9095.1285     -9181.9185      86.790027      12142.46       349.88894      14250.669      1.3435001      0.68470083   
      9300  -9096.2238     -9180.9988      84.774904      12053.953      341.76509      14286.823      1.3401002      0.68470083   
      9400  -9094.4147     -9183.3398      88.925151      8912.0377      358.49656      14333.19       1.335765       0.68470083   
      9500  -9097.755      -9182.9457      85.190721      8369.2465      343.44143      14370.401      1.3323062      0.68470083   
      9600  -9097.0281     -9182.1575      85.129437      10097.283      343.19436      14391.363      1.3303656      0.68470083   
      9700  -9096.5817     -9180.692       84.110251      7466.6731      339.08557      14394.349      1.3300897      0.68470083   
      9800  -9097.677      -9183.6029      85.925902      9051.7783      346.40527      14374.261      1.3319485      0.68470083   
      9900  -9098.0368     -9182.0804      84.043587      9052.1156      338.81682      14331.224      1.3359483      0.68470083   
     10000  -9097.1142     -9181.5364      84.422171      11597.6        340.34306      14275.605      1.3411533      0.66254905   
     10100  -9096.5163     -9181.4191      84.90271       12295.347      342.28033      14214.875      1.3468831      0.66254905   
     10200  -9095.2472     -9180.2435      84.996325      11064.079      342.65773      14160.44       1.3520607      0.66254905   
     10300  -9097.9495     -9182.1478      84.198331      12145.742      339.44067      14132.011      1.3547807      0.66254905   
     10400  -9099.1714     -9183.989       84.817605      12154.565      341.93723      14136.785      1.3543231      0.66254905   
     10500  -9099.093      -9185.8522      86.759181      13280.14       349.76458      14172.859      1.3508759      0.66254905   
     10600  -9099.0148     -9183.0652      84.050397      11121.416      338.84428      14232.101      1.3452529      0.66254905   
     10700  -9098.2013     -9183.0263      84.825019      9571.6164      341.96712      14304.662      1.338429       0.66254905   
     10800  -9100.2883     -9185.5245      85.236272      11206.71       343.62506      14375.144      1.3318667      0.66254905   
     10900  -9101.1426     -9183.568       82.42535       8704.5892      332.29299      14421.812      1.3275568      0.66254905   
     11000  -9100.3937     -9182.1936      81.79993       7513.2147      329.77165      14433.777      1.3264563      0.66837217   
     11100  -9098.0411     -9182.7109      84.669749      8618.2129      341.34116      14411.594      1.328498       0.66837217   
     11200  -9096.0038     -9183.5601      87.556368      11102.793      352.9784       14366.96       1.3326253      0.66837217   
     11300  -9096.6884     -9183.1649      86.476488      10969.854      348.62492      14309.971      1.3379325      0.66837217   
     11400  -9097.3952     -9181.6376      84.242345      8768.122       339.6181       14251.955      1.3433789      0.66837217   
     11500  -9098.6163     -9181.7509      83.134659      8831.5466      335.15253      14202.169      1.3480881      0.66837217   
     11600  -9098.4837     -9181.8118      83.328048      10261.23       335.93217      14169.89       1.351159       0.66837217   
     11700  -9098.787      -9181.5295      82.74251       11095.51       333.57161      14160.701      1.3520358      0.66837217   
     11800  -9098.1373     -9181.6278      83.49052       11057.941      336.58717      14176.956      1.3504856      0.66837217   
     11900  -9098.0557     -9184.7523      86.696599      8878.867       349.51229      14215.195      1.3468527      0.66837217   
     12000  -9095.0721     -9179.4437      84.371524      9294.7519      340.13888      14263.963      1.3422479      0.85276307   
     12100  -9097.214      -9182.5612      85.3472        10547.306      344.07227      14320.064      1.3369895      0.85276307   
     12200  -9095.8411     -9183.0258      87.184721      10464.409      351.48012      14371.295      1.3322233      0.85276307   
     12300  -9095.6443     -9181.4552      85.81095       9420.5865      345.94185      14405.173      1.3290903      0.85276307   
     12400  -9096.3904     -9179.1475      82.757075      9807.0604      333.63033      14417.081      1.3279924      0.85276307   
     12500  -9097.0576     -9179.1503      82.092646      10756.293      330.95172      14406.508      1.3289671      0.85276307   
     12600  -9096.7152     -9184.6014      87.886213      10149.04       354.30814      14372.717      1.3320915      0.85276307   
     12700  -9096.733      -9182.8069      86.073937      10561.781      347.00206      14321.388      1.3368659      0.85276307   
     12800  -9096.1368     -9180.8483      84.711521      12115.725      341.50956      14271.328      1.3415552      0.85276307   
     12900  -9097.9746     -9183.6163      85.641761      11953.667      345.25977      14233.222      1.3451469      0.85276307   
     13000  -9096.1828     -9182.7899      86.607122      12055.2        349.15157      14210.738      1.3472752      0.81279388   
     13100  -9095.9716     -9180.6666      84.695061      12034.694      341.4432       14212.551      1.3471034      0.81279388   
     13200  -9099.94       -9183.4846      83.544552      11496.612      336.80499      14234.805      1.3449973      0.81279388   
     13300  -9099.9642     -9183.2875      83.323251      9104.5618      335.91283      14265.814      1.3420737      0.81279388   
     13400  -9101.2012     -9184.022       82.820797      8539.9623      333.88722      14294.385      1.3393913      0.81279388   
     13500  -9101.3001     -9184.323       83.022925      7846.2053      334.70208      14315.111      1.337452       0.81279388   
     13600  -9100.533      -9184.4645      83.931469      9754.4706      338.36483      14325.169      1.336513       0.81279388   
     13700  -9101.6069     -9183.4707      81.863826      8154.8809      330.02925      14324.34       1.3365904      0.81279388   
     13800  -9100.354      -9183.8584      83.504452      7131.6044      336.64333      14311.194      1.3378182      0.81279388   
     13900  -9101.647      -9184.6524      83.005415      12111.905      334.63149      14292.396      1.3395776      0.81279388   
     14000  -9102.7028     -9186.3902      83.687406      10805.998      337.3809       14265.751      1.3420796      0.67802139   
     14100  -9102.3608     -9186.3017      83.940822      10102.254      338.40253      14237.056      1.3447847      0.67802139   
     14200  -9102.9187     -9184.7498      81.831124      10808.085      329.89741      14210.162      1.3473298      0.67802139   
     14300  -9098.8944     -9183.6869      84.792486      11216.829      341.83597      14190.266      1.3492189      0.67802139   
     14400  -9100.3847     -9183.3302      82.945543      11250.321      334.39012      14186.44       1.3495828      0.67802139   
     14500  -9099.9748     -9185.2171      85.242271      10231.093      343.64925      14205.92       1.3477321      0.67802139   
     14600  -9099.3458     -9183.2908      83.94492       9348.9861      338.41905      14244.738      1.3440594      0.67802139   
     14700  -9102.0288     -9183.1516      81.122784      9529.611       327.04178      14292.346      1.3395824      0.67802139   
     14800  -9099.4679     -9181.6419      82.173978      10907.123      331.2796       14341.718      1.3349708      0.67802139   
     14900  -9099.057      -9182.6924      83.635398      6316.9966      337.17123      14380.821      1.3313408      0.67802139   
     15000  -9098.8811     -9183.5195      84.638396      8110.6937      341.21476      14402.678      1.3293205      0.71863812   
     15100  -9100.1967     -9184.5254      84.328668      9198.6587      339.96611      14397.878      1.3297636      0.71863812   
     15200  -9097.8943     -9182.8169      84.922544      9910.5067      342.36029      14366.395      1.3326777      0.71863812   
     15300  -9098.6345     -9181.2745      82.64003       10460.519      333.15847      14315.24       1.33744        0.71863812   
     15400  -9097.3153     -9183.1249      85.809567      10752.185      345.93627      14256.264      1.3429728      0.71863812   
     15500  -9095.9213     -9183.0225      87.101182      12949.881      351.14334      14202.52       1.3480548      0.71863812   
     15600  -9096.2052     -9180.9682      84.763002      14937.199      341.7171       14167.475      1.3513893      0.71863812   
     15700  -9099.0677     -9183.6859      84.618135      9797.8231      341.13308      14162.05       1.351907       0.71863812   
     15800  -9098.6121     -9182.3402      83.728108      10889.17       337.54499      14186.726      1.3495555      0.71863812   
     15900  -9098.5754     -9184.5514      85.976062      10880.521      346.60749      14233.072      1.3451611      0.71863812   
     16000  -9096.9652     -9182.5923      85.627134      10646.927      345.2008       14290.239      1.3397798      0.62655406   
     16100  -9096.7656     -9182.3733      85.607661      9459.359       345.1223       14351.365      1.3340734      0.62655406   
     16200  -9095.1022     -9180.1692      85.066937      9119.8939      342.9424       14402.697      1.3293187      0.62655406   
     16300  -9096.582      -9181.072       84.489968      10709.977      340.61638      14434.343      1.3264043      0.62655406   
     16400  -9095.5425     -9181.3817      85.839201      6140.8409      346.05573      14439.994      1.3258852      0.62655406   
     16500  -9094.9773     -9181.4728      86.495539      6903.8159      348.70172      14420.402      1.3276866      0.62655406   
     16600  -9094.3023     -9178.9637      84.66139       12167.477      341.30746      14379.761      1.331439       0.62655406   
     16700  -9094.6116     -9181.1763      86.564713      11274.137      348.9806       14332.396      1.3358391      0.62655406   
     16800  -9096.3269     -9184.3061      87.979186      9489.2316      354.68296      14286.248      1.3401541      0.62655406   
     16900  -9095.2721     -9181.1554      85.883318      11751.086      346.23359      14242.912      1.3442318      0.62655406   
     17000  -9093.6415     -9180.5613      86.919732      11245.495      350.41184      14213.537      1.3470098      0.67034385   
     17100  -9094.5515     -9183.1275      88.576048      13314.807      357.08917      14204.963      1.3478229      0.67034385   
     17200  -9094.8155     -9180.1332      85.317787      11701.982      343.95369      14218.29       1.3465596      0.67034385   
     17300  -9093.4858     -9179.3464      85.860582      8941.8014      346.14193      14254.453      1.3431434      0.67034385   
     17400  -9094.2779     -9182.0758      87.797968      9704.8437      353.95239      14301.922      1.3386855      0.67034385   
     17500  -9095.9902     -9181.435       85.444812      7169.9009      344.46578      14345.192      1.3346475      0.67034385   
     17600  -9099.109      -9183.7993      84.690264      11131.383      341.42386      14374.751      1.3319031      0.67034385   
     17700  -9100.5528     -9184.1451      83.592343      10204.749      336.99766      14380.121      1.3314057      0.67034385   
     17800  -9098.6415     -9182.2209      83.579315      9760.4243      336.94514      14360.776      1.3331991      0.67034385   
     17900  -9097.4811     -9181.526       84.044915      11739.341      338.82218      14325.159      1.336514       0.67034385   
     18000  -9099.4052     -9183.313       83.907882      9767.4475      338.26974      14283.219      1.3404384      0.66730747   
     18100  -9096.5505     -9180.448       83.897491      11466.041      338.22785      14236.629      1.344825       0.66730747   
     18200  -9098.6749     -9183.1484      84.473559      13998.548      340.55023      14200.967      1.3482022      0.66730747   
     18300  -9100.0354     -9183.9896      83.954185      11436.072      338.4564       14184.982      1.3497215      0.66730747   
     18400  -9098.5855     -9182.5541      83.968553      9328.8335      338.51433      14187.414      1.3494901      0.66730747   
     18500  -9098.1352     -9182.0617      83.926485      9611.351       338.34473      14207.011      1.3476286      0.66730747   
     18600  -9097.4227     -9183.3128      85.890125      12433.249      346.26103      14246.407      1.343902       0.66730747   
     18700  -9099.1634     -9180.4187      81.255293      11876.049      327.57598      14297.861      1.3390656      0.66730747   
     18800  -9100.51       -9184.6704      84.160388      9894.7287      339.2877       14347.606      1.3344229      0.66730747   
     18900  -9099.1511     -9183.3368      84.185699      8123.8082      339.38974      14381.467      1.331281       0.66730747   
     19000  -9100.6198     -9184.4448      83.825072      6949.3694      337.93589      14395.938      1.3299428      0.67057858   
     19100  -9099.3588     -9180.5172      81.15841       8686.1304      327.1854       14390.271      1.3304666      0.67057858   
     19200  -9100.1016     -9184.3667      84.265161      10957.722      339.71009      14364.089      1.3328917      0.67057858   
     19300  -9101.0624     -9185.2875      84.225085      10411.902      339.54852      14322.256      1.3367849      0.67057858   
     19400  -9101.6029     -9185.0335      83.430616      9979.7596      336.34567      14271.153      1.3415717      0.67057858   
     19500  -9101.8951     -9184.1576      82.262443      10226.604      331.63625      14216.86       1.346695       0.67057858   
     19600  -9100.4851     -9185.0894      84.604285      11215.545      341.07724      14169.596      1.351187       0.67057858   
     19700  -9102.4252     -9185.6872      83.261931      16500.037      335.66562      14141.474      1.3538741      0.67057858   
     19800  -9102.7334     -9185.1339      82.400444      14294.819      332.19259      14141.159      1.3539042      0.67057858   
     19900  -9102.1037     -9183.7684      81.66473       10124.585      329.2266       14168.647      1.3512776      0.67057858   
     20000  -9100.0729     -9183.9642      83.891269      8158.0658      338.20276      14217.886      1.3465979      0.6717731    
     20100  -9102.7015     -9185.2008      82.499367      7770.1062      332.59139      14278.116      1.3409174      0.6717731    
     20200  -9103.1106     -9183.9092      80.798573      9279.5937      325.73474      14332.902      1.3357919      0.6717731    
     20300  -9103.8024     -9185.6804      81.878015      6089.8587      330.08644      14374.239      1.3319505      0.6717731    
     20400  -9100.1619     -9182.9179      82.755998      8417.0073      333.62599      14394.227      1.3301009      0.6717731    
     20500  -9099.7771     -9181.6616      81.884555      10672.457      330.11281      14394.39       1.3300858      0.6717731    
     20600  -9098.1481     -9183.0367      84.888592      8457.2032      342.22341      14375.28       1.331854       0.6717731    
     20700  -9096.764      -9182.7368      85.972782      6369.6472      346.59426      14339.428      1.335184       0.6717731    
     20800  -9095.2342     -9181.3794      86.145189      9331.5046      347.28931      14296.728      1.3391718      0.6717731    
     20900  -9095.6549     -9180.8886      85.233716      13613.951      343.61476      14257.95       1.342814       0.6717731    
     21000  -9096.2059     -9182.161       85.955134      12876.415      346.52311      14232.484      1.3452166      0.81321156   
     21100  -9095.3005     -9182.0439      86.743405      12578.523      349.70098      14225.156      1.3459096      0.81321156   
     21200  -9097.6779     -9182.2293      84.551397      10370.368      340.86403      14238.205      1.3446761      0.81321156   
     21300  -9096.7911     -9182.9266      86.135449      12797.879      347.25004      14272.599      1.3414358      0.81321156   
     21400  -9098.6022     -9182.7259      84.123663      11747.814      339.13964      14322.274      1.3367832      0.81321156   
     21500  -9098.0658     -9182.5346      84.468856      8605.877       340.53127      14378.495      1.3315563      0.81321156   
     21600  -9098.6195     -9181.1243      82.50479       9159.1445      332.61325      14427.739      1.3270114      0.81321156   
     21700  -9099.5946     -9182.8056      83.210988      10663.977      335.46025      14455.633      1.3244508      0.81321156   
     21800  -9098.533      -9181.6759      83.142924      9900.5149      335.18585      14451.424      1.3248366      0.81321156   
     21900  -9097.9262     -9181.6133      83.687018      7622.0903      337.37934      14415.998      1.3280922      0.81321156   
     22000  -9097.1263     -9182.1233      84.997015      8207.9434      342.66051      14352.063      1.3340086      0.70496585   
     22100  -9097.0806     -9181.8185      84.737864      9514.6524      341.61576      14269.941      1.3416856      0.70496585   
     22200  -9098.7799     -9183.5932      84.813253      13145.631      341.91969      14192.457      1.3490106      0.70496585   
     22300  -9097.6074     -9181.9068      84.299362      12448.346      339.84797      14135.511      1.3544452      0.70496585   
     22400  -9095.7632     -9181.621       85.857865      13134.655      346.13098      14110.59       1.3568373      0.70496585   
     22500  -9094.7654     -9181.8171      87.051683      11394.075      350.94379      14123.361      1.3556103      0.70496585   
     22600  -9097.1381     -9182.9998      85.861746      14748.523      346.14663      14165.355      1.3515916      0.70496585   
     22700  -9096.8125     -9182.7018      85.889286      11173.247      346.25765      14225.56       1.3458714      0.70496585   
     22800  -9098.631      -9182.5637      83.932771      9277.4794      338.37007      14291.006      1.339708       0.70496585   
     22900  -9098.8704     -9181.2614      82.390981      6955.1112      332.15444      14352.223      1.3339937      0.70496585   
     23000  -9097.9409     -9182.0432      84.102324      7655.6281      339.05362      14398.803      1.3296782      0.66285891   
     23100  -9096.6843     -9182.9509      86.266577      8688.4125      347.77868      14412.317      1.3284314      0.66285891   
     23200  -9096.99       -9178.4599      81.469873      10866.78       328.44104      14397.328      1.3298144      0.66285891   
     23300  -9098.9755     -9182.2665      83.291033      10540.499      335.78294      14363.534      1.3329432      0.66285891   
     23400  -9099.0886     -9185.2536      86.164968      8984.8044      347.36905      14315.994      1.3373696      0.66285891   
     23500  -9099.333      -9181.0985      81.765421      8271.0879      329.63253      14262.802      1.3423572      0.66285891   
     23600  -9099.4282     -9183.9358      84.507698      8347.8918      340.68786      14216.094      1.3467676      0.66285891   
     23700  -9099.86       -9183.3588      83.498788      11780.427      336.6205       14183.991      1.3498157      0.66285891   
     23800  -9100.1411     -9184.9926      84.851465      11085.257      342.07374      14171.044      1.351049       0.66285891   
     23900  -9100.8531     -9184.5178      83.664792      9826.6212      337.28973      14178.63       1.3503262      0.66285891   
     24000  -9098.1949     -9184.8169      86.621982      9372.566       349.21147      14204.442      1.3478723      0.67815945   
     24100  -9097.7773     -9182.9874      85.210149      10781.313      343.51975      14243.471      1.344179       0.67815945   
     24200  -9098.5586     -9183.6664      85.107863      9687.6298      343.10739      14294.123      1.3394158      0.67815945   
     24300  -9100.2746     -9183.2164      82.941773      8514.4515      334.37493      14342.367      1.3349103      0.67815945   
     24400  -9100.5609     -9184.6243      84.063416      7960.95        338.89676      14374.578      1.3319191      0.67815945   
     24500  -9099.4147     -9183.4613      84.046655      7655.4686      338.82919      14386.628      1.3308035      0.67815945   
     24600  -9101.2631     -9185.1658      83.902657      8696.6321      338.24867      14378.022      1.3316         0.67815945   
     24700  -9101.6239     -9184.5795      82.95557       8140.8981      334.43055      14344.227      1.3347373      0.67815945   
     24800  -9100.4427     -9183.721       83.278338      8149.4465      335.73177      14294.863      1.3393465      0.67815945   
     24900  -9101.1529     -9183.8975      82.744587      11792.101      333.57998      14238.993      1.3446017      0.67815945   
     25000  -9100.4525     -9184.1935      83.741026      11100.411      337.59707      14189.027      1.3493367      0.67098891   
     25100  -9099.4402     -9182.8304      83.390267      12904.065      336.183        14156.738      1.3524143      0.67098891   
     25200  -9101.4204     -9184.9489      83.528539      12207.369      336.74044      14150.499      1.3530105      0.67098891   
     25300  -9101.6623     -9184.8357      83.173421      8455.9615      335.3088       14168.856      1.3512576      0.67098891   
     25400  -9099.1422     -9184.0611      84.91892       12814.157      342.34568      14208.48       1.3474893      0.67098891   
     25500  -9098.4261     -9184.1026      85.676521      13851.6        345.3999       14262.586      1.3423775      0.67098891   
     25600  -9100.2017     -9181.9732      81.771523      10762.826      329.65713      14315.883      1.33738        0.67098891   
     25700  -9097.3556     -9182.8734      85.517769      10164.653      344.7599       14357.507      1.3335027      0.67098891   
     25800  -9097.4538     -9181.9887      84.534898      7569.7986      340.79751      14382.159      1.331217       0.67098891   
     25900  -9098.1482     -9183.0419      84.893699      7140.9561      342.244        14384.454      1.3310046      0.67098891   
     26000  -9098.5748     -9182.4504      83.875591      9413.7454      338.13956      14362.13       1.3330735      0.78753918   
     26100  -9097.643      -9182.443       84.799971      7891.651       341.86614      14324.683      1.3365584      0.78753918   
     26200  -9098.4017     -9181.29        82.888282      9136.6142      334.15928      14280.701      1.3406747      0.78753918   
     26300  -9097.5327     -9182.3665      84.833756      8984.0874      342.00234      14238.913      1.3446093      0.78753918   
     26400  -9098.3666     -9183.6478      85.281283      13556.097      343.80652      14208.554      1.3474823      0.78753918   
     26500  -9100.0245     -9181.2277      81.203297      12423.592      327.36636      14190.015      1.3492427      0.78753918   
     26600  -9099.4381     -9183.2486      83.810473      10042.218      337.87704      14191.085      1.349141       0.78753918   
     26700  -9100.1403     -9183.4345      83.294232      7415.9589      335.79584      14209.544      1.3473884      0.78753918   
     26800  -9099.7022     -9183.0157      83.31348       11383.808      335.87344      14240.424      1.3444666      0.78753918   
     26900  -9099.0008     -9185.1908      86.189962      9878.1523      347.46981      14276.216      1.3410959      0.78753918   
     27000  -9097.5505     -9182.0285      84.478057      8382.6435      340.56837      14312.686      1.3376787      0.67013113   
     27100  -9097.5523     -9181.5196      83.967306      6946.3478      338.5093       14345.156      1.3346509      0.67013113   
     27200  -9098.9769     -9184.4296      85.452654      8318.0596      344.49739      14364.914      1.3328151      0.67013113   
     27300  -9099.5835     -9183.3588      83.775321      8085.0344      337.73533      14370.276      1.3323178      0.67013113   
     27400  -9099.0802     -9184.6071      85.526916      6219.3032      344.79678      14358.544      1.3334065      0.67013113   
     27500  -9100.4961     -9184.7773      84.281218      9223.0621      339.77482      14330.456      1.3360199      0.67013113   
     27600  -9100.8223     -9181.0683      80.245987      9069.2084      323.50702      14286.575      1.3401235      0.67013113   
     27700  -9099.2023     -9183.0563      83.853938      10733.837      338.05226      14239.716      1.3445335      0.67013113   
     27800  -9098.7401     -9184.2611      85.520965      10342.298      344.77279      14201.453      1.348156       0.67013113   
     27900  -9097.6193     -9182.7815      85.162208      11826.742      343.32648      14179.853      1.3502097      0.67013113   
     28000  -9095.9902     -9181.8049      85.81479       12030.136      345.95732      14181.271      1.3500746      0.69030554   
     28100  -9095.7885     -9182.1411      86.352566      9218.8961      348.12534      14210.473      1.3473003      0.69030554   
     28200  -9095.8641     -9180.2334      84.369344      9325.1151      340.1301       14259.727      1.3426467      0.69030554   
     28300  -9095.2341     -9180.2516      85.01755       7264.1097      342.7433       14317.382      1.3372399      0.69030554   
     28400  -9095.9839     -9180.0932      84.109226      7745.8711      339.08144      14370.169      1.3323278      0.69030554   
     28500  -9097.2548     -9181.2364      83.981652      5056.7667      338.56714      14410.648      1.3285852      0.69030554   
     28600  -9097.4793     -9182.9055      85.426235      6698.5852      344.39089      14423.876      1.3273669      0.69030554   
     28700  -9098.6128     -9181.6973      83.08448       8285.3038      334.95024      14406.892      1.3289316      0.69030554   
     28800  -9098.7434     -9180.5327      81.78923       10167.654      329.72851      14362.47       1.3330419      0.69030554   
     28900  -9099.9703     -9184.2021      84.231769      9746.4482      339.57547      14297.138      1.3391334      0.69030554   
     29000  -9099.8534     -9183.0355      83.182168      10799.391      335.34406      14220.928      1.3463098      0.73364176   
     29100  -9097.4013     -9182.9693      85.567976      13433.56       344.96231      14153.098      1.3527621      0.73364176   
     29200  -9097.5962     -9182.035       84.438846      11347.686      340.41029      14110.839      1.3568133      0.73364176   
     29300  -9099.5754     -9184.6732      85.097853      10573.496      343.06703      14104.143      1.3574575      0.73364176   
     29400  -9100.9529     -9185.4601      84.507197      11436.707      340.68584      14130.05       1.3549687      0.73364176   
     29500  -9101.9699     -9184.385       82.415119      10441.029      332.25175      14179.385      1.3502542      0.73364176   
     29600  -9101.4316     -9184.4503      83.018711      9325.0526      334.68509      14241.842      1.3443328      0.73364176   
     29700  -9100.3496     -9183.12        82.770473      11335.782      333.68434      14299.858      1.3388787      0.73364176   
     29800  -9102.6307     -9186.1883      83.557558      12498.187      336.85743      14348.51       1.3343388      0.73364176   
     29900  -9102.9725     -9184.3282      81.355772      7578.5816      327.98105      14374.175      1.3319564      0.73364176   
     30000  -9098.6916     -9182.8226      84.131016      6094.979       339.16929      14374.59       1.331918       0.70459306   
     30100  -9097.1243     -9182.3935      85.269196      10089.629      343.75779      14355.232      1.333714       0.70459306   
     30200  -9096.5653     -9182.7655      86.200175      7974.5649      347.51098      14320.423      1.3369559      0.70459306   
     30300  -9097.9527     -9182.4332      84.480546      9038.5095      340.5784       14279.231      1.3408127      0.70459306   
     30400  -9098.5529     -9183.7398      85.186909      11358.159      343.42606      14241.001      1.3444121      0.70459306   
     30500  -9099.8467     -9183.9377      84.090969      10604.425      339.00784      14208.513      1.3474862      0.70459306   
     30600  -9097.8688     -9183.5745      85.705679      10308.619      345.51745      14191.323      1.3491184      0.70459306   
     30700  -9099.3533     -9183.2981      83.944795      12810.081      338.41855      14194.454      1.3488208      0.70459306   
     30800  -9099.781      -9185.6115      85.830521      9915.9385      346.02075      14208.811      1.3474579      0.70459306   
     30900  -9100.924      -9186.0173      85.093334      11774.214      343.04882      14233.528      1.345118       0.70459306   
     31000  -9101.3015     -9186.1787      84.877234      9562.8773      342.17762      14261.14       1.3425136      0.70276369   
     31100  -9100.378      -9183.7024      83.324412      10998.262      335.91751      14284.793      1.3402907      0.70276369   
     31200  -9100.5063     -9183.4648      82.958446      8964.4448      334.44214      14306.464      1.3382604      0.70276369   
     31300  -9101.2466     -9184.7378      83.491194      9763.5736      336.58988      14319.54       1.3370384      0.70276369   
     31400  -9098.7303     -9180.7701      82.039759      7669.4823      330.73851      14322.158      1.336794       0.70276369   
     31500  -9098.9069     -9183.8211      84.914214      6832.767       342.3267       14318.531      1.3371326      0.70276369   
     31600  -9099.8855     -9182.0075      82.121996      8982.9667      331.07004      14308.969      1.3380261      0.70276369   
     31700  -9101.964      -9185.6732      83.709157      10913.918      337.46859      14294.73       1.3393589      0.70276369   
     31800  -9100.9892     -9183.7275      82.738215      10812.986      333.55429      14276.149      1.3411022      0.70276369   
     31900  -9101.8231     -9184.6603      82.837252      10017.102      333.95355      14262.25       1.3424091      0.70276369   
     32000  -9098.9672     -9184.7927      85.825491      12703.305      346.00047      14258.106      1.3427993      0.72431573   
     32100  -9098.8869     -9183.2737      84.386775      13672.835      340.20037      14265.076      1.3421432      0.72431573   
     32200  -9096.4488     -9183.5487      87.099938      11764.043      351.13833      14284.633      1.3403057      0.72431573   
     32300  -9095.6826     -9179.8445      84.161943      12644.445      339.29397      14314.327      1.3375253      0.72431573   
     32400  -9096.6725     -9179.6867      83.014235      10336.255      334.66705      14352.08       1.334007       0.72431573   
     32500  -9098.2963     -9182.7092      84.412866      7617.6814      340.30555      14391.406      1.3303617      0.72431573   
     32600  -9097.5012     -9182.5827      85.081518      9073.7497      343.00118      14420.206      1.3277046      0.72431573   
     32700  -9097.4956     -9183.1774      85.681744      7791.0621      345.42096      14430.017      1.326802       0.72431573   
     32800  -9099.6459     -9180.2194      80.573526      6763.5507      324.82748      14419.431      1.327776       0.72431573   
     32900  -9097.1403     -9183.0585      85.918184      7774.8451      346.37415      14389.187      1.3305668      0.72431573   
     33000  -9097.2661     -9181.1834      83.917255      8992.1266      338.30752      14342.275      1.3349189      0.72449059   
     33100  -9095.7085     -9181.3375      85.628998      10550.477      345.20831      14286.035      1.3401741      0.72449059   
     33200  -9094.4606     -9181.1353      86.674688      10007.437      349.42395      14239.499      1.3445539      0.72449059   
     33300  -9095.2637     -9181.1025      85.838793      11196.501      346.05409      14213.313      1.3470311      0.72449059   
     33400  -9094.3057     -9180.5692      86.263499      11581.951      347.76627      14213.753      1.3469894      0.72449059   
     33500  -9095.3481     -9181.4029      86.054797      11280.041      346.9249       14241.596      1.344356       0.72449059   
     33600  -9096.0304     -9180.4833      84.452862      12803.466      340.46679      14289.659      1.3398342      0.72449059   
     33700  -9098.3406     -9179.574       81.233365      11595.055      327.48758      14347.94       1.3343919      0.72449059   
     33800  -9098.2977     -9183.9265      85.628739      8188.6405      345.20727      14402.959      1.3292945      0.72449059   
     33900  -9094.6624     -9180.3464      85.684004      8475.3352      345.43007      14437.001      1.3261601      0.72449059   
     34000  -9095.3846     -9181.0054      85.620823      11492.905      345.17536      14443.647      1.3255499      0.62234901   
     34100  -9095.9541     -9181.6318      85.677699      8727.9445      345.40465      14423.866      1.3273678      0.62234901   
     34200  -9096.9629     -9181.7355      84.772624      12140.011      341.75589      14384.798      1.3309728      0.62234901   
     34300  -9098.1027     -9182.5798      84.477078      10725.617      340.56442      14333.617      1.3357253      0.62234901   
     34400  -9098.8412     -9183.2821      84.440881      8639.5301      340.41849      14276.564      1.3410632      0.62234901   
     34500  -9098.0059     -9182.9463      84.940394      7820.1749      342.43225      14227.895      1.3456505      0.62234901   
     34600  -9097.4057     -9183.3979      85.992282      11419.971      346.67287      14195.168      1.348753       0.62234901   
     34700  -9097.9039     -9182.0856      84.181738      13606.46       339.37377      14185.312      1.34969        0.62234901   
     34800  -9098.6606     -9183.8652      85.204614      11147.186      343.49744      14198.933      1.3483953      0.62234901   
     34900  -9099.5099     -9185.2302      85.720384      9517.4898      345.57673      14234.301      1.345045       0.62234901   
     35000  -9097.7534     -9184.5151      86.761686      12112.686      349.77468      14278.383      1.3408923      0.66244076   
     35100  -9101.0376     -9182.8818      81.844206      11071.569      329.95015      14318.045      1.337178       0.66244076   
     35200  -9100.1391     -9182.3143      82.175167      8606.0295      331.2844       14346.817      1.3344963      0.66244076   
     35300  -9099.6113     -9181.5311      81.919889      8958.6878      330.25526      14358.549      1.3334059      0.66244076   
     35400  -9098.725      -9183.1288      84.40384       12260.324      340.26916      14359          1.3333641      0.66244076   
     35500  -9099.4029     -9183.4698      84.066864      10904.058      338.91066      14346.38       1.334537       0.66244076   
     35600  -9099.0347     -9184.9941      85.959396      10043.658      346.5403       14324.819      1.3365457      0.66244076   
     35700  -9100.0351     -9181.5923      81.557195      10551.026      328.79308      14297.801      1.3390713      0.66244076   
     35800  -9099.8277     -9184.0733      84.2456        12091.989      339.63123      14271.362      1.341552       0.66244076   
     35900  -9101.6101     -9185.9913      84.381123      12363.427      340.17758      14251.963      1.3433781      0.66244076   
     36000  -9101.9277     -9184.45        82.522329      9551.2752      332.68396      14239.674      1.3445374      0.74385603   
     36100  -9101.8582     -9184.7112      82.853061      10605.28       334.01729      14232.503      1.3452149      0.74385603   
     36200  -9103.1642     -9184.3578      81.193587      13049.644      327.32721      14230.512      1.3454031      0.74385603   
     36300  -9102.6786     -9185.8729      83.194253      11694.16       335.39278      14233.961      1.3450771      0.74385603   
     36400  -9101.3662     -9186.6883      85.322067      9583.8282      343.97094      14242.233      1.3442959      0.74385603   
     36500  -9101.3277     -9185.4884      84.160793      12700.034      339.28933      14248.781      1.3436781      0.74385603   
     36600  -9100.6837     -9183.6009      82.917169      8958.8698      334.27574      14261.567      1.3424735      0.74385603   
     36700  -9099.4383     -9183.3844      83.946173      9385.6316      338.42411      14278.454      1.3408857      0.74385603   
     36800  -9101.1753     -9183.9134      82.738095      10779.517      333.55381      14294.628      1.3393685      0.74385603   
     36900  -9099.1306     -9183.7442      84.613565      10317.577      341.11466      14305.848      1.3383181      0.74385603   
     37000  -9098.1123     -9182.1524      84.040147      11146.135      338.80296      14312.516      1.3376946      0.70661847   
     37100  -9100.1264     -9183.4559      83.329466      11758.782      335.93788      14315.86       1.3373821      0.70661847   
     37200  -9099.0705     -9183.4815      84.410959      11196.953      340.29786      14310.527      1.3378805      0.70661847   
     37300  -9098.9267     -9183.826       84.899299      12270.84       342.26658      14301.71       1.3387053      0.70661847   
     37400  -9096.6427     -9181.8206      85.177846      13849.818      343.38952      14291.214      1.3396885      0.70661847   
     37500  -9096.5111     -9181.091       84.579962      10849.318      340.97919      14282.338      1.340521       0.70661847   
     37600  -9096.1733     -9180.1852      84.011856      9060.0226      338.6889       14279.61       1.3407771      0.70661847   
     37700  -9096.2413     -9181.7857      85.544424      9769.1327      344.86736      14281.695      1.3405814      0.70661847   
     37800  -9095.8161     -9182.4757      86.659613      7456.0569      349.36318      14288.119      1.3399787      0.70661847   
     37900  -9097.6752     -9183.2386      85.563446      9748.015       344.94405      14299.594      1.3389034      0.70661847   
     38000  -9097.7438     -9186.3923      88.648559      10167.421      357.3815       14309.523      1.3379743      0.65742917   
     38100  -9097.0954     -9183.0947      85.999325      9267.9168      346.70127      14319.113      1.3370782      0.65742917   
     38200  -9096.5112     -9182.0413      85.53007       11436.89       344.80949      14325.639      1.3364692      0.65742917   
     38300  -9098.2882     -9184.3535      86.065311      9732.563       346.96729      14329.847      1.3360767      0.65742917   
     38400  -9098.1516     -9183.1019      84.950247      11826.38       342.47197      14327.172      1.3363261      0.65742917   
     38500  -9097.9794     -9181.1099      83.1305        9714.7661      335.13576      14316.93       1.3372822      0.65742917   
     38600  -9097.914      -9183.0623      85.14828       10791.345      343.27033      14300.435      1.3388246      0.65742917   
     38700  -9097.7714     -9183.1361      85.364677      12047.125      344.14272      14281.745      1.3405767      0.65742917   
     38800  -9097.5604     -9181.9114      84.351067      12290.602      340.05641      14264.341      1.3422123      0.65742917   
     38900  -9098.511      -9183.1758      84.664788      11517.679      341.32116      14247.848      1.3437661      0.65742917   
     39000  -9098.6109     -9183.3396      84.728635      11081.548      341.57856      14231.484      1.3453112      0.73645492   
     39100  -9098.3855     -9181.2081      82.822633      10885.035      333.89462      14218.848      1.3465067      0.73645492   
     39200  -9098.4051     -9182.8217      84.41661       11000.733      340.32064      14212.734      1.347086       0.73645492   
     39300  -9096.6749     -9181.5686      84.893663      10302.363      342.24385      14217.713      1.3466142      0.73645492   
     39400  -9094.8331     -9181.8298      86.996743      10540.606      350.7223       14236.8        1.3448088      0.73645492   
     39500  -9096.0316     -9183.0235      86.991861      9254.0099      350.70262      14269.051      1.3417693      0.73645492   
     39600  -9098.7969     -9181.0521      82.255199      8924.2574      331.60704      14304.011      1.33849        0.73645492   
     39700  -9100.2671     -9184.4506      84.183479      8820.573       339.38079      14329.289      1.3361287      0.73645492   
     39800  -9099.6063     -9184.0931      84.486773      7532.9619      340.6035       14334.837      1.3356116      0.73645492   
     39900  -9101.1311     -9183.5109      82.379752      7979.9099      332.10917      14324.889      1.3365392      0.73645492   
     40000  -9100.6411     -9182.6606      82.019513      10803.872      330.65689      14303.283      1.3385581      0.67802541   
     40100  -9100.2193     -9185.6072      85.387902      10892.213      344.23635      14274.029      1.3413014      0.67802541   
     40200  -9099.6741     -9186.0323      86.358204      12016.667      348.14807      14239.904      1.3445157      0.67802541   
     40300  -9097.8882     -9183.7128      85.824582      9595.2634      345.9968       14210.206      1.3473257      0.67802541   
     40400  -9097.5089     -9182.7665      85.2576        11850.819      343.71105      14194.809      1.3487871      0.67802541   
     40500  -9097.0538     -9182.6406      85.586813      11622.854      345.03825      14199.492      1.3483423      0.67802541   
     40600  -9096.9194     -9183.8003      86.880898      11616.811      350.25528      14221.287      1.3462758      0.67802541   
     40700  -9099.1582     -9183.6551      84.49694       8508.7163      340.64449      14259.596      1.342659       0.67802541   
     40800  -9098.5284     -9184.4627      85.934377      8559.1768      346.43943      14297.189      1.3391286      0.67802541   
     40900  -9096.791      -9180.464       83.672951      10838.345      337.32263      14329.067      1.3361494      0.67802541   
     41000  -9096.4465     -9182.2318      85.785383      6941.725       345.83877      14354.738      1.3337599      0.63694238   
     41100  -9098.5546     -9182.8312      84.276596      7063.4009      339.75619      14365.506      1.3327602      0.63694238   
     41200  -9097.7435     -9183.1922      85.448698      9579.7475      344.48145      14357.956      1.333461       0.63694238   
     41300  -9098.3843     -9183.1855      84.801216      10175.966      341.87116      14335.848      1.3355174      0.63694238   
     41400  -9097.505      -9182.9096      85.40461       11015.291      344.30371      14307.543      1.3381595      0.63694238   
     41500  -9095.2794     -9181.4149      86.135563      9599.5528      347.2505       14279.834      1.3407561      0.63694238   
     41600  -9093.6473     -9179.88        86.232618      11311.977      347.64178      14261.897      1.3424424      0.63694238   
     41700  -9093.6447     -9179.7286      86.083854      11119.16       347.04204      14259.003      1.3427148      0.63694238   
     41800  -9096.5316     -9183.4088      86.877218      9442.1086      350.24044      14272.032      1.341489       0.63694238   
     41900  -9098.5425     -9183.656       85.113427      10770.665      343.12982      14296.402      1.3392023      0.63694238   
     42000  -9096.9845     -9181.0266      84.042058      12048.107      338.81066      14321.168      1.3368864      0.68857282   
     42100  -9099.8546     -9184.144       84.289354      8316.9182      339.80762      14344.364      1.3347245      0.68857282   
     42200  -9099.1364     -9181.1583      82.021914      7625.0048      330.66657      14356.103      1.3336332      0.68857282   
     42300  -9097.6882     -9181.2872      83.598988      10127.926      337.02445      14353.824      1.3338449      0.68857282   
     42400  -9098.3293     -9181.6661      83.336798      9371.4962      335.96744      14343.525      1.3348026      0.68857282   
     42500  -9100.4488     -9184.6996      84.250845      11393.418      339.65237      14325.6        1.3364728      0.68857282   
     42600  -9099.2343     -9184.2011      84.966806      10098.39       342.53873      14301.292      1.3387444      0.68857282   
     42700  -9096.4956     -9182.0695      85.573882      8189.2391      344.98612      14275.664      1.3411478      0.68857282   
     42800  -9096.7397     -9180.9739      84.234209      10658.297      339.5853       14255.819      1.3430147      0.68857282   
     42900  -9096.4731     -9182.4035      85.930421      12255.811      346.42349      14244.192      1.3441109      0.68857282   
     43000  -9095.6828     -9179.5476      83.864803      10614.466      338.09606      14245.335      1.3440031      0.65107467   
     43100  -9095.8773     -9180.2587      84.381391      8723.2314      340.17866      14259.524      1.3426658      0.65107467   
     43200  -9096.1337     -9180.9457      84.812021      10070.481      341.91472      14285.804      1.3401958      0.65107467   
     43300  -9094.4802     -9180.7529      86.272703      10365.524      347.80338      14318.856      1.3371023      0.65107467   
     43400  -9094.0829     -9179.7701      85.687203      11416.303      345.44296      14355.099      1.3337264      0.65107467   
     43500  -9095.6455     -9181.6836      86.038016      12238.797      346.85725      14384.086      1.3310386      0.65107467   
     43600  -9096.0221     -9180.1583      84.136225      9851.5716      339.19029      14398.502      1.329706       0.65107467   
     43700  -9096.5914     -9180.1287      83.537331      11055.32       336.77588      14396.798      1.3298634      0.65107467   
     43800  -9097.0957     -9181.2715      84.175824      8084.7403      339.34993      14380.664      1.3313554      0.65107467   
     43900  -9097.2562     -9183.0245      85.768321      12470.822      345.76999      14349.135      1.3342807      0.65107467   
     44000  -9093.0362     -9179.4889      86.452695      10992.597      348.529        14317.04       1.3372719      0.69854341   
     44100  -9094.6865     -9180.7317      86.0452        9767.1205      346.88621      14296.478      1.3391952      0.69854341   
     44200  -9094.7178     -9181.6789      86.961075      12239.258      350.57851      14283.676      1.3403955      0.69854341   
     44300  -9093.7204     -9180.8048      87.084405      11809.506      351.0757       14281.995      1.3405532      0.69854341   
     44400  -9093.6457     -9179.2518      85.606151      11451.658      345.11621      14292.532      1.3395649      0.69854341   
     44500  -9093.0216     -9180.1202      87.098541      11496.705      351.13269      14314.289      1.3375289      0.69854341   
     44600  -9095.8199     -9181.7134      85.893564      7540.8017      346.2749       14344.995      1.3346659      0.69854341   
     44700  -9095.5714     -9180.0855      84.514089      10290.895      340.71362      14373.842      1.3319873      0.69854341   
     44800  -9096.2828     -9180.9038      84.62093       8539.6153      341.14435      14390.632      1.3304332      0.69854341   
     44900  -9095.2968     -9179.2781      83.981274      7043.5351      338.56561      14391.378      1.3303642      0.69854341   
     45000  -9096.1762     -9181.6962      85.520047      10636.359      344.76909      14374.926      1.3318868      0.63958825   
     45100  -9097.9865     -9184.3706      86.384078      11309.416      348.25238      14349.576      1.3342397      0.63958825   
     45200  -9097.5425     -9183.1153      85.572759      9425.8615      344.98159      14315.189      1.3374448      0.63958825   
     45300  -9097.8421     -9182.8682      85.026145      10233.337      342.77795      14277.856      1.3409418      0.63958825   
     45400  -9097.9352     -9184.0895      86.154292      12138.652      347.32601      14245.521      1.3439856      0.63958825   
     45500  -9097.9417     -9182.1382      84.196449      10846.437      339.43308      14227.964      1.345644       0.63958825   
     45600  -9098.7665     -9182.5616      83.79506       12024.602      337.8149       14230.803      1.3453755      0.63958825   
     45700  -9098.1572     -9184.6659      86.508611      12259.128      348.75442      14252.982      1.343282       0.63958825   
     45800  -9097.8495     -9182.0489      84.199472      11519.856      339.44526      14284.184      1.3403478      0.63958825   
     45900  -9097.3058     -9183.6606      86.354831      10352.057      348.13447      14323.823      1.3366386      0.63958825   
     46000  -9098.4592     -9182.1815      83.722282      6629.9176      337.5215       14361.86       1.3330986      0.76204594   
     46100  -9097.235      -9182.1539      84.918962      10903.337      342.34585      14390.386      1.330456       0.76204594   
     46200  -9098.9493     -9184.038       85.088655      12082.95       343.02995      14404.541      1.3291486      0.76204594   
     46300  -9096.4958     -9179.9517      83.455885      11434.452      336.44754      14403.932      1.3292047      0.76204594   
     46400  -9097.8209     -9182.3621      84.541195      8033.4999      340.8229       14390.584      1.3304376      0.76204594   
     46500  -9096.0498     -9180.8561      84.806254      10711.364      341.89147      14361.969      1.3330884      0.76204594   
     46600  -9096.6073     -9182.3663      85.759016      9848.437       345.73248      14329.269      1.3361306      0.76204594   
     46700  -9095.8404     -9183.3391      87.498726      10395.012      352.74602      14301.334      1.3387405      0.76204594   
     46800  -9096.3724     -9182.5784      86.205936      10489.231      347.53421      14284.85       1.3402853      0.76204594   
     46900  -9095.9805     -9182.6921      86.711586      11058.339      349.57271      14274.589      1.3412487      0.76204594   
     47000  -9099.0349     -9182.7456      83.71077       12908.051      337.47509      14273.908      1.3413128      0.64935995   
     47100  -9097.4557     -9183.8015      86.34579       12413.126      348.09802      14281.965      1.3405561      0.64935995   
     47200  -9098.8689     -9181.9382      83.069293      11236.067      334.88901      14294.374      1.3393923      0.64935995   
     47300  -9099.2219     -9183.4132      84.19132       13103.908      339.4124       14306.432      1.3382634      0.64935995   
     47400  -9098.0221     -9185.0022      86.98007       8425.9725      350.65508      14314.76       1.3374848      0.64935995   
     47500  -9095.9694     -9180.6706      84.701177      8340.1124      341.46786      14320.404      1.3369577      0.64935995   
     47600  -9093.7963     -9179.0107      85.21444       7837.6675      343.53705      14324.017      1.3366205      0.64935995   
     47700  -9095.4044     -9180.8585      85.454102      6427.2915      344.50323      14331.427      1.3359294      0.64935995   
     47800  -9097.603      -9184.2597      86.656701      8793.8413      349.35144      14339.233      1.3352022      0.64935995   
     47900  -9095.6579     -9180.039       84.381113      10084.748      340.17754      14347.979      1.3343883      0.64935995   
     48000  -9098.5118     -9182.7663      84.254532      9779.7752      339.66724      14358.675      1.3333942      0.70023498   
     48100  -9099.0003     -9184.71        85.709636      8279.8751      345.5334       14364.066      1.3328938      0.70023498   
     48200  -9100.5028     -9186.2395      85.736696      9589.2028      345.64249      14357.586      1.3334954      0.70023498   
     48300  -9100.2756     -9183.2456      82.969983      12396.561      334.48865      14333.67       1.3357204      0.70023498   
     48400  -9098.8923     -9184.9954      86.103038      9214.8751      347.11938      14298.026      1.3390502      0.70023498   
     48500  -9099.9282     -9181.5034      81.575216      13282.246      328.86573      14255.732      1.3430229      0.70023498   
     48600  -9099.7333     -9184.0922      84.358924      9174.8349      340.08808      14216.796      1.3467011      0.70023498   
     48700  -9098.4179     -9183.8537      85.435803      8550.8435      344.42946      14186.227      1.349603       0.70023498   
     48800  -9098.9631     -9180.9479      81.984779      9425.3706      330.51686      14178.013      1.3503849      0.70023498   
     48900  -9099.7156     -9184.3411      84.625488      9478.5321      341.16272      14197.01       1.3485779      0.70023498   
     49000  -9098.7951     -9182.2904      83.49529       10567.612      336.6064       14235.475      1.344934       0.6139401    
     49100  -9097.7655     -9181.2281      83.462634      11165.415      336.47475      14289.288      1.3398691      0.6139401    
     49200  -9098.6503     -9181.4532      82.802943      9216.1219      333.81524      14352.742      1.3339454      0.6139401    
     49300  -9099.0778     -9182.8504      83.772526      8577.6267      337.72406      14408.807      1.3287551      0.6139401    
     49400  -9099.9922     -9182.9853      82.99313       6897.7053      334.58197      14437.952      1.3260727      0.6139401    
     49500  -9100.4179     -9184.1506      83.732739      5666.6055      337.56366      14431.856      1.3266329      0.6139401    
     49600  -9100.5349     -9181.4214      80.886508      9794.914       326.08924      14388.903      1.3305931      0.6139401    
     49700  -9101.6564     -9184.2436      82.58722       8594.8603      332.94557      14319.778      1.3370162      0.6139401    
     49800  -9100.1515     -9186.2574      86.105907      10971.991      347.13095      14241.568      1.3443586      0.6139401    
     49900  -9100.5447     -9184.2183      83.673589      10240.381      337.3252       14169.375      1.3512081      0.6139401    
     50000  -9099.6803     -9183.6929      84.01256       11044.735      338.69174      14123.179      1.3556279      0.71776126   
     50100  -9100.802      -9183.9342      83.13223       11016.316      335.14274      14109.969      1.356897       0.71776126   
     50200  -9101.1956     -9185.5737      84.378153      9932.8742      340.16561      14129.22       1.3550482      0.71776126   
     50300  -9100.967      -9184.9262      83.959223      10724.244      338.47671      14170.93       1.3510598      0.71776126   
     50400  -9101.0866     -9183.2558      82.169143      11447.584      331.26011      14226.95       1.3457399      0.71776126   
     50500  -9099.3807     -9184.254       84.873363      9665.6972      342.16202      14280.454      1.3406979      0.71776126   
     50600  -9100.9115     -9185.9639      85.052449      9329.3842      342.88399      14325.178      1.3365121      0.71776126   
     50700  -9101.0905     -9182.3858      81.295288      7253.5848      327.73721      14349.465      1.33425        0.71776126   
     50800  -9101.3047     -9184.6278      83.323088      9381.1308      335.91217      14350.496      1.3341542      0.71776126   
     50900  -9102.0524     -9184.5667      82.514325      8972.9231      332.65169      14328.24       1.3362265      0.71776126   
     51000  -9100.9936     -9182.5985      81.604892      8442.879       328.98537      14291.821      1.3396316      0.79424321   
     51100  -9101.2426     -9186.1096      84.86699       9804.8521      342.13632      14249.481      1.3436121      0.79424321   
     51200  -9100.906      -9184.7618      83.855812      13378.689      338.05982      14210.49       1.3472987      0.79424321   
     51300  -9100.1793     -9185.5533      85.373939      10089.532      344.18006      14182.472      1.3499604      0.79424321   
     51400  -9101.313      -9185.3254      84.012442      12206.169      338.69126      14167.075      1.3514275      0.79424321   
     51500  -9100.8028     -9184.6336      83.830771      9992.4924      337.95887      14167.565      1.3513807      0.79424321   
     51600  -9097.5673     -9184.0706      86.503282      12088.396      348.73294      14186.906      1.3495384      0.79424321   
     51700  -9098.7745     -9181.2991      82.524567      6102.138       332.69298      14221.614      1.3462448      0.79424321   
     51800  -9101.9856     -9183.3819      81.396219      3975.6307      328.14411      14264.228      1.342223       0.79424321   
     51900  -9102.834      -9185.4407      82.606673      6783.3953      333.02399      14300.41       1.338827       0.79424321   
     52000  -9102.6443     -9184.6235      81.979281      10416.966      330.49469      14319.659      1.3370273      0.65951076   
     52100  -9100.6705     -9185.1049      84.434384      7824.1573      340.3923       14318.551      1.3371307      0.65951076   
     52200  -9099.3691     -9182.4373      83.068224      12254.91       334.8847       14300.127      1.3388534      0.65951076   
     52300  -9100.4196     -9182.1739      81.754264      11793.696      329.58755      14272.097      1.3414829      0.65951076   
     52400  -9100.9639     -9186.0219      85.057945      9227.5151      342.90615      14238.205      1.3446761      0.65951076   
     52500  -9099.8696     -9184.4431      84.573542      10976.775      340.9533       14204.814      1.3478371      0.65951076   
     52600  -9099.6489     -9183.3754      83.726475      11862.917      337.5384       14179.148      1.3502768      0.65951076   
     52700  -9099.0789     -9185.0981      86.019165      10098.05       346.78125      14170.577      1.3510935      0.65951076   
     52800  -9099.0759     -9184.2298      85.153889      10058.371      343.29294      14180.781      1.3501213      0.65951076   
     52900  -9100.1684     -9185.5445      85.376096      11443.729      344.18875      14208.58       1.3474799      0.65951076   
     53000  -9101.115      -9184.4991      83.384084      12261.663      336.15808      14248.733      1.3436826      0.65556412   
     53100  -9101.1399     -9184.9003      83.760458      9267.5388      337.67541      14294.253      1.3394037      0.65556412   
     53200  -9103.2445     -9185.3305      82.085996      10364.213      330.92491      14333.944      1.3356948      0.65556412   
     53300  -9101.8783     -9184.066       82.187667      10704.082      331.33479      14354.848      1.3337498      0.65556412   
     53400  -9101.8828     -9184.2064      82.323579      7767.2386      331.88271      14352.296      1.3339869      0.65556412   
     53500  -9102.3024     -9184.4862      82.183874      7243.1894      331.3195       14330.291      1.3360353      0.65556412   
     53600  -9099.6545     -9182.856       83.201417      7906.3031      335.42166      14290.28       1.3397761      0.65556412   
     53700  -9100.9092     -9185.7451      84.835902      10402.557      342.011        14242.825      1.34424        0.65556412   
     53800  -9098.453      -9180.4725      82.019561      14160.488      330.65708      14198.823      1.3484058      0.65556412   
     53900  -9096.9928     -9182.5813      85.588434      10266.88       345.04478      14173.068      1.3508561      0.65556412   
     54000  -9100.164      -9184.6545      84.490449      9999.1825      340.61832      14165.366      1.3515905      0.66313831   
     54100  -9098.5766     -9181.9501      83.373455      8448.1057      336.11523      14179.747      1.3502198      0.66313831   
     54200  -9099.3451     -9184.7982      85.453053      9707.4394      344.499        14218.469      1.3465427      0.66313831   
     54300  -9098.9591     -9183.4505      84.491424      11953.898      340.62225      14277.355      1.3409889      0.66313831   
     54400  -9099.7014     -9182.3441      82.642727      10541.781      333.16934      14343.055      1.3348463      0.66313831   
     54500  -9098.9805     -9183.0171      84.03654       7702.9903      338.78842      14400.782      1.3294955      0.66313831   
     54600  -9099.682      -9182.3903      82.708322      8291.4515      333.43378      14438.636      1.3260099      0.66313831   
     54700  -9099.8646     -9183.1498      83.28529       5658.8997      335.75979      14448.94       1.3250643      0.66313831   
     54800  -9099.1575     -9184.0066      84.849101      7416.8647      342.0642       14426.523      1.3271233      0.66313831   
     54900  -9099.1673     -9182.5651      83.397877      8189.6634      336.21368      14375.335      1.3318489      0.66313831   
     55000  -9099.3742     -9184.0029      84.628741      10856.557      341.17584      14303.556      1.3385325      0.65998812   
     55100  -9099.3028     -9184.1544      84.851574      13132.213      342.07418      14223.591      1.3460577      0.65998812   
     55200  -9098.5966     -9183.5199      84.923305      14246.214      342.36335      14150.579      1.3530029      0.65998812   
     55300  -9098.092      -9181.6395      83.547514      11784.36       336.81693      14105.357      1.3573407      0.65998812   
     55400  -9097.6647     -9182.8049      85.140156      11481.346      343.23758      14101.378      1.3577237      0.65998812   
     55500  -9100.1772     -9185.9189      85.741727      8367.0333      345.66277      14132.513      1.3547325      0.65998812   
     55600  -9100.0761     -9183.7476      83.671556      8612.4076      337.317        14188.998      1.3493394      0.65998812   
     55700  -9100.6943     -9183.3164      82.622073      8803.0835      333.08607      14258.275      1.3427834      0.65998812   
     55800  -9100.2187     -9182.3982      82.179588      8218.6466      331.30222      14326.166      1.33642        0.65998812   
     55900  -9098.7706     -9185.551       86.780387      7221.5873      349.85007      14375.915      1.3317952      0.65998812   
     56000  -9099.0608     -9181.2493      82.188468      9624.5091      331.33802      14397.267      1.3298201      0.63045741   
     56100  -9099.5488     -9184.3183      84.769532      7501.9324      341.74343      14392.73       1.3302393      0.63045741   
     56200  -9098.1236     -9182.6696      84.545939      9638.79        340.84203      14365.657      1.3327462      0.63045741   
     56300  -9100.7949     -9185.2836      84.488621      7709.6841      340.61095      14321.427      1.3368622      0.63045741   
     56400  -9101.3402     -9184.4267      83.086541      8278.7861      334.95855      14266.261      1.3420317      0.63045741   
     56500  -9100.9131     -9186.3832      85.470119      14227.242      344.56781      14215.906      1.3467854      0.63045741   
     56600  -9100.5782     -9184.0709      83.492684      13387.821      336.59589      14180.424      1.3501553      0.63045741   
     56700  -9099.8475     -9184.2598      84.412274      12836.623      340.30316      14166.162      1.3515146      0.63045741   
     56800  -9098.0875     -9184.6905      86.60298       13012.259      349.13487      14176.803      1.3505002      0.63045741   
     56900  -9097.4711     -9183.3493      85.878252      14275.643      346.21317      14208.386      1.3474982      0.63045741   
     57000  -9096.4719     -9182.5656      86.093714      8952.5746      347.08179      14257.561      1.3428506      0.66701893   
     57100  -9098.6295     -9182.9956      84.366167      8384.652       340.11729      14317.274      1.33725        0.66701893   
     57200  -9098.1117     -9185.2654      87.153725      10069.251      351.35517      14371.77       1.3321793      0.66701893   
[...]
    386200  -9101.0823     -9184.5458      83.463516      8481.4109      336.4783       14294.57       1.3393739      0.63703217   
    386300  -9102.343      -9184.955       82.612011      8725.1843      333.04551      14312.326      1.3377123      0.63703217   
    386400  -9100.8267     -9183.0529      82.226229      11795.213      331.49025      14312.178      1.3377261      0.63703217   
    386500  -9100.5988     -9184.0647      83.465895      10283.026      336.48789      14301.36       1.338738       0.63703217   
    386600  -9101.2896     -9184.945       83.655384      9534.9236      337.25181      14283.536      1.3404086      0.63703217   
    386700  -9102.6862     -9184.3875      81.701276      7637.6996      329.37393      14264.271      1.342219       0.63703217   
    386800  -9102.2678     -9184.2789      82.011023      10806.72       330.62266      14247.804      1.3437702      0.63703217   
    386900  -9103.5435     -9184.1512      80.607708      12021.306      324.96528      14232.743      1.3451922      0.63703217   
    387000  -9103.1965     -9185.4339      82.237312      10653.633      331.53493      14220.088      1.3463893      0.684966     
    387100  -9101.2688     -9184.361       83.092121      11930.569      334.98105      14215.479      1.3468258      0.684966     
    387200  -9101.2397     -9184.8903      83.650643      11181.141      337.23269      14218.065      1.3465809      0.684966     
    387300  -9100.4033     -9183.9247      83.52138       13276.952      336.71157      14224.035      1.3460157      0.684966     
    387400  -9099.65       -9185.8839      86.233893      8356.0368      347.64692      14236.358      1.3448506      0.684966     
    387500  -9098.4276     -9182.7051      84.277527      9084.052       339.75994      14254.801      1.3431106      0.684966     
    387600  -9098.4984     -9182.1935      83.695072      9231.4187      337.41181      14278.857      1.3408478      0.684966     
    387700  -9097.0421     -9181.7479      84.705805      7486.1651      341.48652      14308.527      1.3380674      0.684966     
    387800  -9096.8506     -9183.9493      87.098753      11120.27       351.13355      14338.856      1.3352373      0.684966     
    387900  -9095.5593     -9180.0984      84.539159      9016.8326      340.81469      14360.642      1.3332116      0.684966     
    388000  -9096.1103     -9181.5078      85.397428      6603.209       344.27476      14374.536      1.331923       0.68523889   
    388100  -9096.1901     -9179.9271      83.737027      10799.32       337.58094      14377.692      1.3316306      0.68523889   
    388200  -9097.8424     -9184.334       86.491616      11836.39       348.68591      14369.766      1.3323651      0.68523889   
    388300  -9097.7691     -9182.1596      84.390482      10720.709      340.21531      14339.883      1.3351416      0.68523889   
    388400  -9098.3271     -9182.9848      84.657681      6449.7853      341.29251      14296.94       1.3391519      0.68523889   
    388500  -9098.9651     -9184.0138      85.048668      8385.6907      342.86875      14252.296      1.3433467      0.68523889   
    388600  -9098.6636     -9182.8313      84.167761      9781.9978      339.31742      14211.559      1.3471974      0.68523889   
    388700  -9100.6298     -9183.5917      82.961855      13367.961      334.45588      14184.387      1.3497781      0.68523889   
    388800  -9101.2359     -9184.8829      83.646996      10233.721      337.21799      14175.51       1.3506233      0.68523889   
    388900  -9103.2987     -9186.5324      83.233683      9485.7266      335.55174      14184.127      1.3498028      0.68523889   
    389000  -9106.6123     -9186.7451      80.132784      11493.026      323.05065      14208.412      1.3474958      0.71342551   
    389100  -9104.9296     -9184.136       79.206371      10104.601      319.31587      14243.465      1.3441795      0.71342551   
    389200  -9105.2646     -9185.0347      79.770107      8745.4317      321.58854      14281.204      1.3406275      0.71342551   
    389300  -9104.0746     -9187.4057      83.331159      9393.7459      335.94471      14312.568      1.3376896      0.71342551   
    389400  -9103.395      -9186.6189      83.223918      9268.2956      335.51238      14330.793      1.3359885      0.71342551   
    389500  -9103.4453     -9186.1417      82.696366      9821.6443      333.38558      14336.415      1.3354646      0.71342551   
    389600  -9101.8713     -9184.5227      82.651333      9156.5232      333.20403      14324.52       1.3365735      0.71342551   
    389700  -9099.9017     -9182.623       82.721331      10095.104      333.48622      14299.457      1.3389162      0.71342551   
    389800  -9098.5331     -9181.6573      83.124183      10222.949      335.1103       14267.632      1.3419027      0.71342551   
    389900  -9100.0145     -9183.8627      83.8482        8531.5964      338.02913      14237.72       1.3447219      0.71342551   
    390000  -9099.8606     -9184.7683      84.907786      7321.7496      342.30079      14217.288      1.3466545      0.69848046   
    390100  -9099.535      -9183.8923      84.357316      12223.199      340.0816       14210.471      1.3473005      0.69848046   
    390200  -9100.2702     -9186.248       85.977793      10473.564      346.61446      14220.636      1.3463374      0.69848046   
    390300  -9098.8839     -9185.1094      86.225494      11922.238      347.61305      14236.573      1.3448303      0.69848046   
    390400  -9098.7779     -9184.1455      85.367556      8828.2431      344.15433      14256.96       1.3429072      0.69848046   
    390500  -9097.6236     -9182.0418      84.418214      10518.394      340.32711      14281.047      1.3406423      0.69848046   
    390600  -9098.8474     -9183.245       84.397514      8682.8737      340.24366      14303.83       1.3385068      0.69848046   
    390700  -9100.3797     -9183.7916      83.411888      12176.581      336.27017      14317.635      1.3372163      0.69848046   
    390800  -9100.6707     -9184.6873      84.01653       11999.199      338.70774      14321.887      1.3368193      0.69848046   
    390900  -9099.438      -9183.0926      83.65459       9015.773       337.24861      14317.446      1.337234       0.69848046   
    391000  -9100.0893     -9182.984       82.894694      9092.5528      334.18513      14302.637      1.3386186      0.7239148    
    391100  -9101.3851     -9185.8101      84.425038      8020.315       340.35462      14281.008      1.3406459      0.7239148    
    391200  -9101.4087     -9184.1267      82.717946      11174.75       333.47258      14255.248      1.3430685      0.7239148    
    391300  -9102.3879     -9183.2252      80.837293      8567.7968      325.89084      14233.662      1.3451053      0.7239148    
    391400  -9102.9425     -9185.6545      82.711934      7751.3585      333.44834      14218.871      1.3465046      0.7239148    
    391500  -9101.8241     -9184.0138      82.189692      12823.195      331.34296      14212.505      1.3471077      0.7239148    
    391600  -9100.0911     -9181.6166      81.525511      12814.116      328.66535      14219.8        1.3464166      0.7239148    
    391700  -9099.3676     -9184.0539      84.686315      12209.381      341.40795      14245.348      1.3440019      0.7239148    
    391800  -9098.8637     -9185.0935      86.229759      11887.784      347.63025      14279.965      1.3407438      0.7239148    
    391900  -9097.9938     -9181.7722      83.778445      13128.401      337.74792      14313.578      1.3375953      0.7239148    
    392000  -9098.1327     -9182.5324      84.399699      11376.685      340.25247      14342.59       1.3348896      0.67633822   
    392100  -9098.6514     -9183.2791      84.627685      8702.1039      341.17158      14359.031      1.3333612      0.67633822   
    392200  -9097.6063     -9181.9481      84.341808      7227.8313      340.01908      14365.401      1.3327699      0.67633822   
    392300  -9097.5336     -9180.9962      83.462582      12019.224      336.47453      14361.843      1.3331001      0.67633822   
    392400  -9098.8003     -9182.9082      84.107892      10228.799      339.07606      14349.801      1.3342188      0.67633822   
    392500  -9096.5163     -9183.5245      87.008186      9337.1215      350.76843      14327.888      1.3362594      0.67633822   
    392600  -9097.6954     -9183.5817      85.886268      10508.973      346.24548      14301.954      1.3386825      0.67633822   
    392700  -9095.1893     -9181.492       86.302785      13732.437      347.92465      14281.814      1.3405702      0.67633822   
    392800  -9095.7762     -9180.9674      85.191201      10262.836      343.44336      14270.043      1.341676       0.67633822   
    392900  -9095.6842     -9182.0539      86.369653      9496.8582      348.19422      14274.053      1.3412991      0.67633822   
    393000  -9095.5383     -9181.8523      86.314026      9429.4552      347.96997      14290.076      1.3397952      0.65458949   
    393100  -9099.7118     -9181.5668      81.855033      10964.421      329.99379      14311.394      1.3377995      0.65458949   
    393200  -9098.3852     -9183.5386      85.153371      9481.0928      343.29085      14332.932      1.3357891      0.65458949   
    393300  -9096.8104     -9181.5749      84.764414      8505.4863      341.7228       14349.83       1.3342162      0.65458949   
    393400  -9096.363      -9183.3942      87.031122      9447.2526      350.86089      14363.516      1.3329449      0.65458949   
    393500  -9097.7107     -9182.8629      85.152157      7738.0199      343.28596      14370.809      1.3322684      0.65458949   
    393600  -9096.4408     -9179.988       83.547179      10051.216      336.81558      14370.494      1.3322976      0.65458949   
    393700  -9094.5609     -9179.5034      84.942411      9725.3149      342.44038      14367.849      1.3325429      0.65458949   
    393800  -9095.2976     -9182.4601      87.162471      10805.499      351.39042      14363.431      1.3329527      0.65458949   
    393900  -9094.2836     -9180.6847      86.401081      8108.7448      348.32092      14353.876      1.33384        0.65458949   
    394000  -9092.723      -9180.3265      87.603538      11395.887      353.16856      14343.613      1.3347944      0.64584015   
    394100  -9092.9644     -9178.5272      85.562794      12410.964      344.94142      14335.759      1.3355257      0.64584015   
    394200  -9094.0868     -9180.8288      86.742013      10678.892      349.69537      14334.24       1.3356673      0.64584015   
    394300  -9094.7863     -9180.1912      85.404928      13070.538      344.30499      14335.692      1.335532       0.64584015   
    394400  -9092.3021     -9177.7512      85.449112      10637.946      344.48311      14338.695      1.3352523      0.64584015   
    394500  -9094.5835     -9180.4084      85.824953      7631.8503      345.9983       14348.551      1.3343351      0.64584015   
    394600  -9094.9267     -9180.8595      85.932807      10016.06       346.4331       14362.194      1.3330675      0.64584015   
    394700  -9095.4601     -9182.513       87.052864      10767.153      350.94855      14374.951      1.3318845      0.64584015   
    394800  -9096.1936     -9181.7634      85.56977       11673.765      344.96954      14378.002      1.3316019      0.64584015   
    394900  -9096.7657     -9180.2932      83.527496      12483.691      336.73623      14372.371      1.3321236      0.64584015   
    395000  -9097.6096     -9180.7328      83.123181      9032.5477      335.10626      14360.298      1.3332436      0.62806561   
    395100  -9096.8861     -9181.4366      84.550563      6873.5356      340.86067      14341.437      1.334997       0.62806561   
    395200  -9097.849      -9182.9762      85.127218      10256.166      343.18542      14318.006      1.3371816      0.62806561   
    395300  -9097.5422     -9181.536       83.993813      11707.718      338.61616      14296.405      1.339202       0.62806561   
    395400  -9099.304      -9182.3159      83.011819      9136.1165      334.65731      14278.159      1.3409134      0.62806561   
    395500  -9099.4465     -9183.7382      84.291749      10105.041      339.81727      14265.321      1.3421202      0.62806561   
    395600  -9100.5175     -9184.2745      83.757017      10368.36       337.66153      14263.077      1.3423313      0.62806561   
    395700  -9100.009      -9183.1145      83.105487      12012.197      335.03493      14270.258      1.3416558      0.62806561   
    395800  -9100.787      -9185.5134      84.726398      8372.6926      341.56954      14287.249      1.3400603      0.62806561   
    395900  -9102.8806     -9186.0403      83.159727      10971.842      335.25359      14304.269      1.3384658      0.62806561   
    396000  -9101.5094     -9182.9886      81.479147      11477.613      328.47843      14319.828      1.3370115      0.70856114   
    396100  -9100.2212     -9182.9014      82.680178      9738.8998      333.32032      14334.452      1.3356475      0.70856114   
    396200  -9100.0197     -9184.2508      84.231063      10484.508      339.57262      14346.553      1.3345209      0.70856114   
    396300  -9100.0753     -9182.9946      82.91926       9106.9883      334.28416      14355.276      1.3337099      0.70856114   
    396400  -9097.5177     -9181.7619      84.244107      11698.827      339.62521      14360.861      1.3331913      0.70856114   
    396500  -9096.1053     -9181.6407      85.535412      10824.505      344.83103      14360.17       1.3332554      0.70856114   
    396600  -9096.2025     -9181.3121      85.10954       9258.3079      343.11415      14354.655      1.3337676      0.70856114   
    396700  -9095.8613     -9180.9395      85.078156      9148.2933      342.98763      14345.827      1.3345884      0.70856114   
    396800  -9096.9904     -9181.8972      84.906848      9467.7137      342.29701      14337.963      1.3353204      0.70856114   
    396900  -9097.4172     -9182.5673      85.15005       9463.8016      343.27747      14328.457      1.3362063      0.70856114   
    397000  -9098.6463     -9181.9581      83.311727      11775.173      335.86637      14314.483      1.3375107      0.66374299   
    397100  -9096.8705     -9183.0847      86.214225      10096.893      347.56762      14298.281      1.3390264      0.66374299   
    397200  -9099.593      -9183.6258      84.032846      9474.4481      338.77352      14283.876      1.3403767      0.66374299   
    397300  -9100.0484     -9183.9451      83.896688      8194.5017      338.22461      14272.725      1.3414239      0.66374299   
    397400  -9098.4472     -9183.4521      85.004853      8266.7282      342.69211      14262.948      1.3423434      0.66374299   
    397500  -9099.093      -9183.6516      84.558572      9698.813       340.89296      14257.254      1.3428796      0.66374299   
    397600  -9100.3586     -9186.8307      86.472118      9523.3226      348.60731      14257.884      1.3428202      0.66374299   
    397700  -9099.6576     -9182.5876      82.929984      9604.2255      334.3274       14264.771      1.3421719      0.66374299   
    397800  -9097.5329     -9182.1456      84.61274       6982.618       341.11133      14277.369      1.3409875      0.66374299   
    397900  -9096.5873     -9182.8988      86.311519      10480.934      347.95986      14294.221      1.3394066      0.66374299   
    398000  -9097.2445     -9182.8501      85.605576      10306.706      345.11389      14315.709      1.3373962      0.68171418   
    398100  -9097.0815     -9182.9758      85.894299      7492.9768      346.27786      14343.659      1.3347902      0.68171418   
    398200  -9100.5359     -9185.2046      84.668773      7931.1152      341.33722      14364.654      1.3328392      0.68171418   
    398300  -9103.3543     -9187.7214      84.36704       9562.3893      340.1208       14366.618      1.332657       0.68171418   
    398400  -9101.9655     -9183.2821      81.316669      9419.8704      327.82341      14344.209      1.3347389      0.68171418   
    398500  -9101.7851     -9186.0803      84.295239      11445.076      339.83134      14308.731      1.3380484      0.68171418   
    398600  -9102.883      -9184.1441      81.261069      10092.481      327.59926      14269.216      1.3417538      0.68171418   
    398700  -9100.0385     -9185.1082      85.069682      10129.795      342.95346      14231.776      1.3452835      0.68171418   
    398800  -9101.3562     -9181.7717      80.41557       9809.4504      324.19068      14208.85       1.3474542      0.68171418   
    398900  -9100.5195     -9183.4638      82.944328      8871.8082      334.38522      14206.71       1.3476572      0.68171418   
    399000  -9097.9684     -9181.7136      83.745172      10421.605      337.61378      14218.387      1.3465504      0.66335046   
    399100  -9097.1137     -9181.3595      84.245768      10612.005      339.63191      14243.694      1.3441579      0.66335046   
    399200  -9096.369      -9182.8404      86.471356      9333.3441      348.60423      14276.555      1.341064       0.66335046   
    399300  -9094.8805     -9179.9819      85.101428      9787.5143      343.08145      14312.487      1.3376973      0.66335046   
    399400  -9096.7477     -9182.0234      85.275735      10378.088      343.78416      14350.101      1.3341909      0.66335046   
    399500  -9098.3421     -9182.5037      84.161517      9276.9058      339.29225      14378.544      1.3315517      0.66335046   
    399600  -9095.1294     -9179.7935      84.664067      10904.763      341.31825      14390.105      1.3304819      0.66335046   
    399700  -9096.4137     -9181.7072      85.293496      12658.819      343.85576      14384.66       1.3309856      0.66335046   
    399800  -9097.3557     -9183.4944      86.138636      9644.5819      347.26289      14361.913      1.3330936      0.66335046   
    399900  -9099.3751     -9183.55        84.174821      8385.7518      339.34589      14323.976      1.3366243      0.66335046   
    400000  -9098.1773     -9182.2726      84.095283      10373.408      339.02523      14281.413      1.3406079      0.6441442    
    400100  -9096.6908     -9180.8074      84.116621      12164.02       339.11126      14244.99       1.3440357      0.6441442    
    400200  -9096.8151     -9182.8721      86.056943      10274.824      346.93355      14223.683      1.346049       0.6441442    
    400296  -9097.4523     -9183.2801      85.827776      14017.031      346.00968      14215.136      1.3468584      0.6441442    
Loop time of 546.415 on 4 procs for 200000 steps with 1920 atoms

Performance: 15.812 ns/day, 1.518 hours/ns, 366.022 timesteps/s, 702.762 katom-step/s
99.5% CPU use with 4 MPI tasks x 1 OpenMP threads

MPI task timing breakdown:
Section |  min time  |  avg time  |  max time  |%varavg| %total
---------------------------------------------------------------
Pair    | 269.08     | 274.15     | 278.13     |  20.6 | 50.17
Neigh   | 7.9315     | 8.0156     | 8.106      |   3.0 |  1.47
Comm    | 66.445     | 71.057     | 77.573     |  55.8 | 13.00
Output  | 0.31018    | 0.31637    | 0.32389    |   0.9 |  0.06
Modify  | 189.01     | 190.45     | 192.78     |  11.4 | 34.85
Other   |            | 2.428      |            |       |  0.44

Nlocal:            480 ave         490 max         471 min
Histogram: 1 0 1 0 0 0 1 0 0 1
Nghost:         2663.5 ave        2677 max        2651 min
Histogram: 1 1 0 0 0 0 0 0 1 1
Neighs:              0 ave           0 max           0 min
Histogram: 4 0 0 0 0 0 0 0 0 0
FullNghs:      75917.5 ave       77898 max       74003 min
Histogram: 1 0 1 0 0 0 0 1 0 1

Total # of neighbors = 303670
Ave neighs/atom = 158.16146
Neighbor list builds = 20000
Dangerous builds = 20000
Total wall time: 0:18:15
