ITEM: TIMESTEP
2000
ITEM: NUMBER OF ATOMS
2160
ITEM: BOX BOUNDS pp pp pp
-2.8129423702781803e-01 1.9946361047027878e+01
-2.8075453869451472e-01 1.9945821288694479e+01
-5.6724540612995589e-01 3.3300800356129940e+01
ITEM: ATOMS id type element x y z
2 1 H 0.0368224 0.305583 -0.365603
3 1 H 3.05004 2.86803 0.0990796
9 1 H 0.791684 2.42858 0.755548
10 1 H 1.81865 1.43081 1.6056
1445 2 O 1.12994 1.43634 0.932427
1444 2 O 19.5334 3.69221 2.83851
17 1 H 3.67041 0.270072 0.411833
20 1 H 5.95414 2.29721 0.0292489
25 1 H 4.6033 2.42208 1.53417
26 1 H 5.14278 0.921499 1.76304
1453 2 O 4.79883 1.56795 1.16745
482 1 H 6.94868 -0.13396 -0.411323
483 1 H 9.0267 2.56408 -0.130708
489 1 H 7.7578 2.18125 1.66097
490 1 H 7.98463 0.671527 1.23146
1685 2 O 8.26657 1.59445 1.0018
1691 2 O 6.57029 0.103455 2.96327
1849 2 O 9.73353 19.9024 33.2254
1692 2 O 9.91373 2.94039 2.59882
497 1 H 10.3682 0.321378 -0.139578
500 1 H 12.4427 2.76777 -0.294566
505 1 H 10.8432 1.92982 1.38361
506 1 H 11.6812 0.705387 1.68616
1693 2 O 11.3847 1.23719 0.966104
1746 2 O 9.72997 2.86657 32.9499
1931 2 O 12.9678 19.9352 2.42999
962 1 H 13.391 0.740685 -0.523634
963 1 H 15.7023 3.69433 -0.0795511
969 1 H 13.785 2.10661 1.34366
970 1 H 14.7456 1.09641 0.901959
1925 2 O 14.2088 1.79126 0.536609
1986 2 O 16.5045 3.58383 33.2289
1690 2 O 12.6501 3.1296 32.7696
977 1 H 16.8775 0.631473 0.0892581
980 1 H 19.5997 3.18801 0.346391
985 1 H 17.2376 2.0787 1.66491
986 1 H 18.3195 1.09444 1.19874
1933 2 O 17.9047 1.87693 0.934905
22 1 H -0.125711 6.55848 1.56895
24 1 H 2.47517 4.14124 1.99088
27 1 H 1.80173 5.7699 0.480882
28 1 H 0.528861 4.9145 0.956187
1454 2 O 1.27071 5.46667 1.23414
129 1 H 0.164754 7.60379 33.198
5 1 H 3.57535 5.99975 2.45726
7 1 H 6.13894 3.80475 2.30017
11 1 H 5.21855 5.24509 -0.2728
12 1 H 4.209 4.53016 0.513551
1446 2 O 5.06551 4.98237 0.672292
1506 2 O 2.76902 3.71895 -0.392139
1449 2 O 3.09075 6.44137 33.2297
1450 2 O 6.36827 2.86257 33.1595
1684 2 O 6.72469 3.20175 2.79668
502 1 H 6.3854 5.8139 2.20245
504 1 H 9.43893 3.40166 1.82692
507 1 H 7.74593 5.27367 0.707786
508 1 H 7.54386 3.84429 0.203998
1694 2 O 8.01542 4.3965 0.891879
485 1 H 10.0207 5.88951 1.74619
487 1 H 12.375 3.68547 2.14857
491 1 H 11.778 5.18162 0.511607
492 1 H 10.6405 4.32057 0.381214
1686 2 O 11.1729 4.70474 1.07134
1924 2 O 13.0141 3.05235 2.53553
982 1 H 13.7104 5.54843 2.55603
984 1 H 14.6627 3.70563 2.93379
987 1 H 14.6602 5.57726 0.563423
988 1 H 13.6379 4.83517 -0.228177
1934 2 O 14.1391 4.81996 0.628297
1745 2 O 13.1356 6.86375 33.0825
965 1 H 16.6181 6.29773 1.55457
967 1 H 19.3375 2.82391 3.34116
971 1 H 17.5604 4.6715 -0.0554203
972 1 H 18.4072 5.29764 1.26191
1926 2 O 17.8556 5.4844 0.531726
1985 2 O 19.9155 6.78845 32.9379
162 1 H 19.0343 6.70729 -0.464202
163 1 H 2.79476 9.60999 -0.271404
169 1 H 1.2502 9.6638 1.41951
170 1 H 1.76426 8.0327 1.78439
1525 2 O 1.55741 8.80024 1.08523
1523 2 O 3.1902 6.90749 2.67137
177 1 H 3.68993 6.97602 -0.111374
180 1 H 6.00588 9.7539 -0.0716958
185 1 H 4.21202 8.68536 1.22872
186 1 H 5.26012 7.59113 1.26544
1533 2 O 4.95899 8.33506 0.732352
1505 2 O 6.6679 6.36579 33.1638
642 1 H 7.41916 6.94409 -0.623845
643 1 H 9.34126 10.7768 -0.0537095
649 1 H 9.02257 9.05877 0.802705
650 1 H 8.5105 7.70384 1.56568
1765 2 O 8.22819 8.39033 0.895389
1771 2 O 6.50592 6.75065 2.60342
1826 2 O 10.0073 10.037 -0.454501
657 1 H 10.5668 7.10074 33.1342
660 1 H 12.4952 9.31775 -0.441238
665 1 H 10.9574 9.19621 1.58877
666 1 H 12.0713 8.13711 1.61538
1773 2 O 11.6103 8.69196 1.06567
2004 2 O 13.1921 10.0247 3.03479
1122 1 H 13.7507 7.30765 -0.0774471
1123 1 H 15.1787 9.34904 33.1774
1129 1 H 14.3965 9.14344 1.49984
1130 1 H 14.7764 7.6512 1.90657
2005 2 O 14.3842 8.17945 1.22043
1929 2 O 15.9465 6.70623 32.8113
1137 1 H 16.7994 6.85949 33.3024
1140 1 H 19.7964 9.35169 0.390319
1145 1 H 17.1118 8.7293 0.626255
1146 1 H 18.3787 8.07818 1.65775
2013 2 O 18.0638 8.68408 0.889814
182 1 H 0.442032 12.7115 2.91045
184 1 H 2.94405 10.3257 2.31627
187 1 H 2.20433 12.1905 0.505948
188 1 H 1.03267 11.2397 0.320933
1534 2 O 1.79152 11.4809 0.873855
1586 2 O 3.48961 9.94419 33.0396
1603 2 O 3.35214 13.3597 2.68161
1529 2 O 2.81752 13.0686 33.1769
165 1 H 3.96561 12.8154 2.13349
167 1 H 5.84795 9.95967 3.02196
171 1 H 5.255 12.2775 0.832486
172 1 H 4.41563 11.1842 0.532401
1526 2 O 4.80234 11.6912 1.34407
1585 2 O 6.55164 13.464 -0.583838
662 1 H 7.10113 12.7124 2.46153
664 1 H 8.70817 9.87185 2.51377
667 1 H 8.54979 12.4272 0.715847
668 1 H 7.40144 11.3803 1.02242
1774 2 O 8.32336 11.68 1.25007
1530 2 O 6.31999 10.308 33.1523
645 1 H 10.1112 12.6167 2.42165
647 1 H 12.7853 10.1609 2.19333
651 1 H 12.3351 12.2175 -0.2082
652 1 H 11.5051 11.0307 0.0573005
1766 2 O 11.7846 11.8384 0.481608
1142 1 H 12.135 12.7309 1.96854
1144 1 H 15.7581 10.1116 2.19203
1147 1 H 15.1232 11.794 0.279218
1148 1 H 13.8261 11.0379 0.097888
2014 2 O 14.4935 11.2361 0.769536
2009 2 O 16.0371 13.0362 33.1542
2091 2 O 12.9605 13.1097 2.42703
2066 2 O 16.1407 9.64895 32.9412
1125 1 H 16.5512 12.7838 1.7267
1127 1 H 19.3249 10.7519 2.1918
1131 1 H 18.8029 12.1032 0.560004
1132 1 H 18.1315 10.668 0.272529
2006 2 O 17.9799 11.6367 0.567775
2065 2 O -0.131477 13.2731 -0.384355
2010 2 O 19.8964 10.1756 -0.229728
322 1 H 0.377618 13.6494 0.472403
323 1 H 2.67994 15.757 -0.282704
329 1 H 1.01207 15.3825 1.86853
330 1 H 2.05578 14.1434 1.85287
1605 2 O 1.37221 14.6598 1.28771
1666 2 O 3.29023 16.3712 33.1623
337 1 H 3.34574 13.7462 -0.0420659
340 1 H 7.02769 15.8199 32.5378
345 1 H 5.20134 14.7399 0.000848627
346 1 H 5.81921 14.7291 1.38722
1613 2 O 4.94254 14.9718 0.937848
1851 2 O 6.57854 13.5474 2.66351
802 1 H 7.225 14.198 -0.235005
803 1 H 9.61655 15.9983 -0.656367
809 1 H 7.33361 15.8886 1.55736
810 1 H 8.4407 14.8621 1.50903
1845 2 O 8.07688 15.4977 0.906091
1610 2 O 6.35755 16.3129 32.9436
817 1 H 10.6367 14.2644 33.1749
820 1 H 13.2574 16.0424 33.1569
825 1 H 11.7645 16.3004 0.609748
826 1 H 10.7968 15.0838 1.27911
1853 2 O 11.4901 15.3407 0.539691
1850 2 O 13.2428 16.9758 32.9831
1282 1 H 13.7125 13.9665 -0.430116
1283 1 H 15.6585 15.6987 -0.201074
1289 1 H 13.9108 15.4419 1.53177
1290 1 H 14.867 14.0514 1.09394
2085 2 O 14.3344 14.8752 0.818412
1297 1 H 16.9529 12.7792 -0.152984
1300 1 H -0.253175 15.566 -0.332716
1305 1 H 18.8797 15.2794 1.64608
1306 1 H 18.9364 13.9873 2.08032
2093 2 O 18.548 14.4419 1.35489
342 1 H 18.8883 19.2856 2.205
344 1 H 3.56436 16.0135 2.60158
347 1 H 0.698829 18.812 0.599623
348 1 H 2.19457 18.0631 0.880155
1614 2 O 1.23954 17.9553 0.76835
325 1 H 3.09852 19.7593 2.6131
327 1 H 6.35829 17.6607 2.47969
331 1 H 5.41046 18.2675 0.56218
332 1 H 4.13741 17.4729 0.810297
1606 2 O 4.68379 18.1409 1.26555
1609 2 O 3.25307 19.9278 -0.336654
1683 2 O 9.81202 -0.275499 2.95032
822 1 H 7.25391 19.6764 2.50507
824 1 H 9.34238 16.7676 2.13715
827 1 H 8.8188 18.876 0.29174
828 1 H 7.98185 17.6945 1.02999
1854 2 O 8.19044 18.6095 0.938328
1905 2 O 13.5175 -0.107521 32.8403
805 1 H 9.8198 19.895 1.90205
807 1 H 12.4214 17.3271 1.9351
811 1 H 11.9496 18.4344 0.418322
812 1 H 10.657 17.7367 0.133999
1846 2 O 11.1872 18.1479 0.959347
1302 1 H 13.7144 19.3473 2.0234
1304 1 H 15.5572 16.7983 1.90615
1307 1 H 15.4231 19.2117 0.436374
1308 1 H 14.4946 17.9819 0.332682
2094 2 O 14.949 18.4257 1.03488
2146 2 O 16.2739 16.2257 33.0435
1285 1 H 16.7695 -0.333444 2.20347
1287 1 H 18.6364 17.1406 2.55137
1291 1 H 18.6845 17.3912 0.631269
1292 1 H 17.1291 17.6334 0.619443
2086 2 O 17.8757 17.9265 1.29993
2145 2 O 19.6363 19.7706 -0.441503
2090 2 O 19.7147 16.4601 -0.488457
18 1 H 2.29974 0.940283 5.67107
19 1 H -0.0319191 2.83687 5.74613
29 1 H 1.46551 2.54556 3.64642
30 1 H 0.502201 1.34286 3.58365
1455 2 O 1.04837 1.80258 4.17107
1442 2 O 2.98032 3.99349 6.29603
1451 2 O 19.1632 -0.00857643 2.14108
1443 2 O 2.69299 0.457956 2.83849
6 1 H 2.95838 0.483845 3.69896
8 1 H 6.13647 2.71708 3.42419
13 1 H 4.28852 2.89779 5.1869
14 1 H 5.1446 1.66644 5.27469
1447 2 O 4.71552 2.21761 4.65822
498 1 H 9.4343 0.428365 5.51932
499 1 H 7.02327 2.34446 6.30988
509 1 H 8.68611 2.09162 3.83559
510 1 H 7.53903 1.27142 4.04003
1695 2 O 8.20255 1.7105 4.57566
486 1 H 10.6884 0.0479186 3.11812
488 1 H 12.4315 2.39669 3.13676
493 1 H 11.1681 2.05598 5.03963
494 1 H 12.088 0.876262 4.92795
1687 2 O 11.6109 1.55848 4.34628
1682 2 O 10.226 3.17792 6.25166
978 1 H 15.5886 0.369309 6.0147
979 1 H 13.6112 2.69544 5.43434
989 1 H 14.862 2.12073 3.66519
990 1 H 14.0267 0.808017 3.81138
1935 2 O 14.5434 1.4195 4.39875
1922 2 O 16.3675 2.88638 6.26333
2105 2 O 16.3685 -0.191389 6.38198
1932 2 O 15.5896 3.7716 2.67131
966 1 H 16.5704 0.702446 3.5545
968 1 H 18.6606 3.85159 2.54618
973 1 H 17.8245 2.28894 4.93531
974 1 H 18.3315 0.908321 5.10116
1927 2 O 18.1414 1.53582 4.37441
2081 2 O 19.6638 -0.224124 6.15874
1 1 H 19.9635 7.47141 5.46995
4 1 H 2.31277 4.47846 5.70389
15 1 H 0.466261 5.98223 5.33683
16 1 H 1.37992 5.82848 4.08085
1448 2 O 0.913817 5.22225 4.66964
1452 2 O 3.05638 3.58552 2.51282
21 1 H 5.60797 6.71989 3.14044
23 1 H 3.71473 4.22385 2.87433
31 1 H 4.0949 5.05643 4.81565
32 1 H 5.5623 4.47838 4.38905
1456 2 O 4.80758 5.07718 4.09177
481 1 H 7.14937 5.69095 5.44995
484 1 H 9.62732 3.48518 5.47059
495 1 H 7.74237 4.25593 3.8459
496 1 H 8.73912 5.41703 3.87137
1688 2 O 8.28283 4.85237 4.52535
1763 2 O 9.50211 6.57685 2.20648
501 1 H 12.4082 5.69262 3.52577
503 1 H 10.5841 3.63858 2.87443
511 1 H 10.8492 5.14626 4.64745
512 1 H 12.0369 4.11281 4.82349
1696 2 O 11.4883 4.60693 4.14886
1705 2 O 9.54638 6.50192 5.95112
961 1 H 13.5389 5.70198 5.80294
964 1 H 16.3735 3.68965 5.69936
975 1 H 14.8806 5.55315 4.16824
976 1 H 16.1658 5.83864 5.21013
1928 2 O 15.3547 5.29729 4.95555
981 1 H 20.0521 6.20449 3.01548
983 1 H 16.0228 4.27545 3.34019
991 1 H 17.7125 5.45064 5.41694
992 1 H 18.9441 4.50088 5.26299
1936 2 O 18.056 4.87595 4.7323
1946 2 O 19.5668 3.5318 6.16205
178 1 H 2.1907 6.87411 5.36279
179 1 H 19.5219 9.13831 6.88637
189 1 H 1.92347 9.05154 4.06645
190 1 H 0.76977 8.2111 3.44712
1535 2 O 1.23315 8.40717 4.26781
1532 2 O 3.26741 9.9659 3.26307
166 1 H 3.84417 7.34097 3.30069
168 1 H 6.6171 8.68604 2.91835
173 1 H 4.27087 8.58104 4.87814
174 1 H 5.42966 7.38557 4.91366
1527 2 O 4.97493 8.02516 4.35601
658 1 H 8.92107 6.88067 5.21736
659 1 H 6.56941 9.80308 5.59927
669 1 H 8.17394 8.98952 5.57255
670 1 H 8.53305 8.71668 4.09367
1775 2 O 8.00083 8.23109 4.69131
1772 2 O 9.74055 9.76164 2.75374
646 1 H 10.1507 7.03215 2.75832
648 1 H 12.4033 10.12 3.65204
653 1 H 10.7971 8.41222 4.84915
654 1 H 12.2268 8.09311 4.49772
1767 2 O 11.3393 7.70477 4.28002
1762 2 O 9.41367 10.0515 6.30713
2011 2 O 13.2222 6.22774 3.14174
2003 2 O 16.0783 6.4933 2.28727
1138 1 H 15.9053 7.89774 5.42962
1139 1 H 13.7848 9.50449 5.77561
1149 1 H 14.5644 8.87883 3.969
1150 1 H 13.8255 7.64966 4.3411
2015 2 O 14.6403 8.09397 4.48212
1531 2 O 19.7484 7.0214 2.38769
2012 2 O 16.1179 9.86044 3.07719
1524 2 O 19.8958 10.3638 2.87795
1126 1 H 16.7581 6.43758 3.11415
1128 1 H 19.2328 9.60267 3.19716
1133 1 H 17.338 8.71901 3.21302
1134 1 H 17.776 8.2758 4.66868
2007 2 O 18.1021 8.73773 3.83792
161 1 H -0.0417339 12.3817 5.76386
164 1 H 2.47676 10.2352 5.76076
175 1 H 0.335753 10.9066 4.43818
176 1 H 1.93913 11.3555 4.2027
1528 2 O 1.162 11.4518 4.83898
181 1 H 5.76477 13.1399 3.13275
183 1 H 3.77445 10.6694 3.70154
191 1 H 4.32045 12.3543 4.81921
192 1 H 5.52476 11.3329 5.26761
1536 2 O 5.01366 11.8038 4.42031
1764 2 O 6.82353 9.67459 2.87597
641 1 H 6.71855 13.1877 5.18352
644 1 H 8.81458 10.7763 5.94894
655 1 H 7.3413 11.3242 3.95125
656 1 H 8.69065 12.0255 3.88187
1768 2 O 7.93931 11.6983 4.55056
661 1 H 13.6571 12.7277 1.83005
663 1 H 10.0562 10.4764 3.27977
671 1 H 12.1016 11.4722 4.35409
672 1 H 11.0478 11.2156 5.44625
1776 2 O 11.2117 11.6075 4.57971
1843 2 O 9.6457 13.4053 2.58978
2083 2 O 16.2805 13.5104 2.32934
1121 1 H 13.6113 12.4773 5.59827
1124 1 H 15.7505 10.7655 5.80719
1135 1 H 14.0517 11.6318 3.91291
1136 1 H 15.1926 12.5492 3.92916
2008 2 O 14.7421 12.0245 4.60259
1141 1 H 19.2567 12.4992 3.41456
1143 1 H 16.6427 10.5938 3.42329
1151 1 H 17.5776 11.9777 5.05325
1152 1 H 18.1704 10.6633 4.80856
2016 2 O 17.9601 11.5535 4.32602
1604 2 O 19.4583 16.6081 2.85925
338 1 H 2.46217 13.6844 5.64196
339 1 H 0.0845776 16.4903 5.34468
349 1 H 1.72487 15.3526 3.9244
350 1 H 0.343963 14.629 4.11476
1615 2 O 1.03502 15.1556 4.59694
326 1 H 3.99623 13.8945 3.23373
328 1 H 6.05891 16.1751 3.03397
333 1 H 4.43696 16.2473 5.02546
334 1 H 5.59555 14.8034 5.01016
1607 2 O 4.9082 15.4682 4.44857
818 1 H 9.09086 13.8977 6.18585
819 1 H 6.83173 16.4515 5.37428
829 1 H 8.58924 15.6997 3.99432
830 1 H 7.70092 14.5606 3.70855
1855 2 O 8.01883 15.1037 4.53901
1852 2 O 9.82595 16.2576 2.84795
806 1 H 10.087 13.9146 3.31358
808 1 H 12.3472 16.5733 3.32451
813 1 H 10.72 15.1408 4.95741
814 1 H 11.3884 13.7882 5.21355
1847 2 O 11.2988 14.5061 4.4455
1866 2 O 13.2735 16.6951 6.22496
2084 2 O 13.0013 16.9621 2.76915
2092 2 O 15.7664 16.8184 2.88081
1298 1 H 16.0742 13.9298 5.73938
1299 1 H 13.2638 15.9911 5.53997
1309 1 H 15.0387 15.4079 4.38629
1310 1 H 13.8644 14.6153 3.81853
2095 2 O 14.3613 14.8034 4.73322
2082 2 O 16.1557 16.51 5.68111
1611 2 O -0.251141 13.1525 3.34459
1286 1 H 16.9435 14.311 2.30143
1288 1 H 19.1248 15.9559 3.62067
1293 1 H 17.433 15.2445 4.79977
1294 1 H 18.4319 14.173 5.02965
2087 2 O 18.0922 14.7775 4.34804
1612 2 O 2.90634 16.4467 3.09116
321 1 H 0.187509 19.6233 5.7028
324 1 H 2.02388 17.6723 5.48549
335 1 H 0.71312 18.3771 3.34429
336 1 H 1.46887 19.5979 3.81072
1608 2 O 0.975263 18.8445 4.23982
341 1 H 5.91925 19.7187 3.31485
343 1 H 3.20668 17.138 3.73598
351 1 H 4.31248 19.1056 4.82424
352 1 H 5.50892 18.0722 4.78084
1616 2 O 4.99565 18.678 4.2466
1844 2 O 6.73638 16.8286 2.60696
801 1 H 6.80658 19.2769 6.02978
804 1 H 9.17665 16.8692 5.59096
815 1 H 7.61255 18.3723 4.25018
816 1 H 8.9894 18.9002 3.98199
1848 2 O 8.42614 18.4892 4.68681
1865 2 O 10.0504 -0.0493467 6.15032
821 1 H 12.5222 19.2134 2.8735
823 1 H 10.228 16.9163 3.34827
831 1 H 11.0043 19.2284 5.10823
832 1 H 11.9852 18.0333 5.39797
1856 2 O 11.4093 18.4119 4.73676
1841 2 O 13.134 19.9069 6.21018
1923 2 O 16.189 0.277901 2.76448
1281 1 H 13.7926 19.3515 5.7242
1284 1 H 16.1484 17.3242 5.21653
1295 1 H 14.517 18.019 3.76729
1296 1 H 15.1964 19.2765 3.78838
2088 2 O 14.5658 18.8496 4.34111
1301 1 H 18.9569 0.410349 2.9876
1303 1 H 16.7742 16.8429 2.84329
1311 1 H 17.5704 19.3156 4.93694
1312 1 H 18.067 17.7786 4.84099
2096 2 O 17.5627 18.4913 4.39749
34 1 H -0.148936 0.609003 6.12139
35 1 H 2.41874 3.11022 6.49183
41 1 H 0.964245 2.89137 8.25908
42 1 H 1.32393 1.3072 8.51087
1461 2 O 1.37519 2.05978 7.88884
1459 2 O 2.78963 -0.0857089 9.87968
1601 2 O 6.35746 -0.167054 6.40007
49 1 H 3.50269 0.739858 6.68307
52 1 H 5.98216 3.39983 6.47041
57 1 H 4.40444 2.1449 8.38076
58 1 H 5.25141 1.08271 7.57674
1469 2 O 4.59428 1.78659 7.46212
514 1 H 7.05722 0.339057 6.80969
515 1 H 9.70268 2.47099 6.82831
521 1 H 7.88842 2.22211 8.7345
522 1 H 8.88318 0.959747 8.6158
1701 2 O 8.3724 1.54731 8.01486
1707 2 O 6.46749 -0.0823535 9.52048
529 1 H 10.4614 0.702477 6.78478
532 1 H 12.6824 2.84502 6.59784
537 1 H 11.1037 1.89202 8.63725
538 1 H 12.2213 0.826148 8.09621
1709 2 O 11.6953 1.57671 7.75439
994 1 H 13.5044 0.636158 6.21441
995 1 H 15.5773 2.68106 6.83437
1001 1 H 14.243 2.47868 8.4894
1002 1 H 14.9973 1.32045 8.32413
1941 2 O 14.4625 1.9457 7.75651
1939 2 O 16.2545 -0.076198 9.66685
1947 2 O 13.2516 -0.00882016 9.3696
1009 1 H 16.7669 0.606839 6.79418
1012 1 H 18.9794 2.96682 6.70023
1017 1 H 17.5372 2.44397 8.12647
1018 1 H 18.7241 1.46537 8.53642
1949 2 O 18.2417 1.79039 7.78901
1467 2 O 19.8215 19.9093 9.665
54 1 H -0.0966967 6.04929 8.7086
56 1 H 2.88546 3.97257 8.79841
59 1 H 1.80359 5.64994 7.72065
60 1 H 0.464765 4.87531 7.56389
1470 2 O 1.10087 5.1877 8.23419
1466 2 O 6.89494 3.25487 6.59467
37 1 H 3.57653 6.04672 8.78659
39 1 H 6.10144 3.6297 9.03085
43 1 H 5.76554 5.81818 7.4474
44 1 H 4.8719 4.57646 7.41055
1462 2 O 4.96642 5.45642 7.89366
1468 2 O 3.60681 3.36037 9.29262
1700 2 O 6.48777 2.99968 9.57756
534 1 H 7.0096 6.51034 9.0063
536 1 H 9.48949 3.82984 8.93665
539 1 H 9.00225 5.5256 7.41801
540 1 H 8.36135 4.37301 7.2162
1710 2 O 8.54736 4.96366 7.97309
1706 2 O 13.1662 3.40868 5.95063
1940 2 O 12.9233 3.22177 9.52039
517 1 H 9.50382 6.27393 9.05668
519 1 H 12.4968 3.79367 8.82541
523 1 H 12.1296 5.7678 7.12554
524 1 H 10.9402 4.52819 6.93861
1702 2 O 11.6415 4.96096 7.50731
1779 2 O 9.44114 7.08338 9.65995
1708 2 O 9.8691 3.2278 9.66362
1014 1 H 13.485 5.80422 9.15234
1016 1 H 15.5988 3.92394 8.92434
1019 1 H 15.0425 5.17097 6.96014
1020 1 H 14.0471 4.37106 7.13899
1950 2 O 14.6848 4.83187 7.76104
1948 2 O 16.3049 3.34214 9.30186
1460 2 O 19.7187 3.56365 9.57587
997 1 H 16.8448 6.28623 9.3497
999 1 H 18.9037 4.11665 9.45815
1003 1 H 18.5551 5.83823 7.55466
1004 1 H 17.52 4.68249 7.47635
1942 2 O 17.6397 5.63419 7.50906
194 1 H 0.56329 7.53656 6.7898
195 1 H 2.97648 9.08633 6.687
201 1 H 0.541117 8.50626 8.56882
202 1 H 1.93618 7.59596 8.31495
1541 2 O 1.3152 8.28549 7.99612
1540 2 O 19.6324 9.85762 9.76098
1539 2 O 2.83311 6.71849 9.10969
1465 2 O 2.80969 6.78602 6.02349
1441 2 O 6.43735 6.26173 6.09773
209 1 H 3.66367 7.04735 5.66992
212 1 H 5.57113 9.62266 6.5484
217 1 H 4.57206 7.62791 7.77715
218 1 H 5.83633 8.59517 8.04859
1549 2 O 5.31895 8.32314 7.34027
1787 2 O 6.46312 6.6171 9.74148
674 1 H 7.00221 6.93391 6.61191
675 1 H 8.87888 9.65741 7.08201
681 1 H 8.31154 7.40453 8.47541
682 1 H 8.66159 7.37183 6.9838
1781 2 O 8.17669 7.95804 7.73985
1788 2 O 9.66026 10.2006 9.06658
689 1 H 10.2943 7.00565 5.61105
692 1 H 12.3813 9.06938 6.60134
697 1 H 10.8334 8.26955 8.24793
698 1 H 12.1245 7.41202 8.001
1789 2 O 11.5768 8.19315 7.70667
1681 2 O 13.014 6.515 6.22073
1154 1 H 13.7275 7.2109 6.59828
1155 1 H 15.6311 10.1465 7.2031
1161 1 H 14.1513 8.76435 8.37041
1162 1 H 14.4902 7.43024 8.89881
2021 2 O 14.4568 7.88636 8.04399
1945 2 O 16.7549 7.35043 5.6492
1921 2 O -0.0912963 6.9152 6.22021
1169 1 H 17.043 7.65353 6.45843
1172 1 H 19.0882 10.6395 6.7905
1177 1 H 17.1491 8.61879 8.37154
1178 1 H 18.4968 7.65746 8.1426
2029 2 O 18.0024 8.42956 7.85066
2026 2 O 19.8311 9.99391 6.60803
214 1 H 0.0939413 12.6065 8.72684
216 1 H 2.67175 9.88526 8.54358
219 1 H 1.613 12.0132 7.09566
220 1 H 0.861705 10.7295 7.56156
1550 2 O 1.25718 11.5508 7.8193
1627 2 O 19.6782 13.3029 9.32405
1522 2 O 3.30149 9.81296 6.093
197 1 H 3.55308 12.7235 8.95645
199 1 H 5.68291 10.3541 9.22023
203 1 H 5.24075 12.6471 7.37523
204 1 H 4.296 11.4908 7.24819
1542 2 O 4.73967 12.0837 7.88449
1619 2 O 2.82815 13.1975 9.47748
1546 2 O 6.02136 10.3483 6.09121
694 1 H 7.16597 13.0848 9.01268
696 1 H 9.05105 10.9787 8.82047
699 1 H 8.30146 12.3341 6.98094
700 1 H 7.24148 11.4959 7.53007
1790 2 O 8.03552 11.9454 7.78989
1780 2 O 6.40031 9.93197 9.49121
677 1 H 10.4921 12.6914 9.5209
679 1 H 12.4999 10.7742 9.21145
683 1 H 11.9568 11.8439 7.27014
684 1 H 10.5122 11.0856 7.66333
1782 2 O 11.186 11.8953 7.97671
1786 2 O 12.8791 9.72823 6.03945
2025 2 O 16.3291 13.3069 6.39935
1174 1 H 13.7611 13.3911 9.52029
1176 1 H 15.276 10.4617 9.06662
1179 1 H 15.1876 12.3862 7.63407
1180 1 H 13.775 12.0774 7.71164
2030 2 O 14.6443 11.7425 8.12204
2002 2 O 16.1464 10.0897 6.37249
1157 1 H 16.5653 12.7323 9.22862
1159 1 H 19.0599 10.4815 9.31669
1163 1 H 18.3284 12.1233 7.28551
1164 1 H 17.22 11.1038 7.20334
2022 2 O 17.9115 11.3626 7.8191
2001 2 O 19.4937 13.1449 6.08556
354 1 H 0.0752936 13.5981 6.57754
355 1 H 2.44119 16.3673 6.3152
361 1 H 0.914412 15.2765 7.70467
362 1 H 2.33124 14.4962 8.09405
1621 2 O 1.59647 14.516 7.45814
1602 2 O 2.7819 17.1447 5.77196
1545 2 O 3.35855 13.4654 5.68354
369 1 H 3.6647 14.349 5.94425
372 1 H 6.15741 16.7375 6.77526
377 1 H 4.28517 16.0251 7.75373
378 1 H 5.08385 14.6588 7.82067
1629 2 O 4.92137 15.4623 7.27755
1521 2 O 6.24361 13.7772 5.78536
834 1 H 6.85502 14.273 6.40447
835 1 H 9.1679 16.031 6.88063
841 1 H 7.47225 15.285 8.59541
842 1 H 9.03827 14.6351 8.3274
1861 2 O 8.21858 15.0462 7.91437
1867 2 O 6.62308 13.592 9.72253
1859 2 O 9.9223 13.4114 9.87943
1785 2 O 9.61163 13.0657 6.23446
1761 2 O 12.9091 12.7329 6.30153
849 1 H 10.0734 13.4141 7.1034
852 1 H 13.1904 16.2357 7.09659
857 1 H 10.9983 15.1215 8.53186
858 1 H 11.9455 13.9374 8.18461
1869 2 O 11.5643 14.8173 7.81121
1842 2 O 9.85099 16.5631 6.30619
1314 1 H 12.9486 13.6496 6.48078
1315 1 H 15.2083 16.3834 5.75012
1321 1 H 14.1756 15.7736 9.00533
1322 1 H 15.4457 14.5828 8.63682
2101 2 O 14.5784 15.0295 8.36451
1329 1 H 16.8504 13.9026 7.02316
1332 1 H 19.3198 16.38 6.44233
1337 1 H 17.5345 15.7453 8.60143
1338 1 H 18.4579 14.3941 8.18272
2109 2 O 17.8615 15.0646 7.84351
374 1 H 0.201669 19.3824 9.11738
376 1 H 2.23426 17.0545 8.73957
379 1 H 1.77676 19.095 7.65095
380 1 H 0.619434 17.945 7.22588
1630 2 O 1.211 18.3933 7.95813
1628 2 O 2.87682 16.6365 9.29343
1626 2 O 6.7703 17.1405 6.05505
1625 2 O 3.04864 0.280108 5.89079
357 1 H 3.29219 19.6909 9.13283
359 1 H 6.00477 17.3803 8.83156
363 1 H 5.07672 19.3524 7.45304
364 1 H 3.92063 18.1962 7.3706
1622 2 O 4.35773 18.8716 7.98614
1860 2 O 6.48764 16.6012 9.2395
854 1 H 7.16338 19.6519 9.15329
856 1 H 8.96748 17.0101 9.27177
859 1 H 9.2301 19.1331 7.43467
860 1 H 8.2123 18.1086 7.31544
1870 2 O 8.51245 18.6886 7.94788
837 1 H 10.0946 19.7286 9.18998
839 1 H 12.4968 16.7251 9.33458
843 1 H 12.1583 18.8894 7.4267
844 1 H 11.403 17.4828 7.49056
1862 2 O 11.788 18.2256 7.98986
1699 2 O 9.51506 -0.0360863 9.78435
1334 1 H 13.8413 19.7619 8.65769
1336 1 H 16.1824 16.9163 8.88817
1339 1 H 15.5731 18.5243 7.75301
1340 1 H 14.2278 18.004 7.25845
2110 2 O 14.7441 18.1525 8.04925
2106 2 O 19.8741 17.0431 5.99249
1620 2 O -0.199782 16.3657 9.67037
1317 1 H 16.7586 19.5831 9.01211
1319 1 H 19.5377 16.6965 8.96901
1323 1 H 18.0362 18.9398 7.16554
1324 1 H 17.3201 17.6874 7.65666
2102 2 O 17.888 18.4298 7.99419
50 1 H 2.70961 0.483017 12.1486
51 1 H 0.136079 2.7478 12.0861
61 1 H 1.59954 2.24875 10.3957
62 1 H 0.698488 0.977006 10.5215
1471 2 O 1.1732 1.68297 11.0395
1458 2 O 3.06286 3.06308 12.6387
38 1 H 3.39188 0.693101 9.98098
40 1 H 5.73228 2.54129 10.0779
45 1 H 4.20413 2.08812 11.7648
46 1 H 5.36603 1.14957 11.8158
1463 2 O 4.67912 1.49546 11.1649
1641 2 O 3.21564 -0.168512 12.7097
530 1 H 9.32487 0.589725 12.4518
531 1 H 6.99738 2.57623 11.8969
541 1 H 8.74245 2.19768 10.9751
542 1 H 7.53698 0.943978 10.7626
1711 2 O 8.1577 1.44099 11.3439
1617 2 O 6.5639 -0.186652 12.8661
518 1 H 10.1487 0.523926 10.338
520 1 H 12.28 2.66626 10.005
525 1 H 10.9253 1.94399 11.7564
526 1 H 12.0995 0.853279 11.6869
1703 2 O 11.4169 1.35912 11.1639
1857 2 O 13.1798 -0.277129 12.6528
1010 1 H 16.0001 0.400272 12.29
1011 1 H 14.0103 2.53263 12.3817
1021 1 H 15.5648 1.61325 10.7014
1022 1 H 14.3697 0.879929 10.7558
1951 2 O 14.8544 1.46648 11.3293
998 1 H 16.9339 0.435899 10.2508
1000 1 H 19.4257 2.8797 10.0644
1005 1 H 17.432 2.03808 11.95
1006 1 H 18.4417 0.844321 11.7402
1943 2 O 17.996 1.56516 11.2662
33 1 H 0.331468 6.11077 12.5063
36 1 H 2.66479 3.84909 12.1064
47 1 H 0.576365 4.4202 11.1333
48 1 H 1.64476 5.45746 10.555
1464 2 O 1.43287 4.89865 11.3566
53 1 H 5.6802 5.94995 9.60379
55 1 H 4.00428 4.01963 10.0531
63 1 H 4.46693 5.44001 11.8915
64 1 H 5.60401 4.32108 11.5315
1472 2 O 4.76103 4.85979 11.1336
1481 2 O 3.39218 6.44142 12.8454
1482 2 O 6.57021 3.28531 12.5171
513 1 H 7.22313 5.85077 12.4937
516 1 H 9.18086 3.82963 12.1322
527 1 H 7.70238 4.74548 10.4299
528 1 H 8.72529 5.68169 11.0203
1704 2 O 8.29264 4.77374 11.2551
533 1 H 12.4677 5.6991 10.385
535 1 H 10.3014 3.94258 10.2088
543 1 H 10.8334 5.2637 11.8224
544 1 H 11.8399 4.06703 12.1812
1712 2 O 11.5492 4.68288 11.4446
1697 2 O 12.8401 6.45226 12.8624
1698 2 O 9.86778 3.18194 12.618
993 1 H 13.5399 5.78233 12.4871
996 1 H 15.8954 3.74313 12.1679
1007 1 H 14.1269 4.54281 10.6673
1008 1 H 15.4221 5.50742 10.8965
1944 2 O 14.7194 4.86354 11.433
2027 2 O 12.8208 6.34721 9.71125
1938 2 O 16.5132 3.17608 12.7557
1722 2 O 13.3722 3.11956 12.902
1013 1 H 19.371 5.92461 10.0819
1015 1 H 16.8282 4.01812 9.77209
1023 1 H 17.3727 5.59831 11.9237
1024 1 H 18.5594 4.36301 11.7773
1952 2 O 18.0285 5.13629 11.3759
1962 2 O 19.7605 3.30909 12.6933
210 1 H 2.64733 6.92223 12.308
211 1 H 0.3795 9.42626 12.8245
221 1 H 2.37392 8.70714 11.0465
222 1 H 0.886708 7.98862 10.7222
1551 2 O 1.63659 8.08009 11.3521
1548 2 O 3.08453 9.60293 9.46182
198 1 H 3.43546 7.31909 9.69284
200 1 H 6.10584 9.17182 10.0959
205 1 H 4.33891 8.92529 11.8248
206 1 H 5.58668 7.8074 11.5907
1543 2 O 4.89523 8.40193 11.1017
1538 2 O 3.22105 9.69803 12.7857
1721 2 O 9.66334 6.48516 12.7331
690 1 H 9.06948 7.19774 12.3958
691 1 H 7.05511 9.33589 12.2898
701 1 H 8.59158 8.8021 10.9131
702 1 H 7.68949 7.49765 11.0288
1791 2 O 7.96844 8.33868 11.4983
2020 2 O 13.1585 10.1941 9.59321
678 1 H 10.1846 7.3283 10.264
680 1 H 12.7181 9.47415 10.0949
685 1 H 11.0381 8.67368 11.7509
686 1 H 11.9512 7.4658 11.7193
1783 2 O 11.5072 8.07691 11.0948
2019 2 O 16.2147 6.77176 9.80771
1961 2 O 16.3508 6.57327 12.9491
2028 2 O 15.9041 9.84658 9.7259
1170 1 H 15.7765 7.36767 12.6654
1171 1 H 13.5199 8.94003 12.6695
1181 1 H 15.012 8.93436 10.8081
1182 1 H 14.1972 7.63218 10.8521
2031 2 O 14.7083 8.239 11.4134
1547 2 O 19.7222 6.61884 9.40976
1158 1 H 16.7278 7.24143 10.4905
1160 1 H 19.091 9.13442 10.1123
1165 1 H 17.9091 8.69143 11.9969
1166 1 H 19.0085 7.57121 11.8363
2023 2 O 18.4328 8.20564 11.3129
193 1 H 0.131248 12.4107 12.0482
196 1 H 2.71937 10.3091 12.3087
207 1 H 0.845552 10.8013 10.7016
208 1 H 1.78221 12.1059 10.5444
1544 2 O 1.38325 11.4901 11.2014
1561 2 O 3.0687 13.0395 12.739
213 1 H 6.02311 12.7956 9.97894
215 1 H 3.8691 10.2611 9.62654
223 1 H 4.3256 12.1114 11.5889
224 1 H 5.37475 11.0132 11.7584
1552 2 O 4.93192 11.5516 11.033
673 1 H 6.92411 12.816 12.3374
676 1 H 9.27676 10.3523 12.5362
687 1 H 7.60279 11.1028 10.8627
688 1 H 8.42 12.318 10.8529
1784 2 O 8.27151 11.5389 11.4555
1562 2 O 6.62866 9.9738 12.9717
693 1 H 13.0273 12.4117 10.2665
695 1 H 10.366 10.4903 9.62275
703 1 H 10.8231 11.9048 11.7964
704 1 H 11.9656 10.7948 12.0752
1792 2 O 11.5586 11.4416 11.3948
2107 2 O 12.9607 13.3109 10.0128
2099 2 O 16.2349 13.2971 9.96396
1153 1 H 13.7589 12.7384 12.6792
1156 1 H 15.7812 10.3897 12.4091
1167 1 H 14.089 11.0336 10.8432
1168 1 H 15.2241 12.1772 10.8724
2024 2 O 14.6926 11.5796 11.4253
1173 1 H 19.0838 12.8634 10.0973
1175 1 H 16.4449 10.504 10.224
1183 1 H 17.5754 12.089 11.9032
1184 1 H 18.6413 11.0215 11.7334
2032 2 O 18.0958 11.6019 11.1399
2017 2 O 19.8557 13.1213 12.5871
370 1 H 2.53928 13.5411 11.9831
371 1 H 0.294793 16.1393 12.0928
381 1 H 1.65188 15.5087 10.3499
382 1 H 0.911005 14.1915 10.4337
1631 2 O 1.35295 14.8447 11.0697
358 1 H 3.32707 13.7513 10.1847
360 1 H 5.88444 16.2968 9.91299
365 1 H 4.24786 15.6189 11.6106
366 1 H 5.46869 14.4453 11.8453
1623 2 O 4.80994 14.8621 11.1732
850 1 H 9.12352 14.1024 12.3844
851 1 H 7.10135 16.2207 12.3768
861 1 H 8.49023 15.3876 10.8939
862 1 H 7.32583 14.4134 10.7835
1871 2 O 7.94507 14.8745 11.5125
1801 2 O 9.81545 13.4193 12.8222
838 1 H 10.4097 13.8336 10.603
840 1 H 12.4449 15.8964 10.5082
845 1 H 10.9665 15.4958 11.7273
846 1 H 12.0429 14.2586 11.9344
1863 2 O 11.5669 14.9088 11.3358
1858 2 O 9.99305 16.5579 12.9783
2100 2 O 13.0757 16.4406 10.0212
2108 2 O 16.616 16.4743 9.64913
1330 1 H 15.9685 13.8204 12.6086
1331 1 H 13.86 16.0662 12.5519
1341 1 H 15.237 15.4995 10.909
1342 1 H 14.1156 14.3197 11.1504
2111 2 O 14.7776 14.9291 11.5806
1318 1 H 16.9164 13.895 10.2967
1320 1 H 19.8007 15.4218 9.64522
1325 1 H 17.6468 15.1435 11.8866
1326 1 H 18.8713 14.1962 11.7445
2103 2 O 18.1703 14.692 11.2034
353 1 H 0.18258 19.4343 12.5136
356 1 H 2.49438 17.3195 12.0411
367 1 H 0.606444 18.4109 10.7913
368 1 H 2.00469 19.2763 10.9449
1624 2 O 1.41381 18.5269 11.3461
2122 2 O -0.228522 16.6298 12.7581
1618 2 O 3.14396 16.6048 12.3858
373 1 H 5.94649 19.4488 10.0801
375 1 H 3.3034 17.439 9.68133
383 1 H 4.29907 18.886 11.5022
384 1 H 5.46127 17.8778 11.5524
1632 2 O 4.99747 18.5009 10.9737
1868 2 O 9.6516 16.331 9.42542
833 1 H 7.22873 19.4792 12.4086
836 1 H 9.40142 17.0033 12.2972
847 1 H 7.51363 17.7962 10.5724
848 1 H 8.60688 18.9874 10.8492
1864 2 O 8.15356 18.2176 11.2842
853 1 H 12.9693 19.4068 9.88465
855 1 H 10.217 16.6699 10.1266
863 1 H 10.974 18.8462 11.739
864 1 H 12.1351 17.8212 11.731
1872 2 O 11.4743 18.2455 11.1652
2121 2 O 16.3892 19.9219 12.9075
1882 2 O 13.2409 16.7941 12.8424
1313 1 H 13.668 19.3136 12.1391
1316 1 H 15.7806 17.0414 12.3621
1327 1 H 14.3145 17.8396 10.5436
1328 1 H 15.5278 18.7592 10.6152
2104 2 O 14.8523 18.3242 11.2788
1333 1 H 19.2453 19.3365 10.1512
1335 1 H 17.1983 17.0814 10.144
1343 1 H 17.621 18.4919 11.8325
1344 1 H 18.8344 17.3899 11.7503
2112 2 O 18.3495 18.0941 11.2287
66 1 H 0.150558 0.38985 13.6349
67 1 H 2.38239 2.48295 13.0833
73 1 H 0.80895 2.0908 14.9767
74 1 H 2.03979 1.05082 14.849
1477 2 O 1.3255 1.53759 14.3064
1475 2 O 2.85177 -0.0157753 16.0117
1483 2 O -0.245929 0.053718 16.3639
1484 2 O 2.81866 2.99129 16.2533
81 1 H 3.73016 0.290558 13.3374
84 1 H 5.90132 2.87609 13.1674
89 1 H 4.096 1.85902 15.0157
90 1 H 5.35038 1.0346 14.9908
1485 2 O 4.77055 1.5422 14.3655
1723 2 O 6.48962 -0.152755 16.2585
1881 2 O 9.75129 -0.100845 12.9943
546 1 H 7.16919 0.312172 13.5671
547 1 H 9.27177 2.6215 13.1453
553 1 H 7.39759 2.01554 15.1593
554 1 H 8.62031 0.940433 15.1154
1717 2 O 7.91686 1.30512 14.601
1716 2 O 6.50077 3.03427 16.2925
1724 2 O 9.62279 2.87126 16.098
561 1 H 10.4908 0.357308 13.5439
564 1 H 12.8245 2.40274 13.3058
569 1 H 10.7381 1.70729 14.9543
570 1 H 12.1048 0.925547 15.1838
1725 2 O 11.4742 1.31327 14.4827
1956 2 O 12.9793 3.03343 16.2022
1963 2 O 13.0727 0.00505389 16.2246
1026 1 H 13.7817 0.189803 13.2153
1027 1 H 15.93 2.65776 13.463
1033 1 H 14.2158 2.07572 15.0021
1034 1 H 15.529 1.09362 15.0794
1957 2 O 14.9319 1.58092 14.4334
2097 2 O 19.8203 -0.276837 13.0394
1041 1 H 16.9442 0.24296 13.4462
1044 1 H 19.2893 2.61381 13.2841