LAMMPS (27 Jun 2024)
KOKKOS mode with Kokkos version 4.3.1 is enabled (src/KOKKOS/kokkos.cpp:72)
  will use up to 1 GPU(s) per node
WARNING: When using a single thread, the Kokkos Serial backend (i.e. Makefile.kokkos_mpi_only) gives better performance than the OpenMP backend (src/KOKKOS/kokkos.cpp:202)
  using 1 OpenMP thread(s) per MPI task
package kokkos
package kokkos newton on neigh half

units		metal						## E in [eV], t in [ps], P in [10000 Pa], l in [A]
atom_style	atomic						## mass x y z vx vy vz

neighbor	0.5 bin						## neighbor list, skin = 0.5 Angstrom
neigh_modify	every 2 delay 10 check yes			## update of neighbor list

############################## main variables
variable        seed equal 50518

variable	temperature equal 405
variable	tempDamp equal 0.1

variable        pressure equal 28000
variable        pressureDamp equal 1.0 				# This is 1 ps

##############################

read_data water.dat
Reading data file ...
  orthogonal box = (0 0 0) to (19.665067 19.665067 19.640133)
  1 by 1 by 1 MPI processor grid
  reading atoms ...
  1296 atoms
  read_data CPU = 0.150 seconds

mass		1 1.008    # H
mass		2 15.9994  # O


pair_style	pace/extrapolation
ACE/AL version: 2023.11.25
pair_coeff	* * /pc2/users/a/acepdw01/work/phase_diagram/pot_dir/interim_potential_ladder_step_1.yaml /pc2/users/a/acepdw01/work/phase_diagram/pot_dir/interim_potential_ladder_step_1.asi H O
Loading /pc2/users/a/acepdw01/work/phase_diagram/pot_dir/interim_potential_ladder_step_1.yaml
Total number of basis functions
	H: 23 (r=1) 664 (r>1)
	O: 23 (r=1) 664 (r>1)
Mapping LAMMPS atom type #1(H) -> ACE species type #0
Mapping LAMMPS atom type #2(O) -> ACE species type #1
Loading ASI /pc2/users/a/acepdw01/work/phase_diagram/pot_dir/interim_potential_ladder_step_1.asi
LINEAR ASI is loaded

fix pace_gamma all pair 1000 pace/extrapolation gamma 1
compute max_pace_gamma all reduce max f_pace_gamma
variable dump_skip equal "c_max_pace_gamma < 10"

dump pace_dump all custom 1000 extrapolative_structures.dump id type x y z f_pace_gamma
dump_modify pace_dump skip v_dump_skip
dump_modify pace_dump element H O

variable max_pace_gamma equal c_max_pace_gamma

timestep	0.0005						## timestep = 0.0005*ps = 0.5 fs

thermo		100
thermo_style custom step etotal pe ke press temp vol density c_max_pace_gamma


min_style cg
minimize 0.0 5.0e-4 10000 100000

CITE-CITE-CITE-CITE-CITE-CITE-CITE-CITE-CITE-CITE-CITE-CITE-CITE

Your simulation uses code contributions which should be cited:

- Type Label Framework: https://doi.org/10.1021/acs.jpcb.3c08419

@Article{Gissinger24,
 author = {Jacob R. Gissinger, Ilia Nikiforov, Yaser Afshar, Brendon Waters, Moon-ki Choi, Daniel S. Karls, Alexander Stukowski, Wonpil Im, Hendrik Heinz, Axel Kohlmeyer, and Ellad B. Tadmor},
 title = {Type Label Framework for Bonded Force Fields in LAMMPS},
 journal = {J. Phys. Chem. B},
 year =    2024,
 volume =  128,
 number =  13,
 pages =   {3282–-3297}
}

CITE-CITE-CITE-CITE-CITE-CITE-CITE-CITE-CITE-CITE-CITE-CITE-CITE

Switching to 'neigh_modify every 1 delay 0 check yes' setting during minimization
Neighbor list info ...
  update: every = 1 steps, delay = 0 steps, check = yes
  max neighbors/atom: 2000, page size: 100000
  master list distance cutoff = 6.5
  ghost atom cutoff = 6.5
  binsize = 6.5, bins = 4 4 4
  1 neighbor lists, perpetual/occasional/extra = 1 0 0
  (1) pair pace/extrapolation/kk, perpetual
      attributes: full, newton on, kokkos_device
      pair build: full/bin/kk/device
      stencil: full/bin/3d
      bin: kk/device
WARNING: Fix with atom-based arrays not compatible with sending data in Kokkos communication, switching to classic exchange/border communication (src/KOKKOS/comm_kokkos.cpp:754)
WARNING: Fix with atom-based arrays not compatible with Kokkos sorting on device, switching to classic host sorting (src/KOKKOS/atom_kokkos.cpp:216)
Per MPI rank memory allocation (min/avg/max) = 1123 | 1123 | 1123 Mbytes
   Step         TotEng         PotEng         KinEng         Press           Temp          Volume        Density     c_max_pace_gamma
         0  -6250.4972     -6250.4972      0              21939.986      0              7595.1311      1.7015372      0.62320149   
        33  -6250.6452     -6250.6452      0              22350.057      0              7595.1311      1.7015372      0.62320149   
Loop time of 0.262116 on 1 procs for 33 steps with 1296 atoms

99.8% CPU use with 1 MPI tasks x 1 OpenMP threads

Minimization stats:
  Stopping criterion = force tolerance
  Energy initial, next-to-last, final = 
     -6250.49717465847  -6250.64523648355  -6250.64523648875
  Force two-norm initial, final = 0.82052426 0.0003006328
  Force max component initial, final = 0.040662504 1.1270972e-05
  Final line search alpha, max atom move = 1 1.1270972e-05
  Iterations, force evaluations = 33 66

MPI task timing breakdown:
Section |  min time  |  avg time  |  max time  |%varavg| %total
---------------------------------------------------------------
Pair    | 0.23611    | 0.23611    | 0.23611    |   0.0 | 90.08
Neigh   | 0          | 0          | 0          |   0.0 |  0.00
Comm    | 0.0016134  | 0.0016134  | 0.0016134  |   0.0 |  0.62
Output  | 0          | 0          | 0          |   0.0 |  0.00
Modify  | 0.014426   | 0.014426   | 0.014426   |   0.0 |  5.50
Other   |            | 0.009967   |            |       |  3.80

Nlocal:           1296 ave        1296 max        1296 min
Histogram: 1 0 0 0 0 0 0 0 0 0
Nghost:           4514 ave        4514 max        4514 min
Histogram: 1 0 0 0 0 0 0 0 0 0
Neighs:              0 ave           0 max           0 min
Histogram: 1 0 0 0 0 0 0 0 0 0
FullNghs:       251424 ave      251424 max      251424 min
Histogram: 1 0 0 0 0 0 0 0 0 0

Total # of neighbors = 251424
Ave neighs/atom = 194
Neighbor list builds = 0
Dangerous builds = 0

################## equilibration of main calculation

fix             3 all nph aniso ${pressure} ${pressure} ${pressureDamp}
fix             3 all nph aniso 28000 ${pressure} ${pressureDamp}
fix             3 all nph aniso 28000 28000 ${pressureDamp}
fix             3 all nph aniso 28000 28000 1
fix             4 all temp/csvr ${temperature} ${temperature} ${tempDamp} ${seed}
fix             4 all temp/csvr 405 ${temperature} ${tempDamp} ${seed}
fix             4 all temp/csvr 405 405 ${tempDamp} ${seed}
fix             4 all temp/csvr 405 405 0.1 ${seed}
fix             4 all temp/csvr 405 405 0.1 50518
velocity 	all create ${temperature} ${seed} dist gaussian
velocity 	all create 405 ${seed} dist gaussian
velocity 	all create 405 50518 dist gaussian

run 20000
WARNING: Fix with atom-based arrays not compatible with Kokkos sorting on device, switching to classic host sorting (src/KOKKOS/atom_kokkos.cpp:216)
Per MPI rank memory allocation (min/avg/max) = 1123 | 1123 | 1123 Mbytes
   Step         TotEng         PotEng         KinEng         Press           Temp          Volume        Density     c_max_pace_gamma
        33  -6182.8515     -6250.6452      67.793715      31884.015      405            7595.1311      1.7015372      0.62320149   
       100  -6172.3875     -6199.9928      27.60537       38925.041      164.91462      7602.8687      1.6998055      0.62320149   
       200  -6160.8739     -6204.8508      43.976844      37337.718      262.71789      7670.9199      1.684726       0.62320149   
       300  -6155.8909     -6203.4419      47.551019      33687.625      284.07003      7791.5093      1.6586514      0.62320149   
       400  -6148.911      -6199.705       50.794017      27665.304      303.44372      7929.3719      1.6298136      0.62320149   
       500  -6146.1136     -6198.3656      52.252005      25802.167      312.15375      8046.8773      1.606014       0.62320149   
       600  -6139.7382     -6194.6883      54.950082      23900.675      328.27207      8124.2515      1.5907186      0.62320149   
       700  -6137.1364     -6197.5647      60.428277      20493.095      360.99884      8166.0124      1.5825837      0.62320149   
       800  -6132.2404     -6193.9557      61.715302      22392.59       368.68753      8176.2399      1.580604       0.62320149   
       900  -6129.5971     -6191.1081      61.510949      20578.99       367.46673      8164.8234      1.5828141      0.62320149   
      1000  -6125.8653     -6190.6389      64.773591      25165.168      386.95777      8140.9914      1.5874477      0.83842529   
      1100  -6122.7034     -6186.3148      63.611443      26133.481      380.01509      8112.0178      1.5931175      0.83842529   
      1200  -6118.8336     -6184.5782      65.744536      28368.365      392.7582       8089.4242      1.5975671      0.83842529   
      1300  -6117.184      -6184.387       67.202909      27402.296      401.47053      8081.9218      1.5990501      0.83842529   
      1400  -6117.3649     -6185.2504      67.885509      27254.144      405.54838      8089.0663      1.5976378      0.83842529   
      1500  -6115.5153     -6183.0595      67.544157      27673.76       403.50914      8108.6303      1.5937831      0.83842529   
      1600  -6115.6228     -6183.3383      67.715504      29685.282      404.53277      8139.5748      1.587724       0.83842529   
      1700  -6117.9217     -6184.2217      66.299973      28974.319      396.07638      8174.3982      1.5809602      0.83842529   
      1800  -6115.946      -6183.5883      67.642242      27377.826      404.0951       8205.4663      1.5749742      0.83842529   
      1900  -6116.1846     -6181.7336      65.548981      28898.154      391.58995      8227.2433      1.5708054      0.83842529   
      2000  -6118.273      -6184.8607      66.587765      25847.863      397.79565      8235.54        1.5692229      0.89542066   
      2100  -6120.6452     -6186.2974      65.652264      30097.344      392.20697      8225.2872      1.5711789      0.89542066   
      2200  -6117.4737     -6185.741       68.267296      26308.777      407.82918      8197.8456      1.5764383      0.89542066   
      2300  -6117.5139     -6185.3078      67.793845      28003.408      405.00078      8161.2433      1.5835085      0.89542066   
      2400  -6118.7319     -6184.9427      66.21078       28911.328      395.54354      8122.9972      1.5909642      0.89542066   
      2500  -6116.9564     -6185.8671      68.910665      30326.85       411.67266      8092.516       1.5969567      0.89542066   
      2600  -6115.0834     -6182.1386      67.055171      35220.586      400.58793      8078.4902      1.5997294      0.89542066   
      2700  -6115.496      -6184.5863      69.090301      31384.048      412.74582      8087.2508      1.5979964      0.89542066   
      2800  -6117.1328     -6182.747       65.614263      31071.16       391.97994      8116.6575      1.5922069      0.89542066   
      2900  -6116.464      -6186.1138      69.649852      25309.531      416.08858      8158.4557      1.5840495      0.89542066   
      3000  -6117.1026     -6183.041       65.938417      27641.277      393.91644      8202.8444      1.5754776      0.86833248   
      3100  -6118.3668     -6182.9139      64.547018      25362.951      385.60422      8241.5029      1.5680875      0.86833248   
      3200  -6118.2855     -6187.1883      68.902871      23255.314      411.62611      8267.72        1.5631151      0.86833248   
      3300  -6118.177      -6184.9217      66.744649      25965.534      398.73288      8273.0052      1.5621165      0.86833248   
      3400  -6115.8974     -6182.9322      67.034742      22547.864      400.46589      8257.5109      1.5650476      0.86833248   
      3500  -6116.1959     -6182.2545      66.058581      26705.946      394.63431      8228.6647      1.570534       0.86833248   
      3600  -6114.0655     -6182.8583      68.792804      30069.865      410.96856      8192.7667      1.5774156      0.86833248   
      3700  -6115.3223     -6182.9363      67.614008      33052.748      403.92643      8160.9239      1.5835704      0.86833248   
      3800  -6114.4494     -6182.4122      67.962814      33523.816      406.0102       8136.8914      1.5882475      0.86833248   
      3900  -6112.641      -6182.2871      69.646157      30885.464      416.0665       8126.3682      1.5903042      0.86833248   
      4000  -6112.2333     -6181.8011      69.567751      34111.443      415.5981       8134.2104      1.588771       0.83825717   
      4100  -6112.7769     -6180.598       67.821174      29614.177      405.16404      8158.5986      1.5840218      0.83825717   
      4200  -6114.1087     -6183.4112      69.302529      27014.196      414.01367      8194.4267      1.577096       0.83825717   
      4300  -6113.9617     -6181.0421      67.080452      25474.704      400.73896      8233.4343      1.5696242      0.83825717   
      4400  -6115.0273     -6182.4749      67.447662      28132.11       402.93268      8264.222       1.5637767      0.83825717   
      4500  -6115.0488     -6184.758       69.709146      28399.497      416.4428       8281.0105      1.5606064      0.83825717   
      4600  -6115.5435     -6184.4575      68.914002      24993.892      411.6926       8280.2299      1.5607535      0.83825717   
      4700  -6114.1384     -6181.4308      67.292413      29172.813      402.00522      8260.6918      1.564445       0.83825717   
      4800  -6112.5358     -6184.1565      71.620718      25856.732      427.86254      8229.2987      1.570413       0.83825717   
      4900  -6113.4026     -6181.9427      68.540077      27310.54       409.45878      8193.0746      1.5773563      0.83825717   
      5000  -6111.7316     -6180.2106      68.478996      29280.59       409.09387      8160.4409      1.5836642      0.8533062    
      5100  -6115.0933     -6182.6016      67.508282      27256.748      403.29482      8140.6484      1.5875146      0.8533062    
      5200  -6113.7883     -6182.9984      69.210123      29077.97       413.46163      8137.1164      1.5882036      0.8533062    
      5300  -6114.2719     -6180.2357      65.963775      33677.348      394.06793      8147.0276      1.5862715      0.8533062    
      5400  -6116.4178     -6183.4235      67.005708      25939.283      400.29244      8170.1592      1.5817804      0.8533062    
      5500  -6116.3794     -6183.3189      66.939528      25641.093      399.89709      8200.4285      1.5759418      0.8533062    
      5600  -6115.7582     -6183.5993      67.841077      27145.548      405.28294      8232.8628      1.5697332      0.8533062    
      5700  -6114.9924     -6182.0719      67.079535      29792.449      400.73349      8263.5204      1.5639095      0.8533062    
      5800  -6114.4276     -6183.519       69.091328      29492.683      412.75195      8289.1612      1.5590718      0.8533062    
      5900  -6114.9083     -6182.1938      67.285471      27003.822      401.96375      8300.3517      1.5569699      0.8533062    
      6000  -6114.4866     -6181.8668      67.380217      27880.76       402.52976      8294.7876      1.5580143      0.9417716    
      6100  -6115.5445     -6185.1437      69.599239      27674.633      415.78621      8271.8238      1.5623396      0.9417716    
      6200  -6113.0475     -6182.5547      69.507211      29711.043      415.23643      8232.931       1.5697202      0.9417716    
      6300  -6111.5945     -6181.543       69.948525      26576.067      417.87285      8191.3119      1.5776957      0.9417716    
      6400  -6112.4628     -6181.5319      69.069121      29639.616      412.61928      8154.0404      1.5849073      0.9417716    
      6500  -6114.0803     -6181.0961      67.015799      29811.899      400.35273      8130.6295      1.5894708      0.9417716    
      6600  -6112.4822     -6184.6642      72.182018      30505.886      431.21575      8125.5868      1.5904572      0.9417716    
      6700  -6113.2695     -6181.2082      67.938702      31280.786      405.86615      8139.5929      1.5877204      0.9417716    
      6800  -6111.5966     -6180.2256      68.629016      32042.177      409.99009      8170.4254      1.5817289      0.9417716    
      6900  -6115.5556     -6185.0155      69.459853      29276.785      414.95352      8213.4101      1.5734509      0.9417716    
      7000  -6117.8025     -6183.4579      65.65543       30494.815      392.22588      8255.6511      1.5654002      0.91415039   
      7100  -6118.2218     -6184.8348      66.613075      23887.875      397.94685      8286.0156      1.5596637      0.91415039   
      7200  -6120.4642     -6185.7334      65.269169      22953.169      389.91835      8296.8535      1.5576264      0.91415039   
      7300  -6120.8121     -6185.7726      64.960572      23678.442      388.07479      8282.5872      1.5603093      0.91415039   
      7400  -6116.6494     -6183.2253      66.575912      30509.416      397.72484      8244.7389      1.5674721      0.91415039   
      7500  -6115.2158     -6181.9492      66.733425      33643.25       398.66582      8196.67        1.5766644      0.91415039   
      7600  -6116.0089     -6185.8258      69.816964      30474.745      417.0869       8151.7557      1.5853515      0.91415039   
      7700  -6116.7145     -6184.3608      67.64633       27948.574      404.11953      8118.3678      1.5918714      0.91415039   
      7800  -6114.1902     -6184.0439      69.853688      28347.021      417.30629      8104.1638      1.5946615      0.91415039   
      7900  -6114.5298     -6183.4422      68.91238       33065.478      411.68291      8113.8291      1.5927619      0.91415039   
      8000  -6114.3464     -6183.5564      69.209974      30985.53       413.46074      8147.8684      1.5861078      0.84049989   
      8100  -6114.7167     -6182.9427      68.226018      27894.08       407.58258      8199.6175      1.5760976      0.84049989   
      8200  -6115.0014     -6185.1044      70.103041      24601.764      418.79593      8256.5291      1.5652337      0.84049989   
      8300  -6113.3036     -6183.46        70.156314      28971.744      419.11418      8304.0379      1.5562788      0.84049989   
      8400  -6113.3151     -6181.414       68.098856      26578.54       406.82291      8333.8803      1.550706       0.84049989   
      8500  -6113.284      -6183.4079      70.123903      27856.096      418.92056      8342.9003      1.5490294      0.84049989   
      8600  -6115.027      -6181.4367      66.409711      26450.649      396.73196      8327.3829      1.5519159      0.84049989   
      8700  -6112.6397     -6181.8325      69.192713      24078.766      413.35762      8290.9134      1.5587424      0.84049989   
      8800  -6113.2749     -6179.1862      65.911293      26021.559      393.75441      8243.1699      1.5677704      0.84049989   
      8900  -6115.2957     -6184.2997      69.003988      29031.529      412.23018      8197.0017      1.5766006      0.84049989   
      9000  -6112.4995     -6183.2551      70.755559      27390.142      422.69407      8158.8037      1.583982       0.81529528   
      9100  -6111.8076     -6180.6768      68.869214      32418.308      411.42504      8139.1077      1.5878151      0.81529528   
      9200  -6113.0033     -6182.4361      69.432798      32229.929      414.79189      8141.0905      1.5874284      0.81529528   
      9300  -6115.4171     -6181.5121      66.094971      29305.932      394.85169      8163.7062      1.5830307      0.81529528   
      9400  -6113.7775     -6182.2142      68.436644      31644.902      408.84087      8202.1112      1.5756185      0.81529528   
      9500  -6116.5996     -6183.837       67.237433      29195.247      401.67677      8249.0171      1.5666591      0.81529528   
      9600  -6117.6012     -6182.3181      64.716862      24968.529      386.61887      8288.9396      1.5591135      0.81529528   
      9700  -6118.17       -6185.3008      67.130773      27118.009      401.03958      8316.655       1.5539178      0.81529528   
      9800  -6117.8079     -6186.2904      68.482471      26474.481      409.11463      8322.5281      1.5528212      0.81529528   
      9900  -6118.3531     -6184.1725      65.819341      26982.038      393.20508      8305.0707      1.5560852      0.81529528   
     10000  -6115.2091     -6184.5144      69.305292      27429.632      414.03017      8271.1216      1.5624722      0.98675565   
     10100  -6116.5658     -6183.8242      67.25844       26512.556      401.80227      8229.828       1.570312       0.98675565   
     10200  -6114.4371     -6182.937       68.499835      31698.669      409.21837      8190.104       1.5779284      0.98675565   
     10300  -6111.6843     -6180.5822      68.897918      33611.991      411.59652      8161.6336      1.5834328      0.98675565   
     10400  -6111.4249     -6182.5182      71.093324      33008.424      424.71188      8153.7659      1.5849606      0.98675565   
     10500  -6115.0068     -6183.6786      68.671821      29171.537      410.24581      8166.9844      1.5823953      0.98675565   
     10600  -6116.9543     -6183.9204      66.966132      32287.023      400.05602      8194.9204      1.577001       0.98675565   
     10700  -6117.9687     -6183.9049      65.936198      29080.801      393.90319      8228.1941      1.5706239      0.98675565   
     10800  -6115.2511     -6183.2913      68.040143      24424.845      406.47217      8256.6979      1.5652017      0.98675565   
     10900  -6116.5439     -6183.4327      66.888832      24874.798      399.59422      8278.0184      1.5611705      0.98675565   
     11000  -6118.7787     -6184.3706      65.591932      25898.614      391.84654      8286.9214      1.5594932      0.78477932   
     11100  -6117.4191     -6185.3424      67.923337      22562.931      405.77437      8279.7807      1.5608382      0.78477932   
     11200  -6117.4751     -6183.5382      66.063042      22671.445      394.66095      8257.7268      1.5650067      0.78477932   
     11300  -6117.4161     -6183.5082      66.092134      31503.942      394.83475      8226.8516      1.5708802      0.78477932   
     11400  -6114.6334     -6184.871       70.237653      28659.895      419.6001       8195.534       1.576883       0.78477932   
     11500  -6112.6905     -6181.7107      69.0202        31198.735      412.32703      8170.4853      1.5817173      0.78477932   
     11600  -6113.772      -6183.0109      69.238934      30991.367      413.63375      8159.5119      1.5838445      0.78477932   
     11700  -6114.0046     -6183.2118      69.207253      32671.125      413.44448      8162.7942      1.5832076      0.78477932   
     11800  -6116.3006     -6184.0422      67.741693      25320.694      404.68922      8180.0377      1.5798702      0.78477932   
     11900  -6116.3624     -6184.5583      68.195902      23765.907      407.40267      8202.6534      1.5755143      0.78477932   
     12000  -6114.5643     -6181.0861      66.521858      30646.319      397.40193      8226.3947      1.5709674      0.81905405   
     12100  -6114.3959     -6184.1354      69.739432      26659.57       416.62373      8254.8658      1.5655491      0.81905405   
     12200  -6113.4506     -6183.1035      69.652918      23088.895      416.10689      8281.0477      1.5605994      0.81905405   
     12300  -6113.3654     -6182.6223      69.256949      28576.998      413.74137      8298.8615      1.5572495      0.81905405   
     12400  -6115.6195     -6183.0215      67.401986      28638.344      402.65981      8307.3756      1.5556535      0.81905405   
     12500  -6115.4985     -6184.6574      69.158911      25930.977      413.15569      8301.6268      1.5567308      0.81905405   
     12600  -6118.598      -6184.6869      66.08895       28412.79       394.81573      8281.9514      1.5604291      0.81905405   
     12700  -6114.4993     -6181.3872      66.887853      30201.465      399.58838      8253.3765      1.5658316      0.81905405   
     12800  -6114.5431     -6185.7112      71.168083      27048.116      425.15849      8224.8311      1.571266       0.81905405   
     12900  -6115.061      -6182.1407      67.079753      28691.47       400.73479      8197.9831      1.5764119      0.81905405   
     13000  -6112.5611     -6181.2025      68.641442      28223.808      410.06433      8186.302       1.5786613      0.81734092   
     13100  -6110.8287     -6179.9358      69.107125      32042.74       412.84632      8193.2548      1.5773216      0.81734092   
     13200  -6113.7321     -6181.7329      68.000803      28368.421      406.23715      8216.6745      1.5728258      0.81734092   
     13300  -6113.5488     -6182.024       68.47518       23052.519      409.07108      8248.4907      1.5667591      0.81734092   
     13400  -6115.408      -6185.1919      69.783883      23279.405      416.88928      8279.8737      1.5608207      0.81734092   
     13500  -6116.5899     -6183.8428      67.252817      23884.976      401.76868      8301.9896      1.5566627      0.81734092   
     13600  -6114.3418     -6184.0165      69.674764      28244.233      416.2374       8314.4632      1.5543274      0.81734092   
     13700  -6113.0386     -6178.8786      65.840079      28519.157      393.32897      8316.437       1.5539585      0.81734092   
     13800  -6114.2207     -6184.2824      70.061668      23772.544      418.54876      8309.6095      1.5552353      0.81734092   
     13900  -6114.157      -6181.5275      67.370545      26854.908      402.47198      8291.7134      1.558592       0.81734092   
     14000  -6114.8898     -6182.5673      67.677471      28843.02       404.30556      8268.6338      1.5629423      0.98078103   
     14100  -6116.2394     -6184.5725      68.333108      28553.238      408.22234      8241.4308      1.5681012      0.98078103   
     14200  -6116.7195     -6182.9544      66.234911      29032.748      395.6877       8211.9338      1.5737338      0.98078103   
     14300  -6115.2131     -6181.7324      66.519339      31391.131      397.38688      8186.0992      1.5787004      0.98078103   
     14400  -6116.541      -6183.0164      66.475449      28242.098      397.12468      8171.4436      1.5815318      0.98078103   
     14500  -6117.2046     -6184.9129      67.708312      26745.456      404.48981      8166.7933      1.5824324      0.98078103   
     14600  -6116.738      -6182.8095      66.0715        27716.79       394.71148      8173.6548      1.581104       0.98078103   
     14700  -6115.8154     -6183.3752      67.559839      26118.384      403.60282      8196.1784      1.576759       0.98078103   
     14800  -6116.75       -6185.1185      68.368496      29387.092      408.43375      8227.4607      1.5707639      0.98078103   
     14900  -6118.0436     -6184.3909      66.347351      25901.038      396.35942      8258.6038      1.5648405      0.98078103   
     15000  -6120.2431     -6185.0616      64.818473      26214.66       387.22589      8284.3345      1.5599802      0.91852175   
     15100  -6118.942      -6184.9947      66.052724      24055.174      394.59931      8297.8695      1.5574357      0.91852175   
     15200  -6119.4097     -6184.149       64.739293      29805.453      386.75287      8291.6958      1.5585953      0.91852175   
     15300  -6118.159      -6183.4616      65.302512      28945.783      390.11754      8269.322       1.5628123      0.91852175   
     15400  -6118.3932     -6185.1519      66.758774      26410.585      398.81726      8233.4197      1.569627       0.91852175   
     15500  -6115.0357     -6182.5276      67.49189       28346.006      403.1969       8186.8642      1.5785529      0.91852175   
     15600  -6113.0962     -6180.9253      67.829087      28987.782      405.21132      8145.4519      1.5865784      0.91852175   
     15700  -6114.0606     -6182.5787      68.518054      31790.39       409.32721      8123.0768      1.5909486      0.91852175   
     15800  -6111.9588     -6181.7049      69.746184      31743.542      416.66406      8124.4964      1.5906706      0.91852175   
     15900  -6113.5567     -6182.8835      69.326861      29895.936      414.15903      8153.0387      1.585102       0.91852175   
     16000  -6115.0787     -6183.0575      67.978755      26237.352      406.10543      8200.1111      1.5760028      0.79600759   
     16100  -6116.7537     -6184.0247      67.270989      23974.427      401.87723      8256.9614      1.5651518      0.79600759   
     16200  -6118.6132     -6185.1837      66.570481      23311.26       397.6924       8308.6464      1.5554156      0.79600759   
     16300  -6117.7041     -6181.9583      64.25417       26691.48       383.85474      8339.5191      1.5496575      0.79600759   
     16400  -6118.5223     -6184.4638      65.941498      23054.813      393.93485      8346.507       1.54836        0.79600759   
     16500  -6117.2427     -6186.6927      69.449949      20465.752      414.89436      8329.2414      1.5515696      0.79600759   
     16600  -6117.9443     -6185.2749      67.330623      22066.25       402.23349      8289.3748      1.5590317      0.79600759   
     16700  -6117.7313     -6184.0598      66.328496      28019.512      396.24678      8234.8896      1.5693468      0.79600759   
     16800  -6115.1059     -6182.4153      67.309435      31305.856      402.10691      8178.8051      1.5801083      0.79600759   
     16900  -6115.0463     -6182.7252      67.678893      33559.503      404.31406      8138.5787      1.5879183      0.79600759   
     17000  -6115.2247     -6184.9427      69.718007      31761.995      416.49573      8122.6502      1.5910322      0.80166399   
     17100  -6117.2526     -6181.3221      64.069553      36464.486      382.75184      8131.3541      1.5893291      0.80166399   
     17200  -6119.4112     -6185.0902      65.678981      33200.062      392.36657      8159.6916      1.5838096      0.80166399   
     17300  -6118.2138     -6183.474       65.260211      32158.29       389.86483      8199.971       1.5760297      0.80166399   
     17400  -6116.1278     -6183.6217      67.49397       28971.177      403.20932      8245.2811      1.567369       0.80166399   
     17500  -6114.782      -6183.2322      68.450124      26427.18       408.92139      8286.4241      1.5595868      0.80166399   
     17600  -6114.8505     -6181.7682      66.917686      28897.541      399.7666       8315.8644      1.5540655      0.80166399   
     17700  -6115.2178     -6182.4335      67.215698      28933.44       401.54693      8332.2886      1.5510022      0.80166399   
     17800  -6115.3301     -6183.2125      67.882365      27936.638      405.5296       8330.9739      1.551247       0.80166399   
     17900  -6115.7589     -6184.2349      68.47601       25333.277      409.07604      8313.7032      1.5544695      0.80166399   
     18000  -6113.0323     -6179.3547      66.322417      23612.333      396.21046      8285.3631      1.5597865      0.83801037   
     18100  -6111.9252     -6180.1746      68.249414      29669.312      407.72235      8256.6766      1.5652058      0.83801037   
     18200  -6111.3044     -6182.4923      71.187854      33401.575      425.2766       8233.4398      1.5696232      0.83801037   
     18300  -6111.7323     -6182.7411      71.008771      27239.6        424.20676      8216.813       1.5727993      0.83801037   
     18400  -6112.1451     -6181.6122      69.467152      26384.86       414.99712      8209.2891      1.5742408      0.83801037   
     18500  -6113.7423     -6181.0153      67.272966      28556.877      401.88904      8211.2573      1.5738635      0.83801037   
     18600  -6114.354      -6183.28        68.926044      30034.04       411.76454      8224.1697      1.5713924      0.83801037   
     18700  -6113.1311     -6181.0983      67.967196      25619.583      406.03638      8240.2779      1.5683206      0.83801037   
     18800  -6114.8878     -6181.5678      66.680084      24904.463      398.34717      8257.5722      1.565036       0.83801037   
     18900  -6114.9519     -6181.9893      67.037354      27604.012      400.4815       8274.4242      1.5618486      0.83801037   
     19000  -6115.7004     -6183.5459      67.845484      30300.717      405.30927      8284.9128      1.5598713      0.78263021   
     19100  -6115.7406     -6182.3623      66.621789      25397.514      397.99891      8288.8313      1.5591339      0.78263021   
     19200  -6115.1479     -6183.5996      68.451695      24707.096      408.93078      8284.8555      1.5598821      0.78263021   
     19300  -6112.5229     -6182.335       69.812146      28683.605      417.05812      8273.3351      1.5620542      0.78263021   
     19400  -6112.9293     -6181.7989      68.86959       30670.479      411.42729      8259.3975      1.5646902      0.78263021   
     19500  -6113.4375     -6184.4555      71.017975      29682.715      424.26175      8245.8092      1.5672686      0.78263021   
     19600  -6114.2562     -6183.4725      69.216298      31514.337      413.49852      8232.5675      1.5697895      0.78263021   
     19700  -6113.7014     -6181.8359      68.134501      33219.452      407.03586      8225.1576      1.5712037      0.78263021   
     19800  -6114.5172     -6182.7026      68.185351      25829.662      407.33964      8223.083       1.5716001      0.78263021   
     19900  -6114.3043     -6182.7774      68.473157      24727.373      409.05899      8225.7446      1.5710916      0.78263021   
     20000  -6114.1172     -6183.1601      69.042968      29706.318      412.46304      8234.9209      1.5693409      0.78975039   
     20033  -6114.5294     -6183.0066      68.477174      25664.046      409.08299      8239.0325      1.5685577      0.78975039   
Loop time of 85.806 on 1 procs for 20000 steps with 1296 atoms

Performance: 10.069 ns/day, 2.383 hours/ns, 233.084 timesteps/s, 302.077 katom-step/s
99.8% CPU use with 1 MPI tasks x 1 OpenMP threads

MPI task timing breakdown:
Section |  min time  |  avg time  |  max time  |%varavg| %total
---------------------------------------------------------------
Pair    | 65.78      | 65.78      | 65.78      |   0.0 | 76.66
Neigh   | 0.86763    | 0.86763    | 0.86763    |   0.0 |  1.01
Comm    | 0.84126    | 0.84126    | 0.84126    |   0.0 |  0.98
Output  | 0.025391   | 0.025391   | 0.025391   |   0.0 |  0.03
Modify  | 17.849     | 17.849     | 17.849     |   0.0 | 20.80
Other   |            | 0.4429     |            |       |  0.52

Nlocal:           1296 ave        1296 max        1296 min
Histogram: 1 0 0 0 0 0 0 0 0 0
Nghost:           4407 ave        4407 max        4407 min
Histogram: 1 0 0 0 0 0 0 0 0 0
Neighs:              0 ave           0 max           0 min
Histogram: 1 0 0 0 0 0 0 0 0 0
FullNghs:       233218 ave      233218 max      233218 min
Histogram: 1 0 0 0 0 0 0 0 0 0

Total # of neighbors = 233218
Ave neighs/atom = 179.95216
Neighbor list builds = 1998
Dangerous builds = 1994

unfix 3
unfix 4

################## main calculation

dump 		3 all custom 1000 traj.lammpstrj id type element x y z
dump_modify     3 element H O

fix             3 all nph aniso ${pressure} ${pressure} ${pressureDamp}
fix             3 all nph aniso 28000 ${pressure} ${pressureDamp}
fix             3 all nph aniso 28000 28000 ${pressureDamp}
fix             3 all nph aniso 28000 28000 1
fix             4 all temp/csvr ${temperature} ${temperature} ${tempDamp} ${seed}
fix             4 all temp/csvr 405 ${temperature} ${tempDamp} ${seed}
fix             4 all temp/csvr 405 405 ${tempDamp} ${seed}
fix             4 all temp/csvr 405 405 0.1 ${seed}
fix             4 all temp/csvr 405 405 0.1 50518
velocity 	all create ${temperature} ${seed} dist gaussian
velocity 	all create 405 ${seed} dist gaussian
velocity 	all create 405 50518 dist gaussian

run             2000000
WARNING: Fix with atom-based arrays not compatible with Kokkos sorting on device, switching to classic host sorting (src/KOKKOS/atom_kokkos.cpp:216)
Per MPI rank memory allocation (min/avg/max) = 1142 | 1142 | 1142 Mbytes
   Step         TotEng         PotEng         KinEng         Press           Temp          Volume        Density     c_max_pace_gamma
     20033  -6115.2129     -6183.0066      67.793715      25575.442      405            8239.0325      1.5685577      0.78975039   
     20100  -6114.9433     -6182.7012      67.757989      25845.268      404.78658      8239.204       1.5685251      0.78975039   
     20200  -6116.0833     -6185.1772      69.09395       25515.822      412.76761      8238.4313      1.5686722      0.78975039   
     20300  -6119.1077     -6184.3375      65.229836      26162.858      389.68338      8234.4244      1.5694355      0.78975039   
     20400  -6117.509      -6185.4371      67.928094      27510.287      405.80279      8226.1086      1.571022       0.78975039   
     20500  -6119.8737     -6184.5381      64.664432      25891.023      386.30565      8216.0596      1.5729435      0.78975039   
     20600  -6117.789      -6183.8956      66.106662      31027.595      394.92154      8203.5819      1.575336       0.78975039   
     20700  -6119.0551     -6186.0708      67.015697      30156.438      400.35212      8195.0431      1.5769774      0.78975039   
     20800  -6117.8209     -6185.7817      67.960809      27429.601      405.99822      8186.4382      1.578635       0.78975039   
     20900  -6118.6782     -6184.5724      65.894243      32981.449      393.65255      8181.21        1.5796438      0.78975039   
     21000  -6117.3021     -6185.2906      67.988448      31111.893      406.16334      8183.5017      1.5792015      0.82200105   
     21100  -6116.493      -6185.0587      68.565657      29111.861      409.61159      8193.5957      1.577256       0.82200105   
     21200  -6114.743      -6183.5279      68.784918      28585.98       410.92145      8212.3819      1.5736479      0.82200105   
     21300  -6114.2603     -6182.6007      68.340491      25879.145      408.26644      8236.6805      1.5690056      0.82200105   
     21400  -6115.4114     -6183.5888      68.177428      26304.788      407.2923       8262.1414      1.5641705      0.82200105   
     21500  -6113.8817     -6181.9803      68.098616      22199.852      406.82148      8282.2502      1.5603728      0.82200105   
     21600  -6114.0102     -6181.7032      67.69297       20904.44       404.39815      8295.4693      1.5578863      0.82200105   
     21700  -6115.7748     -6182.7841      67.009238      28027.117      400.31353      8301.1617      1.556818       0.82200105   
     21800  -6113.9589     -6182.5372      68.578358      28543.781      409.68746      8294.7603      1.5580195      0.82200105   
     21900  -6114.1426     -6181.7394      67.596821      27776.802      403.82375      8274.4917      1.5618359      0.82200105   
     22000  -6115.7611     -6184.4646      68.703533      27232.548      410.43526      8245.4287      1.5673409      0.83792487   
     22100  -6118.3466     -6182.4002      64.053588      26788.921      382.65646      8210.5055      1.5740076      0.83792487   
     22200  -6115.5632     -6183.1623      67.599093      25943.722      403.83733      8177.4381      1.5803725      0.83792487   
     22300  -6116.0804     -6183.525       67.444575      25639.474      402.91424      8152.1446      1.5852758      0.83792487   
     22400  -6117.4826     -6184.2542      66.771605      30334.326      398.89391      8141.9591      1.587259       0.83792487   
     22500  -6116.8461     -6184.8006      67.954507      31590.582      405.96057      8150.5224      1.5855914      0.83792487   
     22600  -6116.0297     -6183.0678      67.038163      32368.055      400.48633      8174.4062      1.5809586      0.83792487   
     22700  -6116.3563     -6184.0535      67.697165      26927.555      404.42321      8210.0012      1.5741043      0.83792487   
     22800  -6117.8865     -6184.3969      66.510361      28797.083      397.33324      8253.4908      1.5658099      0.83792487   
     22900  -6116.7604     -6184.825       68.064606      26607.251      406.6183       8295.5214      1.5578765      0.83792487   
     23000  -6117.1448     -6186.2972      69.152417      23429.944      413.1169       8325.8776      1.5521965      0.87095908   
     23100  -6118.015      -6185.6464      67.631313      27071.113      404.02981      8336.8152      1.55016        0.87095908   
     23200  -6117.1015     -6183.4315      66.329943      28350.681      396.25542      8328.4025      1.5517259      0.87095908   
     23300  -6116.7674     -6184.5826      67.81527       29264.499      405.12877      8302.9372      1.5564851      0.87095908   
     23400  -6114.6514     -6182.3576      67.706179      28102.655      404.47706      8263.0016      1.5640077      0.87095908   
     23500  -6114.8867     -6183.117       68.230254      25919.227      407.60789      8220.8038      1.5720358      0.87095908   
     23600  -6112.8981     -6180.3474      67.449275      31911.951      402.94231      8183.2614      1.5792478      0.87095908   
     23700  -6114.4285     -6182.8042      68.375618      33437.562      408.47629      8164.4305      1.5828903      0.87095908   
     23800  -6114.4515     -6181.8604      67.408861      30138.884      402.70088      8163.8956      1.582994       0.87095908   
     23900  -6113.0332     -6183.1491      70.11586       27508.267      418.87251      8180.6415      1.5797536      0.87095908   
     24000  -6112.6711     -6182.127       69.455853      27309.462      414.92962      8214.094       1.5733199      0.84117973   
     24100  -6113.4698     -6181.6936      68.223778      27022.991      407.5692       8256.7835      1.5651855      0.84117973   
     24200  -6114.3385     -6182.6439      68.305454      26896.314      408.05713      8298.0578      1.5574003      0.84117973   
     24300  -6114.3498     -6183.7595      69.409727      26100.284      414.65407      8330.6213      1.5513126      0.84117973   
     24400  -6114.6556     -6183.9435      69.287902      26420.491      413.92628      8347.6873      1.5481411      0.84117973   
     24500  -6114.454      -6181.9545      67.500518      19835.527      403.24845      8343.4622      1.5489251      0.84117973   
     24600  -6114.5925     -6184.45        69.857437      24042.61       417.32869      8319.6811      1.5533525      0.84117973   
     24700  -6113.1988     -6181.2861      68.087317      27788.276      406.75398      8279.0461      1.5609767      0.84117973   
     24800  -6111.1571     -6179.7617      68.60458       30886.534      409.84411      8235.9043      1.5691535      0.84117973   
     24900  -6112.308      -6179.1943      66.886329      33610.077      399.57928      8204.463       1.5751668      0.84117973   
     25000  -6111.1118     -6183.3256      72.213861      27734.643      431.40598      8187.9315      1.5783471      0.8098005    
     25100  -6115.2357     -6182.1054      66.869608      27792.106      399.47938      8186.51        1.5786212      0.8098005    
     25200  -6114.0456     -6180.7524      66.706844      28758.292      398.50703      8198.1833      1.5763734      0.8098005    
     25300  -6114.3337     -6184.3991      70.0654        27236.022      418.57106      8221.6077      1.5718821      0.8098005    
     25400  -6116.6092     -6183.4382      66.828948      23464.531      399.23648      8253.6269      1.5657841      0.8098005    
     25500  -6116.826      -6185.067       68.240997      25715.067      407.67207      8283.2751      1.5601797      0.8098005    
     25600  -6115.5362     -6182.0884      66.552129      22539.15       397.58276      8302.9764      1.5564777      0.8098005    
     25700  -6114.7375     -6182.3547      67.617221      25900.649      403.94562      8315.2595      1.5541786      0.8098005    
     25800  -6113.2956     -6182.459       69.163423      30778.822      413.18264      8316.2482      1.5539938      0.8098005    
     25900  -6113.7731     -6181.1496      67.376512      31996.887      402.50763      8305.5575      1.555994       0.8098005    
     26000  -6113.6131     -6180.7824      67.169364      30508.134      401.27013      8286.0544      1.5596564      0.8278747    
     26100  -6114.4073     -6184.3402      69.932955      27314.36       417.77983      8262.6872      1.5640672      0.8278747    
     26200  -6112.6996     -6181.3539      68.654377      27934.117      410.1416       8236.6509      1.5690112      0.8278747    
     26300  -6111.6417     -6179.9519      68.31021       30933.257      408.08555      8214.5136      1.5732396      0.8278747    
     26400  -6112.3521     -6180.8251      68.473052      31566.983      409.05837      8203.9334      1.5752685      0.8278747    
     26500  -6114.8931     -6183.39        68.496901      25384.318      409.20084      8204.0481      1.5752465      0.8278747    
     26600  -6113.0857     -6179.8035      66.717752      28182.705      398.57219      8209.984       1.5741076      0.8278747    
     26700  -6113.899      -6182.643       68.743961      26629.975      410.67677      8223.53        1.5715147      0.8278747    
     26800  -6111.5994     -6180.8564      69.256923      24737.389      413.74121      8239.5241      1.5684641      0.8278747    
     26900  -6115.0853     -6182.5821      67.496859      23531.624      403.22658      8257.8549      1.5649824      0.8278747    
     27000  -6116.6091     -6181.1867      64.57757       27752.631      385.78674      8270.6681      1.5625579      0.85370334   
     27100  -6117.2764     -6186.2847      69.008327      22457.468      412.2561       8274.776       1.5617822      0.85370334   
     27200  -6119.3397     -6187.3096      67.969906      27193.704      406.05257      8264.5572      1.5637133      0.85370334   
     27300  -6120.0735     -6185.1674      65.093935      28922.43       388.8715       8240.3473      1.5683074      0.85370334   
     27400  -6115.9347     -6183.9595      68.024817      32130.158      406.38061      8209.2439      1.5742495      0.85370334   
     27500  -6115.142      -6183.402       68.260006      26016.884      407.78563      8180.8906      1.5797055      0.85370334   
     27600  -6116.1622     -6181.0924      64.930197      26160.172      387.89333      8164.7205      1.5828341      0.85370334   
     27700  -6117.5621     -6183.8462      66.284142      27217.445      395.9818       8163.958       1.5829819      0.85370334   
     27800  -6115.0578     -6183.3086      68.250806      26858.592      407.73066      8174.7727      1.5808877      0.85370334   
     27900  -6115.4173     -6182.46        67.042741      28516.065      400.51368      8197.6953      1.5764672      0.85370334   
     28000  -6114.9405     -6181.6566      66.71611       28843.206      398.56238      8226.8296      1.5708844      0.79969073   
     28100  -6114.5816     -6181.7898      67.208211      24404.197      401.5022       8259.5334      1.5646644      0.79969073   
     28200  -6114.5534     -6183.1439      68.59058       24916.216      409.76048      8290.4215      1.5588348      0.79969073   
     28300  -6112.0736     -6180.1633      68.089775      27015.533      406.76867      8310.0283      1.5551569      0.79969073   
     28400  -6112.1481     -6182.4151      70.266987      24683.637      419.77534      8319.7991      1.5533305      0.79969073   
     28500  -6112.1794     -6180.1953      68.01591       28597.038      406.3274       8313.9644      1.5544206      0.79969073   
     28600  -6114.0748     -6181.5975      67.522703      28845.085      403.38098      8294.0531      1.5581523      0.79969073   
     28700  -6111.7988     -6180.8884      69.089583      30685.645      412.74153      8263.8107      1.5638545      0.79969073   
     28800  -6112.4126     -6180.6728      68.260161      27984.142      407.78655      8233.4846      1.5696146      0.79969073   
     28900  -6114.9036     -6182.1374      67.233813      23345.343      401.65515      8209.1991      1.5742581      0.79969073   
     29000  -6112.7173     -6182.213       69.495684      27946.629      415.16757      8190.9345      1.5777684      0.74627667   
     29100  -6112.2194     -6182.9035      70.684142      27995.149      422.26743      8184.9077      1.5789302      0.74627667   
     29200  -6113.472      -6181.9329      68.460892      31770.241      408.98572      8190.5099      1.5778502      0.74627667   
     29300  -6115.4012     -6183.8457      68.444481      27431.507      408.88768      8207.8773      1.5745116      0.74627667   
     29400  -6113.5698     -6182.8587      69.288868      26193.933      413.93206      8230.496       1.5701846      0.74627667   
     29500  -6115.8142     -6182.8733      67.059081      28729.816      400.6113       8253.9279      1.565727       0.74627667   
     29600  -6116.6886     -6183.4658      66.777177      25821.099      398.9272       8273.2121      1.5620774      0.74627667   
     29700  -6117.8544     -6188.014       70.159627      30148.951      419.13397      8281.9453      1.5604302      0.74627667   
     29800  -6116.9833     -6183.7697      66.786401      28713.986      398.98231      8276.0459      1.5615426      0.74627667   
     29900  -6117.377      -6182.705       65.327991      29165.893      390.26976      8260.9052      1.5644046      0.74627667   
     30000  -6114.7159     -6181.9314      67.215522      27871.96       401.54587      8239.1948      1.5685268      0.79372756   
     30100  -6116.5662     -6185.2085      68.642282      28519.889      410.06935      8215.3682      1.5730759      0.79372756   
     30200  -6114.9049     -6183.2928      68.38791       31996.808      408.54973      8193.6113      1.577253       0.79372756   
     30300  -6112.3266     -6182.1239      69.797311      31940.411      416.96949      8179.2471      1.5800229      0.79372756   
     30400  -6111.7694     -6180.005       68.235525      34622.312      407.63938      8180.2817      1.5798231      0.79372756   
     30500  -6115.3709     -6183.6929      68.322011      29900.546      408.15604      8196.3987      1.5767166      0.79372756   
     30600  -6117.0911     -6185.1376      68.046437      26200.066      406.50976      8219.1028      1.5723611      0.79372756   
     30700  -6117.8066     -6183.9322      66.125556      27050.556      395.03441      8244.0074      1.5676111      0.79372756   
     30800  -6115.3369     -6184.6413      69.304471      25777.304      414.02527      8263.408       1.5639308      0.79372756   
     30900  -6116.2849     -6183.012       66.727159      27504.627      398.62839      8274.6007      1.5618153      0.79372756   
     31000  -6118.7266     -6186.9479      68.22122       24704.788      407.55392      8276.6209      1.5614341      0.92074648   
     31100  -6116.8825     -6183.6562      66.773703      29120.524      398.90644      8263.0788      1.5639931      0.92074648   
     31200  -6116.8591     -6185.6673      68.808208      29297.333      411.06059      8241.7273      1.5680448      0.92074648   
     31300  -6117.1754     -6184.8301      67.654796      26288.039      404.1701       8215.1438      1.5731189      0.92074648   
     31400  -6114.0906     -6181.3695      67.278915      27329.791      401.92459      8192.3028      1.5775049      0.92074648   
     31500  -6112.7083     -6182.8244      70.116119      26713.806      418.87406      8180.3677      1.5798065      0.92074648   
     31600  -6113.8037     -6182.4402      68.636451      28184.694      410.03451      8183.8838      1.5791277      0.92074648   
     31700  -6113.7825     -6182.1045      68.321998      28720.149      408.15597      8203.2289      1.5754038      0.92074648   
     31800  -6116.4349     -6183.0432      66.608295      24194.525      397.9183       8231.5281      1.5699877      0.92074648   
     31900  -6116.4638     -6184.7228      68.258972      24355.539      407.77945      8258.5789      1.5648452      0.92074648   
     32000  -6114.4807     -6181.4849      67.004201      25772.598      400.28344      8280.1728      1.5607643      0.86832848   
     32100  -6114.3362     -6184.1036      69.76743       25018.337      416.79099      8296.9276      1.5576125      0.86832848   
     32200  -6112.949      -6181.9457      68.996772      25677.01       412.18707      8302.916       1.5564891      0.86832848   
     32300  -6112.2618     -6180.5677      68.305901      25810.654      408.0598       8299.4973      1.5571302      0.86832848   
     32400  -6114.4857     -6183.2857      68.800028      26940.193      411.01172      8291.7869      1.5585782      0.86832848   
     32500  -6114.5863     -6183.1564      68.570128      23865.394      409.6383       8275.3435      1.5616751      0.86832848   
     32600  -6117.5137     -6184.1506      66.636902      31067.99       398.0892       8253.2369      1.5658581      0.86832848   
     32700  -6114.2386     -6182.9979      68.759291      33315.563      410.76836      8230.3173      1.5702187      0.86832848   
     32800  -6114.0323     -6180.8765      66.844215      32527.935      399.32769      8212.6136      1.5736035      0.86832848   
     32900  -6114.5259     -6182.5338      68.00785       29622.409      406.27925      8205.1262      1.5750395      0.86832848   
     33000  -6112.9479     -6181.7994      68.851489      28643.932      411.31915      8208.1039      1.5744681      0.78685625   
     33100  -6110.9789     -6178.9166      67.937765      32266.431      405.86056      8224.7251      1.5712863      0.78685625   
     33200  -6113.9471     -6182.3996      68.452567      29219.494      408.93599      8252.002       1.5660924      0.78685625   
     33300  -6113.9913     -6181.6765      67.685215      28218.467      404.35182      8279.4891      1.5608932      0.78685625   
     33400  -6114.934      -6182.9163      67.982392      28637.921      406.12716      8302.2574      1.5566125      0.78685625   
     33500  -6116.2121     -6183.853       67.640965      25653.982      404.08747      8314.97        1.5542326      0.78685625   
     33600  -6113.9713     -6183.7329      69.761561      26196.676      416.75593      8314.4171      1.554336       0.78685625   
     33700  -6112.8046     -6183.0146      70.210069      26258.669      419.43531      8303.5757      1.5563654      0.78685625   
     33800  -6114.0695     -6181.6618      67.592292      29401.046      403.7967       8284.107       1.560023       0.78685625   
     33900  -6114.0403     -6183.1192      69.078856      26109.366      412.67744      8261.1699      1.5643544      0.78685625   
     34000  -6114.9332     -6183.8345      68.901355      27264.829      411.61705      8240.9255      1.5681974      0.83664576   
     34100  -6116.4066     -6185.3892      68.982599      28409.801      412.1024       8224.7326      1.5712849      0.83664576   
     34200  -6117.0255     -6186.2562      69.230631      27618.327      413.58415      8210.9876      1.5739152      0.83664576   
     34300  -6115.9985     -6182.7188      66.720369      32660.537      398.58783      8202.2769      1.5755866      0.83664576   
     34400  -6117.3884     -6184.0541      66.665621      27182.142      398.26076      8201.6806      1.5757012      0.83664576   
     34500  -6117.6609     -6185.7262      68.065339      28472.294      406.62269      8207.1843      1.5746445      0.83664576   
     34600  -6117.3616     -6184.4273      67.065688      34590.578      400.65076      8216.3322      1.5728913      0.83664576   
     34700  -6116.5852     -6186.3174      69.732228      33202.295      416.58069      8231.1978      1.5700507      0.83664576   
     34800  -6116.7213     -6184.4748      67.753486      25251.604      404.75967      8248.4826      1.5667606      0.83664576   
     34900  -6117.6059     -6185.8222      68.216307      23743.832      407.52457      8264.4449      1.5637345      0.83664576   
     35000  -6119.9536     -6187.1803      67.226625      22905.431      401.6122       8272.9715      1.5621229      0.84398593   
     35100  -6118.5831     -6186.2307      67.647603      24421.239      404.12713      8272.932       1.5621303      0.84398593   
     35200  -6118.9677     -6184.6094      65.641642      26806.19       392.14351      8260.5123      1.564479       0.84398593   
     35300  -6117.8392     -6185.2         67.360884      30875.468      402.41427      8242.1216      1.5679698      0.84398593   
     35400  -6118.4243     -6186.2945      67.870273      29898.95       405.45736      8223.937       1.5714369      0.84398593   
     35500  -6115.3092     -6183.3289      68.019784      29852.865      406.35054      8207.8844      1.5745102      0.84398593   
     35600  -6114.4985     -6183.3204      68.821949      26580.074      411.14268      8199.9904      1.576026       0.84398593   
     35700  -6115.5148     -6183.763       68.24817       26802.615      407.71492      8204.0749      1.5752413      0.84398593   
     35800  -6113.5015     -6180.3386      66.837103      31358.541      399.2852       8220.0332      1.5721832      0.84398593   
     35900  -6114.4728     -6183.0369      68.564035      27467.706      409.6019       8245.4799      1.5673312      0.84398593   
     36000  -6115.7073     -6183.7974      68.090085      24560.879      406.77052      8272.5591      1.5622007      0.80989149   
     36100  -6116.6509     -6182.9064      66.255521      24795.998      395.81082      8292.0956      1.5585201      0.80989149   
     36200  -6117.8491     -6183.7443      65.895245      29925.538      393.65854      8301.5026      1.5567541      0.80989149   
     36300  -6116.3841     -6185.2804      68.896382      25075.539      411.58734      8302.0451      1.5566523      0.80989149   
     36400  -6117.8618     -6185.008       67.146253      26467.489      401.13206      8289.9512      1.5589233      0.80989149   
     36500  -6116.4784     -6186.2775      69.79911       24374.223      416.98025      8269.9028      1.5627025      0.80989149   
     36600  -6117.5409     -6184.4459      66.905051      25924.615      399.69112      8247.2889      1.5669874      0.80989149   
     36700  -6117.8841     -6184.0279      66.1438        29421.299      395.1434       8226.9968      1.5708524      0.80989149   
     36800  -6116.0972     -6183.2043      67.107125      28022.082      400.89831      8209.3705      1.5742252      0.80989149   
     36900  -6116.3338     -6183.1746      66.840776      30749.52       399.30714      8198.9524      1.5762255      0.80989149   
     37000  -6116.4349     -6185.4327      68.997825      27459.888      412.19336      8199.9064      1.5760421      0.91957646   
     37100  -6118.368      -6185.3229      66.954888      31397.429      399.98885      8212.3077      1.5736622      0.91957646   
     37200  -6120.192      -6186.2138      66.021749      29142.452      394.41427      8232.1825      1.5698629      0.91957646   
     37300  -6118.7234     -6185.0355      66.312145      27271.302      396.1491       8254.3117      1.5656542      0.91957646   
     37400  -6115.9751     -6182.7061      66.731052      25332.377      398.65165      8276.1743      1.5615183      0.91957646   
     37500  -6114.411      -6184.0377      69.626694      23825.628      415.95023      8295.5794      1.5578656      0.91957646   
     37600  -6114.1228     -6182.6322      68.509419      24524.796      409.27562      8307.4541      1.5556388      0.91957646   
     37700  -6114.3397     -6182.1211      67.781376      25567.761      404.92629      8310.9337      1.5549875      0.91957646   
     37800  -6114.5581     -6183.2746      68.716487      28321.988      410.51265      8304.7778      1.5561401      0.91957646   
     37900  -6115.1744     -6182.3917      67.217364      27518.634      401.55688      8287.4974      1.5593848      0.91957646   
     38000  -6112.9155     -6180.7023      67.786799      26805.078      404.95869      8262.2822      1.5641438      0.93901881   
     38100  -6112.0579     -6182.102       70.044143      26861.4        418.44407      8234.6255      1.5693972      0.93901881   
     38200  -6111.0455     -6180.911       69.865499      28199.868      417.37685      8210.0516      1.5740946      0.93901881   
     38300  -6111.1597     -6180.1094      68.949627      29760.947      411.90543      8195.9782      1.5767975      0.93901881   
     38400  -6111.9602     -6181.6018      69.641658      32175.752      416.03963      8194.1929      1.577141       0.93901881   
     38500  -6113.8152     -6181.263       67.447761      30522.298      402.93327      8204.4766      1.5751642      0.93901881   
     38600  -6114.9124     -6185.5014      70.588937      26955.7        421.69867      8224.2376      1.5713794      0.93901881   
     38700  -6113.7401     -6182.3939      68.653719      29391.485      410.13767      8246.5305      1.5671315      0.93901881   
     38800  -6115.2405     -6185.118       69.877476      26293.72       417.4484       8270.5633      1.5625777      0.93901881   
     38900  -6115.2142     -6182.8367      67.622487      26742.512      403.97708      8289.5974      1.5589898      0.93901881   
     39000  -6115.8525     -6182.4089      66.556413      28483.173      397.60836      8298.7062      1.5572786      0.85990439   
     39100  -6115.9054     -6182.9347      67.029313      31838.265      400.43346      8296.2554      1.5577387      0.85990439   
     39200  -6115.1031     -6183.5297      68.426559      30544.202      408.78061      8281.1856      1.5605734      0.85990439   
     39300  -6112.295      -6180.2927      67.997712      28241.051      406.21868      8252.8101      1.5659391      0.85990439   
     39400  -6112.0424     -6180.2299      68.187566      27379.859      407.35287      8221.3572      1.57193        0.85990439   
     39500  -6112.6916     -6183.4493      70.757692      34266.571      422.70682      8195.7328      1.5768447      0.85990439   
     39600  -6113.6582     -6181.7344      68.076216      33979.218      406.68766      8177.9713      1.5802694      0.85990439   
     39700  -6113.2243     -6182.6466      69.422314      29664.738      414.72926      8172.026       1.5814191      0.85990439   
     39800  -6114.4786     -6181.4688      66.990233      28848.831      400.19999      8179.1179      1.5800479      0.85990439   
     39900  -6114.4803     -6185.8615      71.381215      26917.261      426.43174      8197.1572      1.5765707      0.85990439   
     40000  -6114.3317     -6181.0778      66.746131      29850.401      398.74173      8220.1041      1.5721696      0.80692669   
     40100  -6115.3502     -6182.3895      67.03931       26546.763      400.49318      8243.7806      1.5676543      0.80692669   
     40200  -6113.6414     -6182.5397      68.898282      23853.907      411.59869      8260.9904      1.5643884      0.80692669   
     40300  -6115.0785     -6183.7518      68.673342      25387.949      410.2549       8267.1154      1.5632294      0.80692669   
     40400  -6113.7398     -6184.3496      70.609825      28622.038      421.82346      8265.3456      1.5635641      0.80692669   
     40500  -6112.5859     -6183.0309      70.445022      27575.996      420.83892      8257.3738      1.5650736      0.80692669   
     40600  -6112.8535     -6179.6625      66.80905       29849.859      399.11761      8248.5605      1.5667458      0.80692669   
     40700  -6113.8823     -6183.1308      69.248559      24523.817      413.69125      8242.7477      1.5678507      0.80692669   
     40800  -6117.6689     -6184.9266      67.257705      23540.236      401.79788      8237.8336      1.568786       0.80692669   
     40900  -6118.3918     -6185.7757      67.383867      27826.251      402.55157      8231.1274      1.5700641      0.80692669   
     41000  -6117.1208     -6184.4149      67.294091      31612.769      402.01525      8223.1177      1.5715934      0.84331997   
     41100  -6117.6688     -6183.0934      65.424597      31914.287      390.84688      8215.8178      1.5729898      0.84331997   
     41200  -6116.2648     -6184.8957      68.630891      31343.75       410.0013       8213.8322      1.5733701      0.84331997   
     41300  -6114.5369     -6184.4001      69.8632        32364.237      417.36312      8220.0778      1.5721746      0.84331997   
     41400  -6115.3365     -6183.6942      68.357735      28298.514      408.36946      8232.9734      1.5697121      0.84331997   
     41500  -6114.7866     -6181.4933      66.706729      27139.916      398.50634      8249.9849      1.5664753      0.84331997   
     41600  -6115.4582     -6182.2441      66.785837      29664.56       398.97893      8269.8472      1.562713       0.84331997   
     41700  -6115.7384     -6182.121       66.382562      26061.788      396.56977      8286.1417      1.55964        0.84331997   
     41800  -6112.9696     -6180.9139      67.944378      23970.285      405.90006      8295.2852      1.5579209      0.84331997   
     41900  -6112.9261     -6182.6783      69.752193      26786.171      416.69996      8298.5718      1.5573039      0.84331997   
     42000  -6116.3686     -6182.615       66.246348      26947.05       395.75603      8293.645       1.558229       0.86058293   
     42100  -6117.6189     -6183.9479      66.328993      25899.586      396.24974      8278.4129      1.5610961      0.86058293   
     42200  -6118.9072     -6184.9915      66.084321      24236.039      394.78808      8254.044       1.565705       0.86058293   
     42300  -6117.8717     -6183.7057      65.834086      26038.249      393.29317      8224.1427      1.5713976      0.86058293   
     42400  -6116.3711     -6184.756       68.384915      29379.83       408.53183      8198.1066      1.5763881      0.86058293   
     42500  -6115.9208     -6183.5651      67.644276      33236.092      404.10726      8180.3081      1.579818       0.86058293   
     42600  -6115.901      -6183.489       67.587911      31896.032      403.77053      8173.0654      1.581218       0.86058293   
     42700  -6117.6005     -6186.1704      68.569899      33102.286      409.63693      8179.7209      1.5799314      0.86058293   
     42800  -6116.8997     -6185.5875      68.687844      30318.955      410.34153      8195.7362      1.5768441      0.86058293   
     42900  -6116.3619     -6184.7456      68.383658      26049.627      408.52433      8218.0284      1.5725667      0.86058293   
     43000  -6118.2437     -6183.3543      65.110532      30590.026      388.97065      8240.9717      1.5681886      0.77518294   
     43100  -6116.3482     -6186.2834      69.935141      27877.644      417.79289      8260.3258      1.5645143      0.77518294   
     43200  -6117.1107     -6183.8847      66.773983      24222.958      398.90812      8273.3658      1.5620484      0.77518294   
     43300  -6116.9097     -6182.2945      65.384804      26002.158      390.60915      8279.2134      1.5609451      0.77518294   
     43400  -6116.8152     -6185.5171      68.701827      26179.778      410.42507      8276.8142      1.5613976      0.77518294   
     43500  -6115.5653     -6184.4322      68.86694       25556.455      411.41145      8265.6343      1.5635095      0.77518294   
     43600  -6116.0155     -6184.5215      68.506017      27325.753      409.2553       8248.712       1.5667171      0.77518294   
     43700  -6117.0634     -6182.8545      65.791159      29476.807      393.03672      8229.0212      1.570466       0.77518294   
     43800  -6116.8109     -6184.4224      67.611401      32121.116      403.91086      8212.3507      1.5736539      0.77518294   
     43900  -6116.2166     -6183.1793      66.96275       34031.428      400.03581      8200.5607      1.5759164      0.77518294   
     44000  -6115.2038     -6181.188       65.984233      33440.228      394.19015      8199.452       1.5761295      0.75243443   
     44100  -6115.9935     -6184.7483      68.754771      33332.873      410.74136      8208.4081      1.5744098      0.75243443   
     44200  -6116.2332     -6183.7193      67.486091      30349.824      403.16225      8220.3977      1.5721135      0.75243443   
     44300  -6114.4149     -6182.418       68.003094      30701.282      406.25083      8233.7136      1.569571       0.75243443   
     44400  -6116.4858     -6183.6505      67.164685      29571.946      401.24217      8250.4388      1.5663892      0.75243443   
     44500  -6119.1241     -6186.412       67.287928      23588.237      401.97843      8265.0844      1.5636135      0.75243443   
     44600  -6116.5391     -6183.1915      66.652361      25962.979      398.18155      8270.6087      1.5625691      0.75243443   
     44700  -6116.9895     -6184.9502      67.960655      27601.337      405.9973       8266.4545      1.5633544      0.75243443   
     44800  -6116.8813     -6184.597       67.715707      26571.28       404.53398      8254.7122      1.5655783      0.75243443   
     44900  -6116.7956     -6185.2427      68.447183      32144.311      408.90382      8235.1383      1.5692994      0.75243443   
     45000  -6117.3011     -6184.8983      67.597246      28251.296      403.82629      8213.4109      1.5734508      0.79364548   
     45100  -6116.3981     -6184.8888      68.490708      29122.596      409.16384      8198.6842      1.5762771      0.79364548   
     45200  -6116.3844     -6181.819       65.434544      32944.635      390.9063       8191.0626      1.5777438      0.79364548   
     45300  -6116.3548     -6184.9324      68.577616      27730.841      409.68303      8194.914       1.5770023      0.79364548   
     45400  -6116.5481     -6183.5414      66.993299      30097.915      400.21832      8206.1058      1.5748515      0.79364548   
     45500  -6116.2726     -6183.4229      67.15036       34164.676      401.1566       8225.2784      1.5711806      0.79364548   
     45600  -6118.6089     -6186.2562      67.647297      27874.188      404.1253       8245.0639      1.5674103      0.79364548   
     45700  -6118.4529     -6185.6123      67.159422      21363.79       401.21073      8259.6257      1.5646469      0.79364548   
     45800  -6118.3999     -6185.0209      66.621003      26438.02       397.99422      8266.7914      1.5632907      0.79364548   
     45900  -6115.8516     -6184.1749      68.323346      27652.406      408.16402      8262.9381      1.5640197      0.79364548   
     46000  -6114.2516     -6181.6981      67.446523      29475.366      402.92587      8249.6176      1.5665451      0.73508633   
     46100  -6109.6447     -6181.1995      71.554774      27494.322      427.46859      8236.7491      1.5689925      0.73508633   
     46200  -6110.7145     -6181.1563      70.441821      28155.136      420.8198       8228.3996      1.5705846      0.73508633   
     46300  -6110.9723     -6181.697       70.724723      30744.442      422.50986      8227.6737      1.5707232      0.73508633   
     46400  -6111.5374     -6181.2743      69.736872      28219.559      416.60843      8232.6141      1.5697806      0.73508633   
     46500  -6111.1402     -6181.1513      70.011111      28949.244      418.24674      8244.4325      1.5675303      0.73508633   
     46600  -6111.906      -6180.0412      68.135275      27371.703      407.04049      8262.0799      1.5641822      0.73508633   
     46700  -6114.387      -6183.0873      68.700275      26268.427      410.4158       8280.608       1.5606823      0.73508633   
     46800  -6113.5501     -6181.9839      68.433785      27450.947      408.82379      8288.6156      1.5591745      0.73508633   
     46900  -6112.529      -6181.5598      69.030749      26528.939      412.39005      8286.1334      1.5596415      0.73508633   
     47000  -6115.4499     -6184.0069      68.556982      27999.887      409.55976      8280.4672      1.5607088      0.84799487   
     47100  -6115.0383     -6182.9755      67.937271      29085.081      405.85761      8265.5474      1.5635259      0.84799487   
     47200  -6114.1173     -6184.9914      70.874079      25348.093      423.40211      8247.3516      1.5669755      0.84799487   
     47300  -6115.4774     -6183.7766      68.299191      27068.072      408.01972      8228.3307      1.5705978      0.84799487   
     47400  -6114.6598     -6182.3322      67.672412      31050.208      404.27534      8213.954       1.5733468      0.84799487   
     47500  -6112.7939     -6181.9134      69.119481      31504.868      412.92013      8205.5526      1.5749577      0.84799487   
     47600  -6113.6441     -6182.9469      69.302776      31098.171      414.01514      8206.6043      1.5747558      0.84799487   
     47700  -6114.858      -6184.2323      69.374293      31257.442      414.44238      8216.2716      1.572903       0.84799487   
     47800  -6115.9965     -6184.3116      68.315167      33557.048      408.11516      8231.6152      1.5699711      0.84799487   
     47900  -6114.9096     -6185.1469      70.237291      26544.997      419.59794      8250.6375      1.5663514      0.84799487   
     48000  -6118.0313     -6184.7082      66.67687       27346.693      398.32796      8266.4842      1.5633488      0.91625192   
     48100  -6119.1276     -6184.3808      65.253225      25433.753      389.8231       8274.2634      1.561879       0.91625192   
     48200  -6118.7248     -6183.5906      64.865785      28247.98       387.50853      8272.8847      1.5621392      0.91625192   
     48300  -6118.3895     -6186.3306      67.941085      27175.081      405.88039      8266.366       1.5633711      0.91625192   
     48400  -6117.6612     -6184.0043      66.343156      27763.842      396.33436      8250.9191      1.566298       0.91625192   
     48500  -6117.7495     -6184.8642      67.114657      27554.947      400.94331      8231.4074      1.5700107      0.91625192   
     48600  -6117.3605     -6184.3065      66.945962      27238.236      399.93552      8215.5273      1.5730455      0.91625192   
     48700  -6118.8892     -6185.947       67.057841      27778.22       400.60389      8207.6906      1.5745474      0.91625192   
     48800  -6117.1456     -6182.3758      65.230228      31288.75       389.68572      8202.1446      1.5756121      0.91625192   
     48900  -6116.6555     -6184.6948      68.039257      27321.793      406.46687      8205.1055      1.5750435      0.91625192   
     49000  -6115.6329     -6183.1348      67.501931      26282.865      403.25688      8213.5871      1.573417       0.82047356   
     49100  -6116.3811     -6184.5404      68.159354      27668.518      407.18433      8225.5492      1.5711289      0.82047356   
     49200  -6117.8116     -6183.8965      66.084878      26426.639      394.7914       8238.1805      1.5687199      0.82047356   
     49300  -6117.3508     -6185.1401      67.789332      27309.423      404.97382      8248.6439      1.56673        0.82047356   
     49400  -6114.1571     -6183.1457      68.988577      32351.114      412.13812      8255.5718      1.5654152      0.82047356   
     49500  -6114.6151     -6183.7855      69.170392      29486.068      413.22428      8264.1321      1.5637937      0.82047356   
     49600  -6116.1636     -6183.4294      67.265816      28902.851      401.84633      8270.0727      1.5626704      0.82047356   
     49700  -6115.1393     -6184.0336      68.894335      27495.663      411.57511      8273.6413      1.5619964      0.82047356   
     49800  -6114.7178     -6183.1643      68.446504      27743.446      408.89977      8272.1725      1.5622737      0.82047356   
     49900  -6114.1316     -6182.5106      68.378995      28080.348      408.49647      8265.9268      1.5634542      0.82047356   
     50000  -6113.7023     -6182.2393      68.537         27540.83       409.44039      8258.9162      1.5647813      0.8536106    
     50100  -6112.6241     -6181.044       68.419882      29967.189      408.74073      8253.1305      1.5658783      0.8536106    
     50200  -6112.4861     -6182.5841      70.097962      28648.465      418.76559      8253.4349      1.5658205      0.8536106    
     50300  -6114.7628     -6183.8076      69.044788      27985.647      412.47392      8261.0501      1.5643771      0.8536106    
     50400  -6115.4868     -6182.0659      66.579075      26709.781      397.74374      8270.2235      1.5626419      0.8536106    
     50500  -6116.8773     -6183.0322      66.15487       28943.718      395.20954      8277.0246      1.5613579      0.8536106    
     50600  -6119.0149     -6185.8976      66.882652      27171.531      399.55731      8278.1646      1.5611429      0.8536106    
     50700  -6117.1139     -6184.275       67.1611        26379.716      401.22076      8270.946       1.5625054      0.8536106    
     50800  -6118.4497     -6185.6571      67.207438      24811.085      401.49758      8260.1469      1.5645482      0.8536106    
     50900  -6115.5123     -6182.6916      67.179372      30530.887      401.32991      8246.063       1.5672204      0.8536106    
     51000  -6114.0267     -6183.9748      69.948092      28658.029      417.87026      8236.5178      1.5690366      0.79066095   
     51100  -6114.0035     -6181.1439      67.140395      27851.99       401.09706      8233.8693      1.5695413      0.79066095   
     51200  -6114.357      -6183.3327      68.975678      29483.885      412.06106      8236.5379      1.5690328      0.79066095   
     51300  -6115.0135     -6184.2764      69.262859      29363.461      413.77667      8246.9386      1.567054       0.79066095   
     51400  -6117.6901     -6182.1396      64.449547      27988.848      385.02193      8259.6603      1.5646404      0.79066095   
     51500  -6119.8544     -6185.189       65.33457       25120.898      390.30906      8269.1346      1.5628477      0.79066095   
     51600  -6119.8521     -6185.3076      65.455495      27479.894      391.03147      8271.1211      1.5624723      0.79066095   
     51700  -6119.1391     -6183.4305      64.291341      29706.09       384.0768       8263.3906      1.563934       0.79066095   
     51800  -6118.1548     -6183.0556      64.900756      28307.799      387.71745      8254.0459      1.5657046      0.79066095   
     51900  -6116.9073     -6184.4584      67.551073      29798.898      403.55046      8243.9323      1.5676254      0.79066095   
     52000  -6116.4597     -6184.3967      67.937043      29610.999      405.85624      8232.1379      1.5698714      0.81763694   
     52100  -6115.9684     -6183.1328      67.164377      30001.184      401.24033      8222.8534      1.571644       0.81763694   
     52200  -6115.8419     -6181.4572      65.615343      31386.034      391.9864       8221.6024      1.5718831      0.81763694   
     52300  -6115.7959     -6185.4181      69.622291      27693.456      415.92393      8229.8378      1.5703102      0.81763694   
     52400  -6116.1951     -6183.0395      66.844456      25572.547      399.32912      8241.0205      1.5681793      0.81763694   
     52500  -6116.6913     -6184.1166      67.425353      27835.811      402.79941      8253.2081      1.5658636      0.81763694   
     52600  -6115.6852     -6184.2463      68.561092      29467.301      409.58432      8264.4089      1.5637413      0.81763694   
     52700  -6116.1201     -6183.1348      67.014699      25268.106      400.34616      8270.6459      1.5625621      0.81763694   
     52800  -6117.1027     -6184.8524      67.749739      23238.323      404.73729      8270.1881      1.5626486      0.81763694   
     52900  -6115.8957     -6183.4838      67.588151      24694.096      403.77196      8263.5602      1.5639019      0.81763694   
     53000  -6112.5359     -6181.0539      68.518023      30210.322      409.32702      8253.6016      1.5657889      0.83719713   
     53100  -6115.9376     -6184.7199      68.782315      27847.367      410.90591      8245.2258      1.5673795      0.83719713   
[...]
   2006100  -6116.5763     -6187.7529      71.176611      27852.048      425.20944      8212.1097      1.5737001      0.8130203    
   2006200  -6115.3031     -6182.5482      67.245124      32204.401      401.72272      8196.0261      1.5767883      0.8130203    
   2006300  -6115.3858     -6181.727       66.341233      29151.905      396.32287      8189.9208      1.5779637      0.8130203    
   2006400  -6117.5694     -6182.7753      65.205879      31154.347      389.54026      8193.2079      1.5773306      0.8130203    
   2006500  -6116.9133     -6186.7172      69.803917      27607.509      417.00896      8206.2456      1.5748247      0.8130203    
   2006600  -6117.3931     -6182.924       65.530867      31409.705      391.48174      8222.8102      1.5716522      0.8130203    
   2006700  -6116.4638     -6183.0845      66.620742      27846.258      397.99265      8242.5705      1.5678844      0.8130203    
   2006800  -6116.6377     -6184.7884      68.150705      29166.557      407.13266      8262.0409      1.5641895      0.8130203    
   2006900  -6115.118      -6183.6472      68.529162      30792.175      409.39356      8277.1345      1.5613372      0.8130203    
   2007000  -6116.9889     -6184.0486      67.059713      26221.19       400.61507      8287.9544      1.5592989      0.86089764   
   2007100  -6113.4288     -6177.5825      64.153713      25432.204      383.25461      8291.0307      1.5587203      0.86089764   
   2007200  -6114.3097     -6184.1236      69.813894      26122.767      417.06856      8289.6148      1.5589865      0.86089764   
   2007300  -6117.1327     -6184.8776      67.744821      28280.674      404.70791      8283.2977      1.5601755      0.86089764   
   2007400  -6116.1195     -6183.6383      67.518806      26178.967      403.3577       8268.42        1.5629828      0.86089764   
   2007500  -6115.7192     -6183.2298      67.510664      25769.976      403.30905      8247.3341      1.5669788      0.86089764   
   2007600  -6113.9438     -6183.0759      69.132081      29453.43       412.99541      8226.532       1.5709412      0.86089764   
   2007700  -6116.2727     -6182.881       66.608287      25570.544      397.91825      8212.1249      1.5736972      0.86089764   
   2007800  -6116.211      -6182.857       66.646061      33960.482      398.14391      8204.0687      1.5752425      0.86089764   
   2007900  -6112.403      -6183.3898      70.986771      27412.217      424.07533      8210.156       1.5740746      0.86089764   
   2008000  -6114.8884     -6183.8819      68.993433      25865.924      412.16712      8227.3657      1.570782       0.85986896   
   2008100  -6114.0756     -6180.8966      66.821075      28250.075      399.18945      8250.3034      1.5664149      0.85986896   
   2008200  -6115.2134     -6184.6352      69.42178       24007.434      414.72607      8278.1309      1.5611493      0.85986896   
   2008300  -6115.6924     -6184.2179      68.525552      28827.169      409.372        8300.0275      1.5570307      0.85986896   
   2008400  -6116.7465     -6183.1171      66.370605      29518.074      396.49834      8311.7136      1.5548416      0.85986896   
   2008500  -6118.6658     -6183.4323      64.766513      22624.944      386.91549      8308.7984      1.5553871      0.85986896   
   2008600  -6119.1659     -6186.4766      67.310684      23767.721      402.11437      8290.9288      1.5587395      0.85986896   
   2008700  -6115.466      -6183.7188      68.252738      27460.599      407.74221      8258.4812      1.5648638      0.85986896   
   2008800  -6114.5618     -6182.5968      68.035087      27387.998      406.44196      8224.0053      1.5714238      0.85986896   
   2008900  -6112.9765     -6180.8029      67.826401      29179.249      405.19527      8197.409       1.5765223      0.85986896   
   2009000  -6113.0496     -6182.0229      68.973256      31480.169      412.04659      8184.5268      1.5790037      0.80979526   
   2009100  -6113.381      -6185.3442      71.963238      26052.28       429.90876      8187.4313      1.5784435      0.80979526   
   2009200  -6116.6013     -6181.9288      65.327418      28977.787      390.26633      8200.4701      1.5759338      0.80979526   
   2009300  -6115.2338     -6183.741       68.507255      26720.605      409.2627       8220.4365      1.572106       0.80979526   
   2009400  -6116.5323     -6184.369       67.836703      30670.027      405.25682      8244.1449      1.567585       0.80979526   
   2009500  -6114.7723     -6183.8004      69.028157      27098.62       412.37457      8267.4398      1.5631681      0.80979526   
   2009600  -6112.3658     -6182.5616      70.195828      26077.403      419.35024      8285.8854      1.5596882      0.80979526   
   2009700  -6114.7004     -6182.8298      68.129435      26540.956      407.00559      8297.5995      1.5574863      0.80979526   
   2009800  -6115.3461     -6183.4091      68.063055      28849.005      406.60904      8301.6624      1.5567241      0.80979526   
   2009900  -6115.0101     -6181.1918      66.181634      28491.951      395.36942      8295.9953      1.5577875      0.80979526   
   2010000  -6116.7442     -6185.4003      68.656071      24977.472      410.15172      8281.6587      1.5604842      0.86224199   
   2010100  -6116.231      -6183.0522      66.821217      27231.934      399.19029      8260.3737      1.5645052      0.86224199   
   2010200  -6114.4922     -6181.7258      67.233528      26501.527      401.65344      8237.7039      1.5688107      0.86224199   
   2010300  -6115.8428     -6181.2169      65.374101      29944.907      390.54522      8218.5429      1.5724683      0.86224199   
   2010400  -6116.3702     -6183.8176      67.44744       30641.466      402.93136      8205.7         1.5749294      0.86224199   
   2010500  -6114.7509     -6183.8523      69.101383      25740.032      412.81202      8203.382       1.5753744      0.86224199   
   2010600  -6116.5671     -6183.0553      66.488208      25472.108      397.20089      8212.1582      1.5736908      0.86224199   
   2010700  -6118.5313     -6183.8585      65.327162      28984.054      390.2648       8223.9855      1.5714276      0.86224199   
   2010800  -6121.3149     -6186.7324      65.417522      27823.907      390.80462      8235.0907      1.5693085      0.86224199   
   2010900  -6120.9132     -6186.344       65.430866      25327.676      390.88433      8239.4264      1.5684827      0.86224199   
   2011000  -6119.1971     -6185.8106      66.613494      29295.917      397.94936      8239.0897      1.5685468      0.87618077   
   2011100  -6118.7585     -6185.4537      66.695263      33249.308      398.43785      8238.4554      1.5686676      0.87618077   
   2011200  -6118.855      -6184.7746      65.91963       28579.432      393.80421      8237.83        1.5687867      0.87618077   
   2011300  -6116.0726     -6184.7795      68.706819      27274.852      410.45489      8234.7201      1.5693791      0.87618077   
   2011400  -6114.4408     -6184.3995      69.958753      30843.919      417.93395      8232.8581      1.5697341      0.87618077   
   2011500  -6114.1953     -6181.8703      67.674928      31928.217      404.29037      8234.8566      1.5693531      0.87618077   
   2011600  -6109.9372     -6180.5951      70.657925      30491.915      422.11081      8243.4284      1.5677212      0.87618077   
   2011700  -6112.6356     -6182.4094      69.773737      29906.197      416.82867      8259.4553      1.5646792      0.87618077   
   2011800  -6113.5117     -6184.7662      71.254488      27649.646      425.67468      8277.1541      1.5613335      0.87618077   
   2011900  -6113.6551     -6181.4634      67.808291      26059.628      405.08708      8289.5117      1.5590059      0.87618077   
   2012000  -6114.839      -6182.2131      67.3741        27075.351      402.49322      8298.6835      1.5572829      0.80271091   
   2012100  -6113.8263     -6181.3166      67.49034       25320.018      403.18764      8302.6705      1.5565351      0.80271091   
   2012200  -6116.6996     -6182.3175      65.617879      27728.592      392.00155      8298.8534      1.557251       0.80271091   
   2012300  -6117.0607     -6186.5933      69.532591      25618.918      415.38805      8287.9126      1.5593067      0.80271091   
   2012400  -6114.8555     -6182.8762      68.020751      29178.743      406.35631      8267.1004      1.5632322      0.80271091   
   2012500  -6114.0404     -6181.8183      67.777915      26247.603      404.90561      8245.1583      1.5673923      0.80271091   
   2012600  -6112.3685     -6179.9769      67.608406      24483.725      403.89296      8227.5251      1.5707516      0.80271091   
   2012700  -6112.3347     -6181.8849      69.550192      25793.368      415.4932       8218.2959      1.5725155      0.80271091   
   2012800  -6114.8033     -6183.4535      68.650237      29979.196      410.11687      8219.899       1.5722088      0.80271091   
   2012900  -6114.515      -6179.5115      64.996445      31100.354      388.2891       8228.3636      1.5705915      0.80271091   
   2013000  -6114.8484     -6183.7649      68.916449      24581.899      411.70722      8244.1337      1.5675871      0.90730211   
   2013100  -6116.2001     -6183.0305      66.83036       28352.218      399.24491      8261.4683      1.564298       0.90730211   
   2013200  -6117.2595     -6183.9847      66.725199      24220.402      398.61668      8278.8796      1.5610081      0.90730211   
   2013300  -6116.7132     -6183.1718      66.45856       25782.004      397.02378      8291.5315      1.5586262      0.90730211   
   2013400  -6117.2687     -6183.6984      66.429615      26756.984      396.85086      8297.5169      1.5575018      0.90730211   
   2013500  -6118.1936     -6185.47        67.276354      26561.299      401.90928      8294.9755      1.557979       0.90730211   
   2013600  -6116.8159     -6185.8594      69.043568      27500.793      412.46663      8280.2191      1.5607555      0.90730211   
   2013700  -6118.9564     -6185.635       66.678676      27466.185      398.33875      8254.6155      1.5655966      0.90730211   
   2013800  -6117.2594     -6184.8914      67.632097      28329.545      404.03449      8224.4017      1.5713481      0.90730211   
   2013900  -6115.4162     -6184.5016      69.085353      29239.648      412.71625      8197.8572      1.5764361      0.90730211   
   2014000  -6116.1304     -6181.5648      65.434419      27836.16       390.90556      8179.708       1.5799339      0.86788613   
   2014100  -6118.7899     -6184.1194      65.329465      25661.738      390.27856      8178.7715      1.5801148      0.86788613   
   2014200  -6117.1437     -6184.8683      67.724614      24362.718      404.58719      8192.8881      1.5773922      0.86788613   
   2014300  -6117.3873     -6185.7402      68.352931      26683.185      408.34076      8219.8193      1.5722241      0.86788613   
   2014400  -6118.783      -6186.2347      67.451707      25724.904      402.95685      8252.9228      1.5659177      0.86788613   
   2014500  -6116.5932     -6184.6689      68.075746      27703.098      406.68486      8282.9429      1.5602423      0.86788613   
   2014600  -6114.9008     -6182.8808      67.980011      28411.254      406.11294      8306.7621      1.5557684      0.86788613   
   2014700  -6116.4224     -6185.1172      68.69473       26457.142      410.38267      8320.1749      1.5532604      0.86788613   
   2014800  -6116.5677     -6184.3239      67.75623       25157.641      404.77607      8319.6553      1.5533574      0.86788613   
   2014900  -6116.4406     -6184.4493      68.008689      27377.051      406.28426      8303.4859      1.5563822      0.86788613   
   2015000  -6116.3578     -6184.4968      68.138936      28514.271      407.06235      8273.7411      1.5619775      0.8746057    
   2015100  -6115.5041     -6184.0817      68.577584      25825.909      409.68284      8235.9538      1.569144       0.8746057    
   2015200  -6114.0103     -6181.4054      67.395133      23840.624      402.61887      8199.7827      1.5760659      0.8746057    
   2015300  -6113.8086     -6182.9641      69.155529      29012.946      413.13549      8173.4743      1.5811389      0.8746057    
   2015400  -6113.6518     -6181.5298      67.878035      33309.718      405.50373      8164.0323      1.5829675      0.8746057    
   2015500  -6114.5416     -6181.5117      66.970154      30817.18       400.08004      8173.2415      1.5811839      0.8746057    
   2015600  -6116.747      -6183.6165      66.86945       28208.249      399.47844      8198.6156      1.5762903      0.8746057    
   2015700  -6116.3276     -6183.5786      67.251045      29820.976      401.75809      8233.0905      1.5696898      0.8746057    
   2015800  -6119.229      -6188.3039      69.074973      25794.365      412.65425      8269.3098      1.5628146      0.8746057    
   2015900  -6120.001      -6184.273       64.272056      24139.746      383.9616       8295.579       1.5578657      0.8746057    
   2016000  -6119.6475     -6186.5555      66.907989      25336.45       399.70867      8305.0328      1.5560923      0.80463999   
   2016100  -6119.0067     -6185.358       66.351294      25178.05       396.38297      8294.7914      1.5580136      0.80463999   
   2016200  -6118.9794     -6184.3577      65.378333      27230.756      390.5705       8271.8232      1.5623397      0.80463999   
   2016300  -6118.8068     -6185.521       66.714193      29516.75       398.55093      8242.3036      1.5679352      0.80463999   
   2016400  -6118.2004     -6182.7997      64.599324      30313.03       385.9167       8212.2393      1.5736753      0.80463999   
   2016500  -6117.5788     -6183.9145      66.335711      31236.92       396.28988      8190.6227      1.5778285      0.80463999   
   2016600  -6117.1628     -6184.8212      67.65845       34208.069      404.19193      8179.2883      1.580015       0.80463999   
   2016700  -6116.4376     -6186.4267      69.989117      30352.248      418.11535      8181.2126      1.5796433      0.80463999   
   2016800  -6116.9173     -6184.217       67.299663      26477.415      402.04853      8197.658       1.5764744      0.80463999   
   2016900  -6118.0238     -6183.155       65.13118       30349.951      389.09401      8221.541       1.5718949      0.80463999   
   2017000  -6119.1752     -6186.5809      67.405658      26881.378      402.68175      8249.5606      1.5665559      1.0106519    
   2017100  -6121.0924     -6187.6798      66.587356      26568.186      397.79321      8271.5754      1.5623865      1.0106519    
   2017200  -6120.2823     -6186.2778      65.9955        28343.971      394.25746      8282.4351      1.560338       1.0106519    
   2017300  -6118.3509     -6184.9213      66.570454      29011.937      397.69224      8284.4716      1.5599544      1.0106519    
   2017400  -6118.7373     -6183.7175      64.980225      26416.451      388.1922       8279.708       1.5608519      1.0106519    
   2017500  -6119.2436     -6185.182       65.938401      28729.235      393.91635      8267.0407      1.5632435      1.0106519    
   2017600  -6118.7226     -6184.6061      65.883485      33131.063      393.58828      8248.9812      1.5666659      1.0106519    
   2017700  -6117.3295     -6185.9071      68.577637      28789.716      409.68316      8230.4553      1.5701923      1.0106519    
   2017800  -6115.8968     -6183.5536      67.656784      29377.763      404.18198      8213.4628      1.5734408      1.0106519    
   2017900  -6117.0656     -6184.2303      67.164718      28501.049      401.24237      8204.4687      1.5751657      1.0106519    
   2018000  -6117.3174     -6185.4944      68.176989      32448.841      407.28968      8203.3638      1.5753779      0.87193584   
   2018100  -6116.7783     -6185.1349      68.356635      31673.721      408.36289      8209.1619      1.5742652      0.87193584   
   2018200  -6116.3744     -6182.4715      66.097156      31920.063      394.86475      8222.8933      1.5716363      0.87193584   
   2018300  -6116.0724     -6183.8542      67.781841      32971.259      404.92907      8241.7003      1.56805        0.87193584   
   2018400  -6117.791      -6185.357       67.56598       31621.249      403.63951      8262.8597      1.5640345      0.87193584   
   2018500  -6116.3628     -6184.3553      67.992485      26860.997      406.18746      8280.3599      1.560729       0.87193584   
   2018600  -6119.5314     -6185.7821      66.250657      28362.029      395.78177      8291.2606      1.5586771      0.87193584   
   2018700  -6119.4348     -6186.3833      66.948539      24555.898      399.95092      8289.3398      1.5590383      0.87193584   
   2018800  -6118.2591     -6185.2506      66.99147       24893.604      400.20738      8273.9802      1.5619324      0.87193584   
   2018900  -6116.7274     -6183.4135      66.686124      29701.625      398.38325      8254.107       1.565693       0.87193584   
   2019000  -6114.6218     -6182.5843      67.96247       31303.946      406.00815      8238.8235      1.5685975      0.81951808   
   2019100  -6114.9496     -6187.1268      72.17717       26361.994      431.18678      8230.1588      1.5702489      0.81951808   
   2019200  -6112.7891     -6181.7413      68.952135      29015.657      411.92041      8226.1297      1.571018       0.81951808   
   2019300  -6113.7427     -6181.2264      67.48363       29253.502      403.14755      8232.7105      1.5697622      0.81951808   
   2019400  -6113.4099     -6181.6843      68.274411      29790.521      407.87168      8249.0418      1.5666544      0.81951808   
   2019500  -6114.4319     -6183.7868      69.354892      28890.847      414.32648      8270.934       1.5625077      0.81951808   
   2019600  -6115.6994     -6182.848       67.148625      29120.22       401.14623      8294.3891      1.5580892      0.81951808   
   2019700  -6117.0957     -6183.97        66.874238      24969.202      399.50704      8314.0112      1.5544119      0.81951808   
   2019800  -6118.9843     -6186.5056      67.521265      25429.769      403.37238      8322.9311      1.552746       0.81951808   
   2019900  -6117.8424     -6184.6288      66.786393      25752.341      398.98225      8315.9777      1.5540443      0.81951808   
   2020000  -6115.8066     -6185.6957      69.889106      27042.813      417.51788      8294.1487      1.5581343      0.93748368   
   2020033  -6114.4727     -6184.2018      69.729128      28065.821      416.56217      8284.8563      1.559882       0.93748368   
Loop time of 8577.18 on 1 procs for 2000000 steps with 1296 atoms

Performance: 10.073 ns/day, 2.383 hours/ns, 233.177 timesteps/s, 302.197 katom-step/s
99.8% CPU use with 1 MPI tasks x 1 OpenMP threads

MPI task timing breakdown:
Section |  min time  |  avg time  |  max time  |%varavg| %total
---------------------------------------------------------------
Pair    | 6599.7     | 6599.7     | 6599.7     |   0.0 | 76.95
Neigh   | 86.147     | 86.147     | 86.147     |   0.0 |  1.00
Comm    | 82.9       | 82.9       | 82.9       |   0.0 |  0.97
Output  | 6.3111     | 6.3111     | 6.3111     |   0.0 |  0.07
Modify  | 1758.4     | 1758.4     | 1758.4     |   0.0 | 20.50
Other   |            | 43.69      |            |       |  0.51

Nlocal:           1296 ave        1296 max        1296 min
Histogram: 1 0 0 0 0 0 0 0 0 0
Nghost:           4410 ave        4410 max        4410 min
Histogram: 1 0 0 0 0 0 0 0 0 0
Neighs:              0 ave           0 max           0 min
Histogram: 1 0 0 0 0 0 0 0 0 0
FullNghs:       232286 ave      232286 max      232286 min
Histogram: 1 0 0 0 0 0 0 0 0 0

Total # of neighbors = 232286
Ave neighs/atom = 179.23302
Neighbor list builds = 200000
Dangerous builds = 200000

unfix		3
unfix		4
Total wall time: 2:24:23
