LAMMPS (27 Jun 2024)
KOKKOS mode with Kokkos version 4.3.1 is enabled (src/KOKKOS/kokkos.cpp:72)
  will use up to 1 GPU(s) per node
WARNING: When using a single thread, the Kokkos Serial backend (i.e. Makefile.kokkos_mpi_only) gives better performance than the OpenMP backend (src/KOKKOS/kokkos.cpp:202)
  using 1 OpenMP thread(s) per MPI task
Reading data file ...
  orthogonal box = (0 0 0) to (19.665067 19.665067 19.640133)
  1 by 1 by 1 MPI processor grid
  reading atoms ...
  1296 atoms
  read_data CPU = 0.015 seconds
ACE/AL version: 2023.11.25
Loading /pc2/users/a/acepdw01/work/phase_diagram/pot_dir/interim_potential_ladder_step_1.yaml
Total number of basis functions
	H: 23 (r=1) 664 (r>1)
	O: 23 (r=1) 664 (r>1)
Mapping LAMMPS atom type #1(H) -> ACE species type #0
Mapping LAMMPS atom type #2(O) -> ACE species type #1
Loading ASI /pc2/users/a/acepdw01/work/phase_diagram/pot_dir/interim_potential_ladder_step_1.asi
LINEAR ASI is loaded

CITE-CITE-CITE-CITE-CITE-CITE-CITE-CITE-CITE-CITE-CITE-CITE-CITE

Your simulation uses code contributions which should be cited:
- Type Label Framework: https://doi.org/10.1021/acs.jpcb.3c08419
The log file lists these citations in BibTeX format.

CITE-CITE-CITE-CITE-CITE-CITE-CITE-CITE-CITE-CITE-CITE-CITE-CITE

Switching to 'neigh_modify every 1 delay 0 check yes' setting during minimization
Neighbor list info ...
  update: every = 1 steps, delay = 0 steps, check = yes
  max neighbors/atom: 2000, page size: 100000
  master list distance cutoff = 6.5
  ghost atom cutoff = 6.5
  binsize = 6.5, bins = 4 4 4
  1 neighbor lists, perpetual/occasional/extra = 1 0 0
  (1) pair pace/extrapolation/kk, perpetual
      attributes: full, newton on, kokkos_device
      pair build: full/bin/kk/device
      stencil: full/bin/3d
      bin: kk/device
Setting up cg/kk style minimization ...
  Unit style    : metal
  Current step  : 0
WARNING: Fix with atom-based arrays not compatible with sending data in Kokkos communication, switching to classic exchange/border communication (src/KOKKOS/comm_kokkos.cpp:754)
WARNING: Fix with atom-based arrays not compatible with Kokkos sorting on device, switching to classic host sorting (src/KOKKOS/atom_kokkos.cpp:216)
Per MPI rank memory allocation (min/avg/max) = 1123 | 1123 | 1123 Mbytes
   Step         TotEng         PotEng         KinEng         Press           Temp          Volume        Density     c_max_pace_gamma
         0  -6250.4972     -6250.4972      0              21939.986      0              7595.1311      1.7015372      0.62320149   
        33  -6250.6452     -6250.6452      0              22350.057      0              7595.1311      1.7015372      0.62320149   
Loop time of 0.25432 on 1 procs for 33 steps with 1296 atoms

99.8% CPU use with 1 MPI tasks x 1 OpenMP threads

Minimization stats:
  Stopping criterion = force tolerance
  Energy initial, next-to-last, final = 
     -6250.49717465846  -6250.64523648356  -6250.64523648875
  Force two-norm initial, final = 0.82052426 0.0003006328
  Force max component initial, final = 0.040662504 1.1270972e-05
  Final line search alpha, max atom move = 1 1.1270972e-05
  Iterations, force evaluations = 33 66

MPI task timing breakdown:
Section |  min time  |  avg time  |  max time  |%varavg| %total
---------------------------------------------------------------
Pair    | 0.22857    | 0.22857    | 0.22857    |   0.0 | 89.87
Neigh   | 0          | 0          | 0          |   0.0 |  0.00
Comm    | 0.0017574  | 0.0017574  | 0.0017574  |   0.0 |  0.69
Output  | 0          | 0          | 0          |   0.0 |  0.00
Modify  | 0.014303   | 0.014303   | 0.014303   |   0.0 |  5.62
Other   |            | 0.009692   |            |       |  3.81

Nlocal:           1296 ave        1296 max        1296 min
Histogram: 1 0 0 0 0 0 0 0 0 0
Nghost:           4514 ave        4514 max        4514 min
Histogram: 1 0 0 0 0 0 0 0 0 0
Neighs:              0 ave           0 max           0 min
Histogram: 1 0 0 0 0 0 0 0 0 0
FullNghs:       251424 ave      251424 max      251424 min
Histogram: 1 0 0 0 0 0 0 0 0 0

Total # of neighbors = 251424
Ave neighs/atom = 194
Neighbor list builds = 0
Dangerous builds = 0
Setting up Verlet run ...
  Unit style    : metal
  Current step  : 33
  Time step     : 0.0005
WARNING: Fix with atom-based arrays not compatible with Kokkos sorting on device, switching to classic host sorting (src/KOKKOS/atom_kokkos.cpp:216)
Per MPI rank memory allocation (min/avg/max) = 1123 | 1123 | 1123 Mbytes
   Step         TotEng         PotEng         KinEng         Press           Temp          Volume        Density     c_max_pace_gamma
        33  -6175.3189     -6250.6452      75.326349      32943.344      450            7595.1311      1.7015372      0.62320149   
       100  -6163.3119     -6194.9868      31.674938      36414.443      189.22624      7600.4108      1.7003552      0.62320149   
       200  -6149.6973     -6199.8325      50.135205      38511.626      299.50797      7661.2252      1.6868578      0.62320149   
       300  -6141.3381     -6195.9945      54.656356      36399.453      326.51735      7777.4091      1.6616585      0.62320149   
       400  -6134.8477     -6190.2426      55.394896      33782.233      330.9294       7917.6519      1.6322261      0.62320149   
       500  -6127.727      -6190.4484      62.721438      31586.651      374.6982       8046.1746      1.6061543      0.62320149   
       600  -6124.0763     -6189.9296      65.85331       29494.604      393.40801      8139.384       1.5877612      0.62320149   
       700  -6121.5725     -6185.7098      64.137257      29742.424      383.15631      8197.9352      1.5764211      0.62320149   
       800  -6117.7297     -6185.0743      67.34465       26944.082      402.31729      8226.6291      1.5709226      0.62320149   
       900  -6111.8659     -6180.2887      68.422724      31012.921      408.7577       8230.6486      1.5701555      0.62320149   
      1000  -6107.731      -6178.4524      70.72143       33114.433      422.49019      8220.3668      1.5721194      0.88965217   
      1100  -6105.1201     -6176.1323      71.012212      30814.522      424.22732      8204.2179      1.5752139      0.88965217   
      1200  -6108.3713     -6179.9704      71.599162      26425.238      427.73376      8187.5929      1.5784124      0.88965217   
      1300  -6107.3134     -6178.2599      70.94647       25708.557      423.83458      8169.505       1.5819071      0.88965217   
      1400  -6105.7741     -6179.3832      73.609028      25913.053      439.74071      8157.5906      1.5842175      0.88965217   
      1500  -6103.8072     -6176.3945      72.587313      30334.758      433.63698      8152.4537      1.5852157      0.88965217   
      1600  -6100.2343     -6175.4244      75.190045      31399.547      449.18572      8159.5251      1.5838419      0.88965217   
      1700  -6100.3295     -6174.9985      74.669008      31907.071      446.07304      8180.213       1.5798364      0.88965217   
      1800  -6100.4005     -6175.0707      74.670135      32473.864      446.07977      8207.6692      1.5745515      0.88965217   
      1900  -6099.3504     -6174.3515      75.001167      30618.494      448.05736      8239.3192      1.5685031      0.88965217   
      2000  -6101.5965     -6175.7517      74.155218      27846.648      443.00365      8267.4227      1.5631713      0.81154361   
      2100  -6098.3019     -6171.4574      73.155534      29484.066      437.03153      8285.401       1.5597794      0.81154361   
      2200  -6095.7288     -6171.8584      76.129624      25079.722      454.79877      8298.7434      1.5572717      0.81154361   
      2300  -6097.2542     -6173.2269      75.972728      22282.649      453.86147      8304.2311      1.5562426      0.81154361   
      2400  -6096.9243     -6172.1935      75.269242      24772.131      449.65884      8298.2495      1.5573643      0.81154361   
      2500  -6096.0547     -6170.2632      74.208457      26471.099      443.32171      8282.1667      1.5603885      0.81154361   
      2600  -6093.552      -6171.8478      78.295818      29728.865      467.73962      8263.4254      1.5639275      0.81154361   
      2700  -6095.1898     -6173.1104      77.920595      32211.454      465.49803      8249.344       1.566597       0.81154361   
      2800  -6097.3491     -6172.8713      75.522246      28883.471      451.17029      8238.9065      1.5685817      0.81154361   
      2900  -6098.5076     -6176.087       77.579356      32112.222      463.45948      8232.015       1.5698948      0.81154361   
      3000  -6100.4839     -6176.9728      76.488844      30706.139      456.94475      8229.2416      1.5704239      0.80571783   
      3100  -6100.5006     -6176.1066      75.60601       33405.516      451.67069      8228.2004      1.5706226      0.80571783   
      3200  -6101.8435     -6175.3818      73.538305      35227.593      439.31821      8229.8555      1.5703068      0.80571783   
      3300  -6098.9035     -6177.0478      78.144381      32978.183      466.83494      8235.0241      1.5693212      0.80571783   
      3400  -6100.3656     -6173.8618      73.496132      33900.862      439.06627      8244.147       1.5675846      0.80571783   
      3500  -6097.9848     -6175.1797      77.194952      31877.683      461.16304      8259.598       1.5646522      0.80571783   
      3600  -6099.7715     -6173.1284      73.356865      26827.706      438.23429      8276.2311      1.5615076      0.80571783   
      3700  -6100.4774     -6176.7233      76.245946      25219.816      455.49367      8293.3147      1.558291       0.80571783   
      3800  -6103.2912     -6176.2632      72.971922      25717.622      435.93464      8304.0033      1.5562853      0.80571783   
      3900  -6101.0347     -6176.6121      75.577353      25451.021      451.4995       8301.3882      1.5567755      0.80571783   
      4000  -6101.1732     -6175.36        74.186833      29752.45       443.19252      8285.8166      1.5597012      0.77859623   
      4100  -6097.7011     -6174.3124      76.611333      28543.846      457.6765       8261.4912      1.5642936      0.77859623   
      4200  -6096.0877     -6172.6262      76.538495      25945.702      457.24136      8232.9318      1.56972        0.77859623   
      4300  -6095.6017     -6172.8356      77.233902      29493.492      461.39573      8206.3087      1.5748125      0.77859623   
      4400  -6095.837      -6174.3755      78.538483      30638.902      469.1893       8189.4351      1.5780573      0.77859623   
      4500  -6096.1505     -6171.9997      75.849164      31726.458      453.1233       8188.4375      1.5782496      0.77859623   
      4600  -6099.0386     -6174.6614      75.622848      32103.416      451.77128      8205.1126      1.5750421      0.77859623   
      4700  -6099.2777     -6177.2082      77.930474      33680.943      465.55705      8230.7701      1.5701323      0.77859623   
      4800  -6100.0901     -6175.5678      75.477769      32485.313      450.90458      8258.1678      1.5649231      0.77859623   
      4900  -6100.4514     -6175.9915      75.540093      32057.192      451.2769       8284.2165      1.5600024      0.77859623   
      5000  -6100.2223     -6175.1572      74.934893      28663.669      447.66144      8306.1423      1.5558845      0.93888373   
      5100  -6098.9429     -6173.3028      74.359939      28755.728      444.22666      8317.3661      1.5537849      0.93888373   
      5200  -6099.4358     -6175.4192      75.983461      30707.68       453.92558      8317.384       1.5537816      0.93888373   
      5300  -6100.0266     -6174.748       74.721454      32813.055      446.38635      8306.2364      1.5558669      0.93888373   
      5400  -6098.9255     -6174.6984      75.77286       34185.091      452.66746      8282.995       1.5602325      0.93888373   
      5500  -6099.5689     -6175.6714      76.102406      32097.831      454.63616      8248.2687      1.5668013      0.93888373   
      5600  -6098.8395     -6175.7508      76.911294      32687.432      459.46846      8208.4784      1.5743963      0.93888373   
      5700  -6099.0939     -6175.7558      76.661954      31530.94       457.97891      8173.0548      1.58122        0.93888373   
      5800  -6098.0175     -6174.6512      76.633688      36140.719      457.81005      8147.7942      1.5861223      0.93888373   
      5900  -6098.3293     -6173.8837      75.554451      30743.241      451.36268      8141.6429      1.5873207      0.93888373   
      6000  -6098.136      -6174.6741      76.538069      31540.663      457.23882      8158.5228      1.5840365      0.82335442   
      6100  -6101.1485     -6177.812       76.66355       29215.947      457.98844      8197.353       1.576533       0.82335442   
      6200  -6102.2924     -6178.1232      75.83076       30184.82       453.01335      8248.9513      1.5666716      0.82335442   
      6300  -6103.0028     -6176.7464      73.74361       25624.377      440.54471      8302.1267      1.556637       0.82335442   
      6400  -6100.737      -6177.0633      76.32629       24176.698      455.97365      8344.4111      1.5487489      0.82335442   
      6500  -6103.5427     -6176.4602      72.917523      24337.065      435.60966      8366.0122      1.5447501      0.82335442   
      6600  -6102.3349     -6177.5011      75.166161      30838.312      449.04304      8363.0444      1.5452983      0.82335442   
      6700  -6102.4789     -6172.909       70.430158      28349.413      420.75013      8334.1608      1.5506538      0.82335442   
      6800  -6101.6441     -6176.2784      74.634307      30888.088      445.86573      8286.656       1.5595432      0.82335442   
      6900  -6099.3727     -6173.7687      74.396021      29598.301      444.44221      8229.2123      1.5704295      0.82335442   
      7000  -6100.3248     -6174.4135      74.088678      30608.709      442.60614      8176.2308      1.5806058      0.79559      
      7100  -6096.8811     -6172.651       75.769829      32778.356      452.64935      8135.9484      1.5884316      0.79559      
      7200  -6096.1604     -6173.2434      77.083054      36162.834      460.49456      8120.4668      1.59146        0.79559      
      7300  -6095.9781     -6175.3216      79.343514      35144.58       473.99856      8133.5862      1.588893       0.79559      
      7400  -6097.6792     -6176.4052      78.726015      33801.53       470.30962      8165.876       1.5826101      0.79559      
      7500  -6101.0917     -6175.4298      74.338098      31227.116      444.09618      8213.1828      1.5734945      0.79559      
      7600  -6100.1256     -6175.0528      74.927166      28809.267      447.61527      8266.0411      1.5634326      0.79559      
      7700  -6100.1487     -6175.6712      75.522523      27423.625      451.17194      8313.6437      1.5544806      0.79559      
      7800  -6103.044      -6175.4963      72.452233      23737.11       432.83001      8349.0208      1.5478938      0.79559      
      7900  -6103.7629     -6175.6146      71.851718      26442.985      429.24253      8363.4036      1.5452319      0.79559      
      8000  -6102.3773     -6175.0842      72.706887      29621.457      434.35131      8352.9012      1.5471748      0.83812269   
      8100  -6101.4462     -6177.3986      75.952366      28901.435      453.73982      8324.733       1.5524099      0.83812269   
      8200  -6098.9858     -6173.7322      74.746397      27856.79       446.53536      8288.2677      1.5592399      0.83812269   
      8300  -6097.6098     -6173.0334      75.423566      33050.941      450.58077      8251.5025      1.5661872      0.83812269   
      8400  -6097.8998     -6176.1176      78.217776      31335.867      467.27339      8225.3232      1.5711721      0.83812269   
      8500  -6099.746      -6174.3002      74.554225      33494.521      445.38732      8209.8156      1.5741399      0.83812269   
      8600  -6098.3014     -6175.9154      77.614018      32850.991      463.66654      8206.7549      1.5747269      0.83812269   
      8700  -6099.5885     -6174.015       74.426562      26234.223      444.62466      8217.1683      1.5727313      0.83812269   
      8800  -6099.3225     -6176.2583      76.935778      26701.638      459.61474      8238.5942      1.5686412      0.83812269   
      8900  -6098.8406     -6176.4271      77.586545      29958.398      463.50242      8267.0547      1.5632409      0.83812269   
      9000  -6098.4963     -6174.5191      76.022824      30489.404      454.16074      8297.343       1.5575345      0.85061691   
      9100  -6098.5831     -6175.4694      76.886212      28699.814      459.31863      8323.8487      1.5525748      0.85061691   
      9200  -6098.9674     -6172.5703      73.60295       30617.405      439.7044       8341.6714      1.5492576      0.85061691   
      9300  -6099.5705     -6177.2203      77.649821      30719.676      463.88043      8347.2188      1.548228       0.85061691   
      9400  -6100.6248     -6175.5043      74.879412      32375.12       447.32999      8337.3754      1.5500559      0.85061691   
      9500  -6100.4507     -6176.4241      75.973334      28227.181      453.86509      8315.5694      1.5541206      0.85061691   
      9600  -6098.6203     -6175.722       77.101749      29150.478      460.60625      8284.916       1.5598707      0.85061691   
      9700  -6097.3589     -6174.4017      77.04282       30987.113      460.25421      8255.0674      1.5655109      0.85061691   
      9800  -6097.0234     -6170.7559      73.732417      35992.997      440.47784      8232.9456      1.5697174      0.85061691   
      9900  -6096.5937     -6174.2624      77.668655      34293.238      463.99295      8220.4629      1.572101       0.85061691   
     10000  -6099.0211     -6175.9101      76.889007      31872.955      459.33532      8216.7063      1.5728197      0.87064631   
     10100  -6098.8969     -6174.5489      75.651989      27997.97       451.94537      8225.035       1.5712271      0.87064631   
     10200  -6098.6579     -6172.0452      73.3873        29181.106      438.41611      8244.4419      1.5675285      0.87064631   
     10300  -6099.608      -6175.1594      75.551395      29649.706      451.34442      8269.3441      1.5628081      0.87064631   
     10400  -6097.8084     -6175.0767      77.268309      32122.99       461.60128      8295.2291      1.5579314      0.87064631   
     10500  -6100.0547     -6175.9657      75.910925      26248.215      453.49226      8314.2901      1.5543597      0.87064631   
     10600  -6097.9961     -6175.1931      77.19696       26702.833      461.17504      8323.7663      1.5525902      0.87064631   
     10700  -6096.5294     -6173.5556      77.026113      28616.527      460.1544       8325.0932      1.5523427      0.87064631   
     10800  -6099.457      -6177.7459      78.288878      27141.236      467.69816      8317.951       1.5536756      0.87064631   
     10900  -6097.9093     -6174.5386      76.629341      30809.967      457.78408      8298.7114      1.5572777      0.87064631   
     11000  -6100.5003     -6175.8621      75.361784      33427.819      450.21169      8274.0865      1.5619124      0.83957555   
     11100  -6098.8478     -6173.0064      74.158645      29981.76       443.02413      8248.6107      1.5667363      0.83957555   
     11200  -6097.9723     -6175.5759      77.60363       29176.277      463.60448      8227.4914      1.570758       0.83957555   
     11300  -6095.1112     -6172.7483      77.637048      31825.64       463.80412      8215.973       1.5729601      0.83957555   
     11400  -6096.3953     -6173.9112      77.515892      33625.896      463.08034      8217.729       1.572624       0.83957555   
     11500  -6098.767      -6175.6772      76.910197      27416.928      459.46191      8233.5009      1.5696115      0.83957555   
     11600  -6100.2045     -6176.1606      75.95605       24904.973      453.76184      8258.0123      1.5649526      0.83957555   
     11700  -6098.5747     -6172.4908      73.916101      30159.797      441.57517      8284.8905      1.5598755      0.83957555   
     11800  -6098.6791     -6173.7691      75.090037      26512.381      448.58827      8313.0476      1.5545921      0.83957555   
     11900  -6100.8818     -6177.4184      76.536565      27912.199      457.22983      8335.8729      1.5503353      0.83957555   
     12000  -6102.4186     -6176.4507      74.032162      28880.601      442.26852      8345.2433      1.5485945      0.79899611   
     12100  -6101.369      -6175.941       74.571994      31725.618      445.49347      8338.9895      1.5497559      0.79899611   
     12200  -6099.6563     -6174.3697      74.713435      28741.798      446.33845      8319.0414      1.553472       0.79899611   
     12300  -6099.5626     -6175.0504      75.487709      29714.006      450.96396      8291.0499      1.5587167      0.79899611   
     12400  -6098.0428     -6172.7131      74.670253      35037.32       446.08048      8258.526       1.5648553      0.79899611   
     12500  -6097.1947     -6174.1955      77.000817      34794.673      460.00328      8229.5405      1.5703669      0.79899611   
     12600  -6096.6903     -6175.3228      78.632461      36764.369      469.75073      8212.275       1.5736684      0.79899611   
     12700  -6097.5183     -6171.3512      73.832905      33019.435      441.07815      8209.5044      1.5741995      0.79899611   
     12800  -6099.1255     -6173.9375      74.811944      31534.011      446.92694      8222.2665      1.5717561      0.79899611   
     12900  -6101.5304     -6174.8043      73.273854      32694.004      437.73838      8247.4943      1.5669484      0.79899611   
     13000  -6099.208      -6173.3483      74.140304      31818.533      442.91456      8281.4483      1.5605239      0.79921961   
     13100  -6099.2839     -6175.4639      76.180002      30067.825      455.09972      8318.6765      1.5535401      0.79921961   
     13200  -6101.3711     -6177.8896      76.518524      27177.828      457.12205      8352.0603      1.5473305      0.79921961   
     13300  -6099.4692     -6175.9221      76.452941      25552.296      456.73027      8374.2609      1.5432285      0.79921961   
     13400  -6101.0164     -6174.3836      73.367151      29310.412      438.29574      8377.0076      1.5427225      0.79921961   
     13500  -6100.1924     -6175.1342      74.941741      30962.16       447.70235      8360.5457      1.5457601      0.79921961   
     13600  -6099.8261     -6178.0166      78.190489      29653.704      467.11038      8326.8706      1.5520114      0.79921961   
     13700  -6097.4803     -6175.61        78.129691      30776.085      466.74717      8280.511       1.5607005      0.79921961   
     13800  -6097.9811     -6176.0992      78.118087      28173.648      466.67786      8233.644       1.5695842      0.79921961   
     13900  -6097.1059     -6176.1755      79.069541      30470.436      472.36185      8194.9236      1.5770004      0.79921961   
     14000  -6097.6399     -6174.2791      76.63916       37898.945      457.84274      8171.187       1.5815815      0.85714735   
     14100  -6097.0085     -6172.5599      75.551431      34133.076      451.34464      8171.9678      1.5814304      0.85714735   
     14200  -6099.2732     -6176.1983      76.92515       32008.907      459.55124      8195.2724      1.5769333      0.85714735   
     14300  -6099.5778     -6173.3317      73.753882      31336.26       440.60607      8236.6466      1.5690121      0.85714735   
     14400  -6099.0072     -6175.0768      76.069601      28760.549      454.44019      8288.5193      1.5591926      0.85714735   
     14500  -6099.8861     -6175.4147      75.528607      27510.99       451.20828      8338.7605      1.5497984      0.85714735   
     14600  -6098.6037     -6173.7547      75.151054      30655.215      448.95278      8377.0394      1.5427166      0.85714735   
     14700  -6097.359      -6172.9096      75.550638      26855.744      451.3399       8400.426       1.5384217      0.85714735   
     14800  -6097.3537     -6173.3449      75.991166      29837.732      453.97162      8406.0009      1.5374014      0.85714735   
     14900  -6097.5533     -6173.4157      75.862396      24496.899      453.20234      8392.6769      1.5398422      0.85714735   
     15000  -6098.3963     -6173.5444      75.148082      29099.615      448.93503      8361.7601      1.5455356      0.84938021   
     15100  -6095.9837     -6175.0631      79.079413      26384.111      472.42082      8319.4636      1.5533932      0.84938021   
     15200  -6095.8784     -6173.8134      77.934982      34151.538      465.58399      8273.5188      1.5620195      0.84938021   
     15300  -6092.8152     -6173.1899      80.37474       34286.254      480.15911      8236.733       1.5689956      0.84938021   
     15400  -6094.8117     -6172.5156      77.703926      36343.327      464.20365      8219.0649      1.5723684      0.84938021   
     15500  -6096.7588     -6173.6076      76.848806      34719.858      459.09516      8218.7767      1.5724235      0.84938021   
     15600  -6093.6906     -6172.6844      78.993714      35921.794      471.90885      8232.3753      1.5698261      0.84938021   
     15700  -6093.5228     -6168.6906      75.167787      34474.199      449.05275      8260.6104      1.5644604      0.84938021   
     15800  -6095.8595     -6173.8448      77.985306      34686.763      465.88462      8299.9521      1.5570449      0.84938021   
     15900  -6095.7797     -6174.9846      79.204847      30841.859      473.17016      8338.7325      1.5498036      0.84938021   
     16000  -6094.9694     -6173.1359      78.166536      28816.348      466.96729      8372.2874      1.5435922      0.94985855   
     16100  -6097.9138     -6173.6959      75.782104      33327.215      452.72268      8395.1304      1.5393922      0.94985855   
     16200  -6094.5615     -6173.1364      78.574928      28821.598      469.40702      8399.0471      1.5386743      0.94985855   
     16300  -6095.3173     -6175.7316      80.414268      25488.042      480.39525      8385.2738      1.5412017      0.94985855   
     16400  -6093.5768     -6170.1323      76.555497      27024.064      457.34293      8357.0878      1.5463997      0.94985855   
     16500  -6096.3361     -6173.7762      77.440027      26991.507      462.62712      8322.8601      1.5527592      0.94985855   
     16600  -6095.88       -6173.7366      77.856692      30701.202      465.11628      8285.0424      1.5598469      0.94985855   
     16700  -6097.3722     -6174.8154      77.44324       29155.994      462.64632      8248.9424      1.5666733      0.94985855   
     16800  -6099.4284     -6173.4605      74.032114      31647.477      442.26823      8220.0169      1.5721863      0.94985855   
     16900  -6097.7078     -6174.1428      76.435049      35547.971      456.62338      8202.0249      1.575635       0.94985855   
     17000  -6099.5829     -6174.1161      74.533159      29817.933      445.26147      8199.1831      1.5761812      0.90003415   
     17100  -6100.275      -6175.9819      75.706949      31506.146      452.2737       8208.3697      1.5744171      0.90003415   
     17200  -6102.3578     -6174.9055      72.547684      34819.259      433.40024      8226.0617      1.571031       0.90003415   
     17300  -6102.5144     -6176.9878      74.473452      29456.076      444.90479      8251.6452      1.5661601      0.90003415   
     17400  -6099.8465     -6174.3243      74.477798      27683.626      444.93075      8277.6409      1.5612417      0.90003415   
     17500  -6100.4814     -6176.0494      75.568016      24730.248      451.44372      8302.773       1.5565159      0.90003415   
     17600  -6100.3098     -6177.3393      77.029582      27407.626      460.17512      8323.163       1.5527027      0.90003415   
     17700  -6100.2919     -6174.8701      74.578124      34364.053      445.5301       8335.7643      1.5503555      0.90003415   
     17800  -6099.7657     -6175.0577      75.292007      32758.055      449.79484      8338.7989      1.5497913      0.90003415   
     17900  -6098.2929     -6175.2106      76.917744      33605.565      459.507        8330.5586      1.5513243      0.90003415   
     18000  -6097.4664     -6174.0698      76.603448      29719.209      457.62939      8313.873       1.5544377      0.89234911   
     18100  -6097.2324     -6174.1028      76.870481      27285.392      459.22465      8290.1497      1.558886       0.89234911   
     18200  -6096.0729     -6173.4669      77.393947      27443.411      462.35184      8262.2273      1.5641542      0.89234911   
     18300  -6097.3083     -6172.6003      75.292055      35664.228      449.79513      8239.7196      1.5684269      0.89234911   
     18400  -6097.9095     -6175.6921      77.78264       35845.989      464.67389      8228.7862      1.5705108      0.89234911   
     18500  -6098.859      -6173.8937      75.034698      31953.973      448.25767      8226.8174      1.5708867      0.89234911   
     18600  -6096.995      -6174.8539      77.8589        33682.686      465.12947      8236.6637      1.5690088      0.89234911   
     18700  -6098.4306     -6174.2964      75.865778      32933.792      453.22255      8257.4278      1.5650634      0.89234911   
     18800  -6098.0948     -6173.1121      75.017332      31097.484      448.15393      8285.1758      1.5598218      0.89234911   
     18900  -6099.1143     -6172.3577      73.243426      29644.658      437.5566       8312.3131      1.5547294      0.89234911   
     19000  -6100.7932     -6174.164       73.370826      28947.364      438.31769      8334.682       1.5505568      0.74984968   
     19100  -6101.9437     -6175.7328      73.789113      27171.679      440.81654      8345.7249      1.5485051      0.74984968   
     19200  -6101.8517     -6177.5834      75.73172       25802.316      452.42169      8341.0127      1.54938        0.74984968   
     19300  -6104.3374     -6176.9903      72.652822      26795.091      434.02833      8320.0871      1.5532768      0.74984968   
     19400  -6100.763      -6177.5493      76.78628       29159.396      458.72163      8284.083       1.5600276      0.74984968   
     19500  -6101.7632     -6176.0517      74.288569      32056.988      443.8003       8238.0042      1.5687535      0.74984968   
     19600  -6102.1524     -6174.3889      72.236582      34829.027      431.54171      8188.2717      1.5782815      0.74984968   
     19700  -6103.4406     -6177.577       74.136382      35904.364      442.89113      8145.2698      1.5866139      0.74984968   
     19800  -6103.1803     -6177.8784      74.698148      34688.565      446.24712      8117.7106      1.5920003      0.74984968   
     19900  -6103.4199     -6177.6807      74.260778      34717.076      443.63427      8109.9794      1.593518       0.74984968   
     20000  -6102.4047     -6176.3846      73.979884      30339.093      441.95621      8124.8288      1.5906056      0.79295597   
     20033  -6103.7725     -6175.941       72.168531      36697.71       431.13518      8135.108       1.5885957      0.79295597   
Loop time of 86.3843 on 1 procs for 20000 steps with 1296 atoms

Performance: 10.002 ns/day, 2.400 hours/ns, 231.524 timesteps/s, 300.055 katom-step/s
99.8% CPU use with 1 MPI tasks x 1 OpenMP threads

MPI task timing breakdown:
Section |  min time  |  avg time  |  max time  |%varavg| %total
---------------------------------------------------------------
Pair    | 65.889     | 65.889     | 65.889     |   0.0 | 76.27
Neigh   | 0.88017    | 0.88017    | 0.88017    |   0.0 |  1.02
Comm    | 0.88437    | 0.88437    | 0.88437    |   0.0 |  1.02
Output  | 0.026045   | 0.026045   | 0.026045   |   0.0 |  0.03
Modify  | 18.251     | 18.251     | 18.251     |   0.0 | 21.13
Other   |            | 0.4537     |            |       |  0.53

Nlocal:           1296 ave        1296 max        1296 min
Histogram: 1 0 0 0 0 0 0 0 0 0
Nghost:           4449 ave        4449 max        4449 min
Histogram: 1 0 0 0 0 0 0 0 0 0
Neighs:              0 ave           0 max           0 min
Histogram: 1 0 0 0 0 0 0 0 0 0
FullNghs:       236182 ave      236182 max      236182 min
Histogram: 1 0 0 0 0 0 0 0 0 0

Total # of neighbors = 236182
Ave neighs/atom = 182.2392
Neighbor list builds = 1999
Dangerous builds = 1996
Setting up Verlet run ...
  Unit style    : metal
  Current step  : 20033
  Time step     : 0.0005
WARNING: Fix with atom-based arrays not compatible with Kokkos sorting on device, switching to classic host sorting (src/KOKKOS/atom_kokkos.cpp:216)
Per MPI rank memory allocation (min/avg/max) = 1140 | 1140 | 1140 Mbytes
   Step         TotEng         PotEng         KinEng         Press           Temp          Volume        Density     c_max_pace_gamma
     20033  -6100.6147     -6175.941       75.326349      37112.323      450            8135.108       1.5885957      0.79295597   
     20100  -6099.3907     -6172.2778      72.887111      35318.333      435.42798      8139.7328      1.5876931      0.79295597   
     20200  -6100.6227     -6177.253       76.630275      33046.532      457.78966      8164.5649      1.5828642      0.79295597   
     20300  -6101.1331     -6174.9478      73.814704      30414.707      440.96942      8206.6138      1.574754       0.79295597   
     20400  -6101.6901     -6176.9084      75.218303      28451.13       449.35453      8256.98        1.5651483      0.79295597   
     20500  -6099.9501     -6173.9944      74.044262      31322.062      442.3408       8303.2877      1.5564194      0.79295597   
     20600  -6100.997      -6176.5797      75.582693      31562.672      451.5314       8340.5522      1.5494655      0.79295597   
     20700  -6103.2184     -6178.7941      75.575703      23741.825      451.48964      8361.8548      1.5455181      0.79295597   
     20800  -6102.7502     -6175.7608      73.010604      25251.257      436.16572      8361.6481      1.5455563      0.79295597   
     20900  -6099.6579     -6173.8281      74.170194      25448.777      443.09312      8341.2754      1.5493312      0.79295597   
     21000  -6097.6539     -6174.3273      76.67337       28546.747      458.04711      8307.3878      1.5556512      0.82469274   
     21100  -6096.6542     -6172.2531      75.598943      32064.889      451.62848      8270.1504      1.5626557      0.82469274   
     21200  -6101.2845     -6175.3403      74.055869      33129.413      442.41015      8237.6978      1.5688118      0.82469274   
     21300  -6101.5771     -6176.92        75.342977      34887.508      450.09933      8209.9388      1.5741162      0.82469274   
     21400  -6101.481      -6177.2433      75.762297      30537.729      452.60435      8193.1538      1.577341       0.82469274   
     21500  -6099.7712     -6175.4567      75.68554       30490.197      452.14581      8189.9163      1.5779646      0.82469274   
     21600  -6097.5017     -6171.9261      74.424411      30251.307      444.61182      8201.9152      1.5756561      0.82469274   
     21700  -6098.3173     -6174.6602      76.34286       28049.052      456.07264      8226.7022      1.5709087      0.82469274   
     21800  -6098.4446     -6175.1584      76.713823      27383.824      458.28877      8258.8111      1.5648012      0.82469274   
     21900  -6098.0463     -6174.182       76.135771      28971.366      454.83549      8292.0999      1.5585193      0.82469274   
     22000  -6100.2733     -6174.124       73.850728      28498.597      441.18463      8321.0627      1.5530946      0.83465831   
     22100  -6097.4785     -6168.7601      71.281546      28224.718      425.83632      8337.0468      1.550117       0.83465831   
     22200  -6094.9533     -6172.0686      77.11525       28668.767      460.6869       8341.9119      1.5492129      0.83465831   
     22300  -6096.4865     -6171.6762      75.189656      29500.887      449.18339      8337.3989      1.5500515      0.83465831   
     22400  -6095.9133     -6171.8423      75.928965      31182.222      453.60003      8321.6144      1.5529917      0.83465831   
     22500  -6094.9045     -6170.8612      75.956662      30315.417      453.76549      8298.9134      1.5572398      0.83465831   
     22600  -6092.5992     -6170.798       78.198772      32028.745      467.15987      8276.1681      1.5615195      0.83465831   
     22700  -6094.1658     -6171.8432      77.677429      34634.61       464.04536      8257.4291      1.5650631      0.83465831   
     22800  -6096.8264     -6173.7648      76.938413      33934.209      459.63048      8245.5287      1.5673219      0.83465831   
     22900  -6097.5665     -6173.9634      76.396878      30055.053      456.39534      8242.3656      1.5679234      0.83465831   
     23000  -6100.013      -6175.5846      75.571661      31464.826      451.46549      8246.7418      1.5670914      0.90778393   
     23100  -6100.1903     -6175.8414      75.65115       25617.75       451.94036      8251.3563      1.566215       0.90778393   
     23200  -6101.5909     -6173.6449      72.053994      26645.759      430.45093      8257.1117      1.5651233      0.90778393   
     23300  -6098.5778     -6173.2305      74.652707      34373.666      445.97566      8267.9092      1.5630793      0.90778393   
     23400  -6100.3703     -6177.0108      76.640426      31258.03       457.8503       8284.5915      1.5599318      0.90778393   
     23500  -6097.9434     -6172.1117      74.16825       33373.653      443.08151      8299.6835      1.5570953      0.90778393   
     23600  -6099.6825     -6173.74        74.057499      26235.389      442.41988      8311.6723      1.5548493      0.90778393   
     23700  -6099.6866     -6174.0851      74.398506      25457.105      444.45706      8318.703       1.5535352      0.90778393   
     23800  -6102.7897     -6176.1533      73.363626      26053.688      438.27468      8315.3994      1.5541524      0.90778393   
     23900  -6099.749      -6176.5862      76.837181      32129.825      459.02571      8300.9404      1.5568595      0.90778393   
     24000  -6100.2054     -6174.6488      74.443404      28413.436      444.72528      8276.3613      1.561483       0.8064364    
     24100  -6097.027      -6174.3419      77.314975      30939.699      461.88006      8245.5823      1.5673117      0.8064364    
     24200  -6095.0805     -6171.9752      76.894647      33186.73       459.36902      8214.8055      1.5731837      0.8064364    
     24300  -6094.6599     -6171.3859      76.725989      30652.417      458.36146      8194.7947      1.5770252      0.8064364    
     24400  -6095.3641     -6172.3424      76.978251      32317.286      459.86847      8192.2439      1.5775163      0.8064364    
     24500  -6096.2494     -6172.9405      76.691156      33814.057      458.15336      8207.7796      1.5745303      0.8064364    
     24600  -6099.1102     -6175.6382      76.527916      33661.949      457.17816      8239.4294      1.5684821      0.8064364    
     24700  -6099.6425     -6174.0012      74.358715      33205.304      444.21935      8277.2466      1.561316       0.8064364    
     24800  -6100.3246     -6175.8902      75.565649      26297.25       451.42958      8313.488       1.5545097      0.8064364    
     24900  -6100.7091     -6171.9567      71.247688      29330.54       425.63405      8338.6523      1.5498185      0.8064364    
     25000  -6100.3213     -6177.8731      77.551808      27523.89       463.2949       8351.0508      1.5475176      0.86412361   
     25100  -6098.6613     -6174.4886      75.827255      27235.695      452.99241      8344.7207      1.5486915      0.86412361   
     25200  -6098.6509     -6172.2079      73.556995      24543.712      439.42987      8323.5543      1.5526297      0.86412361   
     25300  -6099.4037     -6172.9957      73.591943      25135.723      439.63865      8291.3795      1.5586547      0.86412361   
     25400  -6097.9554     -6173.8824      75.927         31191.798      453.58829      8254.4603      1.565626       0.86412361   
     25500  -6098.3881     -6173.1557      74.767565      31916.946      446.66182      8222.2643      1.5717566      0.86412361   
     25600  -6098.6134     -6174.9801      76.366689      33728.082      456.21499      8199.4313      1.5761334      0.86412361   
     25700  -6098.9221     -6172.3217      73.39961       35672.711      438.48965      8188.9015      1.5781601      0.86412361   
     25800  -6098.2453     -6173.7048      75.459474      31466.548      450.79529      8194.8185      1.5770206      0.86412361   
     25900  -6099.0641     -6176.0977      77.033572      32224.132      460.19895      8213.7516      1.5733855      0.86412361   
     26000  -6098.9331     -6172.1535      73.220318      33617.322      437.41855      8240.5398      1.5682708      0.84954289   
     26100  -6101.6124     -6175.3727      73.760312      25959.637      440.64448      8271.616       1.5623788      0.84954289   
     26200  -6102.244      -6175.5995      73.355524      25327.676      438.22628      8296.1589      1.5577568      0.84954289   
     26300  -6102.3118     -6177.6658      75.353999      24876.681      450.16518      8310.3823      1.5550907      0.84954289   
     26400  -6099.5547     -6173.5552      74.000509      26846.806      442.07942      8311.5212      1.5548776      0.84954289   
     26500  -6102.1486     -6176.1522      74.003622      28138.805      442.09802      8301.3205      1.5567882      0.84954289   
     26600  -6100.7219     -6174.8635      74.141592      29646.103      442.92225      8280.8706      1.5606328      0.84954289   
     26700  -6101.3167     -6175.4117      74.094931      27810.764      442.6435       8256.6342      1.5652138      0.84954289   
     26800  -6100.7884     -6176.9244      76.135981      31661.151      454.83674      8231.2102      1.5700483      0.84954289   
     26900  -6099.3976     -6173.6139      74.216357      32917.292      443.3689       8209.9794      1.5741084      0.84954289   
     27000  -6100.9871     -6174.8501      73.862982      32073.671      441.25784      8196.6223      1.5766736      0.76638072   
     27100  -6098.5151     -6174.6045      76.089419      28940.96       454.55858      8192.2592      1.5775133      0.76638072   
     27200  -6097.8647     -6174.9023      77.037589      28669.627      460.22296      8197.0869      1.5765842      0.76638072   
     27300  -6097.0618     -6173.463       76.401245      32253.241      456.42143      8213.5435      1.5734254      0.76638072   
     27400  -6098.1454     -6173.3666      75.221223      33437.524      449.37197      8237.5653      1.5688371      0.76638072   
     27500  -6101.1337     -6174.8589      73.725247      32373.016      440.43501      8264.1983      1.5637812      0.76638072   
     27600  -6099.6787     -6176.4358      76.757133      29096.172      458.54751      8287.435       1.5593966      0.76638072   
     27700  -6099.0478     -6174.8534      75.805597      25682.499      452.86303      8304.2768      1.556234       0.76638072   
     27800  -6102.2577     -6176.5547      74.296974      24751.675      443.85051      8314.5674      1.5543079      0.76638072   
     27900  -6102.3794     -6179.3705      76.991158      24966.17       459.94557      8310.5843      1.5550529      0.76638072   
     28000  -6101.0754     -6174.4796      73.404167      27616.934      438.51687      8291.4099      1.558649       0.79612216   
     28100  -6100.5568     -6176.0092      75.452393      27129.925      450.75298      8262.0734      1.5641834      0.79612216   
     28200  -6098.5681     -6174.915       76.346909      33832.917      456.09683      8229.9252      1.5702935      0.79612216   
     28300  -6097.3658     -6175.9826      78.616788      30107.117      469.6571       8205.1164      1.5750414      0.79612216   
     28400  -6097.785      -6174.78        76.995001      34650.129      459.96854      8192.8277      1.5774038      0.79612216   
     28500  -6099.858      -6175.2784      75.420436      32532.831      450.56207      8196.3914      1.576718       0.79612216   
     28600  -6098.5844     -6173.0775      74.493094      36658.103      445.02212      8211.9239      1.5737357      0.79612216   
     28700  -6099.7849     -6175.6362      75.851281      32017.264      453.13594      8236.3424      1.56907        0.79612216   
     28800  -6099.3165     -6175.6415      76.325003      27691.073      455.96596      8265.554       1.5635247      0.79612216   
     28900  -6098.9465     -6174.3851      75.4386        29341.258      450.67058      8292.915       1.5583661      0.79612216   
     29000  -6098.2378     -6174.2195      75.981694      28204.176      453.91503      8312.3599      1.5547207      0.85874842   
     29100  -6097.962      -6172.8276      74.865525      22810.668      447.24703      8320.9766      1.5531107      0.85874842   
     29200  -6098.3112     -6175.2796      76.968457      25938.676      459.80996      8320.0739      1.5532792      0.85874842   
     29300  -6098.5401     -6174.0223      75.482173      23223.706      450.93089      8309.5431      1.5552477      0.85874842   
     29400  -6099.3018     -6175.5206      76.218774      30978.289      455.33135      8293.4541      1.5582648      0.85874842   
     29500  -6099.4697     -6174.8107      75.34102       29322.838      450.08764      8274.1507      1.5619002      0.85874842   
     29600  -6097.8388     -6175.298       77.459214      29584.099      462.74174      8253.0164      1.5658999      0.85874842   
     29700  -6097.2276     -6171.7749      74.54729       33648.991      445.34589      8233.6655      1.5695802      0.85874842   
     29800  -6096.723      -6173.569       76.845981      34196.988      459.07829      8224.8267      1.5712669      0.85874842   
     29900  -6096.6471     -6174.4855      77.838417      31977.733      465.0071       8226.3537      1.5709752      0.85874842   
     30000  -6099.2151     -6173.7258      74.510737      31974.18       445.12753      8236.2149      1.5690943      0.76771621   
     30100  -6098.8488     -6173.6901      74.841255      32093.858      447.10205      8253.6619      1.5657775      0.76771621   
     30200  -6099.0042     -6176.2431      77.238869      31890.007      461.4254       8274.4359      1.5618464      0.76771621   
     30300  -6099.6644     -6174.0841      74.419673      34784.88       444.58351      8292.1738      1.5585054      0.76771621   
     30400  -6097.8438     -6175.3631      77.519351      32569.921      463.101        8309.3875      1.5552768      0.76771621   
     30500  -6099.6572     -6173.5339      73.876672      23191.38       441.33962      8324.3753      1.5524766      0.76771621   
     30600  -6097.9118     -6173.2358      75.324023      22035.88       449.9861       8332.9766      1.5508741      0.76771621   
     30700  -6096.6943     -6173.6711      76.976789      26635.665      459.85973      8333.6695      1.5507452      0.76771621   
     30800  -6098.6701     -6174.8102      76.140026      29516.725      454.86091      8329.2174      1.5515741      0.76771621   
     30900  -6097.7752     -6175.5872      77.811957      31001.758      464.84903      8318.9754      1.5534843      0.76771621   
     31000  -6100.5367     -6173.2488      72.712105      30191.493      434.38249      8302.5968      1.5565489      0.8474286    
     31100  -6099.0635     -6173.0949      74.031336      31034.868      442.26358      8286.1266      1.5596428      0.8474286    
     31200  -6097.7311     -6172.5219      74.790796      26708.252      446.8006       8275.5858      1.5616294      0.8474286    
     31300  -6095.4565     -6171.4954      76.038896      30200.884      454.25676      8270.9257      1.5625092      0.8474286    
     31400  -6096.1678     -6173.7764      77.608611      29304.177      463.63424      8276.3921      1.5614772      0.8474286    
     31500  -6098.656      -6174.4864      75.830391      30285.676      453.01115      8289.1615      1.5590718      0.8474286    
     31600  -6099.6733     -6173.6258      73.95249       30719.92       441.79255      8304.9693      1.5561042      0.8474286    
     31700  -6097.6954     -6171.7592      74.063817      28197.064      442.45763      8323.6346      1.5526147      0.8474286    
     31800  -6097.5231     -6171.4172      73.894091      24746.1        441.44368      8344.329       1.5487642      0.8474286    
     31900  -6099.844      -6176.6166      76.772558      25596.341      458.63966      8363.0552      1.5452962      0.8474286    
     32000  -6101.8587     -6176.7467      74.88805       27109.404      447.3816       8368.3297      1.5443223      0.78019601   
     32100  -6100.5031     -6174.7851      74.282023      27960.999      443.76119      8358.5318      1.5461325      0.78019601   
     32200  -6098.7189     -6174.0914      75.372498      29934.675      450.27569      8339.6102      1.5496405      0.78019601   
     32300  -6098.7704     -6172.9224      74.152042      32267.465      442.98468      8313.7031      1.5544695      0.78019601   
     32400  -6097.0575     -6172.0443      74.986778      31843.029      447.9714       8287.6357      1.5593588      0.78019601   
     32500  -6096.3847     -6173.4563      77.071614      31098.466      460.42622      8268.0961      1.563044       0.78019601   
     32600  -6096.3629     -6173.7526      77.389679      32879.823      462.32634      8258.0106      1.5649529      0.78019601   
     32700  -6097.1884     -6172.4705      75.282085      31124.484      449.73556      8259.2088      1.5647259      0.78019601   
     32800  -6098.5        -6172.9979      74.497835      35514.358      445.05045      8273.4009      1.5620418      0.78019601   
     32900  -6100.8874     -6175.3873      74.499891      27537.342      445.06273      8295.0006      1.5579743      0.78019601   
     33000  -6098.6004     -6173.9502      75.349815      31565.234      450.14018      8314.0503      1.5544046      0.88121666   
     33100  -6098.1717     -6175.2025      77.030793      29954.535      460.18236      8330.5086      1.5513336      0.88121666   
     33200  -6100.0398     -6174.6464      74.606677      28693.127      445.70067      8345.8779      1.5484767      0.88121666   
     33300  -6098.3948     -6174.9415      76.546674      25843.415      457.29022      8354.1105      1.5469508      0.88121666   
     33400  -6099.775      -6176.6523      76.877251      29804.902      459.26509      8355.0021      1.5467857      0.88121666   
     33500  -6099.6141     -6175.6818      76.067676      35829.073      454.42869      8350.926       1.5475407      0.88121666   
     33600  -6099.3927     -6174.115       74.72231       30659.517      446.39146      8340.7817      1.5494229      0.88121666   
     33700  -6097.849      -6175.3014      77.45241       33652.181      462.7011       8326.0845      1.5521579      0.88121666   
     33800  -6099.0819     -6175.5223      76.440466      34186.311      456.65574      8309.7645      1.5552063      0.88121666   
     33900  -6098.169      -6174.6491      76.480169      31415.006      456.89293      8297.2799      1.5575463      0.88121666   
     34000  -6099.1209     -6176.0257      76.904776      31428.208      459.42953      8291.8082      1.5585741      0.82348957   
     34100  -6098.3077     -6172.2128      73.905118      29619.923      441.50956      8291.3427      1.5586616      0.82348957   
     34200  -6099.5125     -6175.1722      75.659717      31042.82       451.99154      8298.6626      1.5572868      0.82348957   
     34300  -6099.7667     -6173.9601      74.193342      30645.569      443.23141      8309.9039      1.5551802      0.82348957   
     34400  -6098.5368     -6174.9278      76.391014      27688.427      456.36031      8323.2152      1.552693       0.82348957   
     34500  -6098.7033     -6173.6655      74.96214       31863.924      447.82421      8336.4434      1.5502292      0.82348957   
     34600  -6097.0836     -6175.6072      78.52368       31868.078      469.10087      8349.1434      1.5478711      0.82348957   
     34700  -6096.4145     -6172.2724      75.85781       34168.452      453.17495      8358.5575      1.5461278      0.82348957   
     34800  -6096.8243     -6173.9274      77.103093      31791.243      460.61428      8363.8251      1.545154       0.82348957   
     34900  -6097.3839     -6174.2085      76.824591      32715.173      458.9505       8364.3427      1.5450584      0.82348957   
     35000  -6098.221      -6173.8691      75.648085      31227.373      451.92205      8358.9959      1.5460467      0.92679766   
     35100  -6096.5343     -6173.4759      76.941576      32668.137      459.64937      8348.684       1.5479563      0.92679766   
     35200  -6096.4762     -6174.0055      77.529226      33412.911      463.16         8336.5649      1.5502066      0.92679766   
     35300  -6094.0351     -6172.9451      78.909992      30217.268      471.4087       8324.8509      1.5523879      0.92679766   
     35400  -6095.9124     -6174.0331      78.120627      26307.413      466.69303      8317.008       1.5538518      0.92679766   
     35500  -6097.0339     -6172.2363      75.20243       29509.97       449.25971      8314.434       1.5543329      0.92679766   
     35600  -6093.7711     -6172.1593      78.388223      31362.786      468.29165      8314.5812      1.5543053      0.92679766   
     35700  -6093.1036     -6172.0267      78.923106      25917.901      471.48704      8319.7912      1.553332       0.92679766   
     35800  -6095.019      -6173.6791      78.660139      28959.146      469.91608      8329.8978      1.5514474      0.92679766   
     35900  -6094.2422     -6172.6135      78.371329      27719.33       468.19072      8341.6132      1.5492684      0.92679766   
     36000  -6094.0972     -6172.5051      78.40783       27769.677      468.40878      8348.9836      1.5479007      0.87363221   
     36100  -6096.8682     -6172.111       75.242795      29535.565      449.50084      8351.9057      1.5473592      0.87363221   
     36200  -6093.71       -6171.568       77.857978      28895.012      465.12396      8348.7702      1.5479403      0.87363221   
     36300  -6094.456      -6172.4461      77.990145      28736.168      465.91353      8342.0176      1.5491933      0.87363221   
     36400  -6093.6602     -6171.2418      77.581573      29217.149      463.47272      8332.1589      1.5510263      0.87363221   
     36500  -6096.3982     -6172.3076      75.90942       30576.353      453.48327      8322.3285      1.5528584      0.87363221   
     36600  -6096.4235     -6173.9072      77.483781      30984.105      462.88851      8315.9782      1.5540442      0.87363221   
     36700  -6098.4868     -6175.3574      76.870543      31187.147      459.22502      8309.5237      1.5552513      0.87363221   
     36800  -6100.5089     -6176.2744      75.765427      36659.947      452.62305      8298.3322      1.5573488      0.87363221   
     36900  -6098.4197     -6175.0387      76.619055      30652.414      457.72263      8285.3484      1.5597893      0.87363221   
     37000  -6099.8401     -6174.271       74.430954      30310.53       444.6509       8273.1582      1.5620876      0.80144294   
     37100  -6099.8151     -6173.2664      73.451372      32937.596      438.79888      8263.176       1.5639747      0.80144294   
     37200  -6102.0597     -6178.8483      76.788597      26401.899      458.73547      8255.8577      1.565361       0.80144294   
     37300  -6101.4768     -6174.7289      73.252115      30679.985      437.60851      8249.1378      1.5666362      0.80144294   
     37400  -6098.754      -6174.9796      76.225615      29064.884      455.37221      8251.3738      1.5662117      0.80144294   
     37500  -6099.1283     -6177.6439      78.515644      30260.996      469.05286      8262.9053      1.5640259      0.80144294   
     37600  -6099.5142     -6175.01        75.495809      28837.113      451.01235      8278.895       1.5610052      0.80144294   
     37700  -6099.6062     -6175.7567      76.15047       27123.307      454.9233       8296.8957      1.5576185      0.80144294   
     37800  -6099.5622     -6174.3747      74.812473      28136.038      446.9301       8311.7983      1.5548257      0.80144294   
     37900  -6098.406      -6175.3657      76.959696      29209.414      459.75762      8319.8412      1.5533227      0.80144294   
     38000  -6098.1002     -6172.9712      74.871024      28337.504      447.27988      8321.8937      1.5529396      0.79197925   
     38100  -6097.5298     -6175.0375      77.507669      25663.94       463.03122      8318.8693      1.5535041      0.79197925   
     38200  -6096.7554     -6172.5228      75.767394      29744.133      452.6348       8310.5543      1.5550585      0.79197925   
     38300  -6098.0912     -6173.9933      75.902102      33884.419      453.43955      8301.0063      1.5568471      0.79197925   
     38400  -6098.5797     -6172.8111      74.231449      32710.949      443.45906      8289.5447      1.5589997      0.79197925   
     38500  -6099.6104     -6173.4839      73.873491      31606.501      441.32062      8277.0759      1.5613482      0.79197925   
     38600  -6097.2603     -6174.9412      77.68088       28820.049      464.06598      8267.2486      1.5632042      0.79197925   
     38700  -6098.2926     -6173.1475      74.854951      30358.6        447.18387      8261.7515      1.5642443      0.79197925   
     38800  -6097.2474     -6172.5529      75.305487      31575.836      449.87537      8263.6775      1.5638798      0.79197925   
     38900  -6098.4722     -6175.5867      77.11455       27500.482      460.68272      8273.7816      1.5619699      0.79197925   
     39000  -6100.3068     -6175.0958      74.788988      30654.793      446.7898       8286.1237      1.5596434      0.93220961   
     39100  -6101.657      -6175.2708      73.613764      25691.295      439.769        8295.5145      1.5578778      0.93220961   
     39200  -6101.8903     -6175.6748      73.784494      27154.385      440.78894      8299.3767      1.5571528      0.93220961   
     39300  -6104.817      -6176.6267      71.80975       27829.362      428.99182      8295.2236      1.5579324      0.93220961   
     39400  -6101.3494     -6175.7722      74.422724      29636.505      444.60173      8286.0611      1.5596551      0.93220961   
     39500  -6102.9492     -6175.4359      72.486777      29235.746      433.03638      8273.7428      1.5619772      0.93220961   
     39600  -6103.5802     -6176.8983      73.318143      28613.808      438.00296      8258.1203      1.5649321      0.93220961   
     39700  -6105.1982     -6177.1338      71.93556       26671.827      429.74341      8244.9424      1.5674334      0.93220961   
     39800  -6104.7249     -6176.7662      72.041232      26205.168      430.37469      8232.3057      1.5698394      0.93220961   
     39900  -6104.1084     -6177.6133      73.504907      36120.484      439.11869      8222.684       1.5716763      0.93220961   
     40000  -6102.5774     -6174.6831      72.10569       33238.986      430.75977      8222.0414      1.5717992      0.8971466    
     40100  -6103.6464     -6175.7233      72.076829      29260.283      430.58735      8228.5582      1.5705544      0.8971466    
     40200  -6101.8568     -6175.6898      73.832945      25271.137      441.0784       8243.1072      1.5677823      0.8971466    
     40300  -6103.5457     -6175.9374      72.391645      24906.791      432.46806      8263.2531      1.5639601      0.8971466    
     40400  -6098.6298     -6172.0015      73.371669      28261.249      438.32273      8286.2968      1.5596108      0.8971466    
     40500  -6097.5127     -6172.8524      75.33967       28505.71       450.07957      8309.0734      1.5553356      0.8971466    
     40600  -6099.3314     -6173.3589      74.027555      25468.082      442.24099      8327.9461      1.5518109      0.8971466    
     40700  -6099.3736     -6174.4872      75.113547      25741.903      448.72872      8340.0204      1.5495643      0.8971466    
     40800  -6101.1608     -6175.6646      74.503772      27702.491      445.08592      8341.025       1.5493777      0.8971466    
     40900  -6098.4067     -6172.617       74.210277      26190.451      443.33258      8333.965       1.5506902      0.8971466    
     41000  -6096.6784     -6173.1998      76.521466      28614.114      457.13963      8322.2158      1.5528794      0.78507293   
     41100  -6097.3768     -6173.5962      76.219409      32304.925      455.33514      8309.1328      1.5553245      0.78507293   
     41200  -6096.2779     -6170.9103      74.632403      30681.969      445.85436      8298.4747      1.5573221      0.78507293   
     41300  -6102.2302     -6175.4767      73.246451      27750.547      437.57468      8290.0422      1.5589062      0.78507293   
     41400  -6099.6281     -6177.0134      77.385279      31226.279      462.30006      8279.9527      1.5608058      0.78507293   
     41500  -6102.6282     -6176.6943      74.066095      30736.421      442.47123      8270.954       1.5625039      0.78507293   
     41600  -6102.2977     -6176.6179      74.320167      26959.991      443.98906      8264.4716      1.5637295      0.78507293   
     41700  -6103.143      -6175.5878      72.444814      25830.591      432.78569      8259.7405      1.5646252      0.78507293   
     41800  -6101.5281     -6176.2733      74.745155      29420.37       446.52794      8257.2009      1.5651064      0.78507293   
     41900  -6102.1853     -6175.5478      73.3625        29079.791      438.26795      8259.9053      1.564594       0.78507293   
     42000  -6102.6177     -6175.8137      73.196007      25249.164      437.27332      8266.0093      1.5634386      0.85920478   
     42100  -6099.6854     -6174.7287      75.043249      28156.037      448.30876      8274.832       1.5617716      0.85920478   
     42200  -6100.876      -6173.4997      72.623663      33177.269      433.85413      8288.2605      1.5592413      0.85920478   
     42300  -6100.4666     -6176.7946      76.328021      36371.676      455.98399      8303.9274      1.5562995      0.85920478   
     42400  -6102.3152     -6174.0981      71.782843      35465.729      428.83107      8314.7648      1.554271       0.85920478   
     42500  -6100.2806     -6176.2814      76.000827      28162.764      454.02933      8320.0379      1.5532859      0.85920478   
     42600  -6101.5552     -6176.5572      75.001979      25877.633      448.06221      8317.6766      1.5537269      0.85920478   
     42700  -6102.0322     -6178.0931      76.060836      29070.645      454.38783      8310.8347      1.555006       0.85920478   
     42800  -6101.1528     -6174.7207      73.567823      28651.522      439.49455      8297.7359      1.5574607      0.85920478   
     42900  -6101.524      -6176.3955      74.871511      32557.309      447.28279      8283.5122      1.5601351      0.85920478   
     43000  -6097.2618     -6171.5123      74.250533      36327.269      443.57307      8274.1842      1.5618939      0.87184736   
     43100  -6100.4815     -6177.2778      76.796268      32091.169      458.7813       8275.0391      1.5617325      0.87184736   
     43200  -6101.9518     -6176.2451      74.293259      28223.583      443.82831      8281.8416      1.5604498      0.87184736   
     43300  -6101.7016     -6177.2696      75.567986      29246.839      451.44353      8291.2275      1.5586833      0.87184736   
     43400  -6104.1642     -6177.1247      72.960564      28165.401      435.86679      8299.496       1.5571304      0.87184736   
     43500  -6102.8401     -6177.4787      74.638647      28448.828      445.89166      8306.2765      1.5558593      0.87184736   
     43600  -6102.6198     -6176.2146      73.594813      28544.743      439.65579      8308.4214      1.5554577      0.87184736   
     43700  -6100.8222     -6176.5593      75.737175      29164.957      452.45428      8306.7717      1.5557666      0.87184736   
     43800  -6100.4457     -6176.9982      76.552526      32500.057      457.32519      8305.2983      1.5560426      0.87184736   
     43900  -6103.0574     -6177.6143      74.556861      29858.844      445.40307      8304.273       1.5562347      0.87184736   
     44000  -6103.0271     -6176.0722      73.04516       29423.16       436.37216      8302.773       1.5565159      0.81376439   
     44100  -6104.4393     -6177.6838      73.244502      30063.454      437.56303      8300.5413      1.5569343      0.81376439   
     44200  -6100.0495     -6175.3014      75.251857      30669.168      449.55498      8298.5985      1.5572988      0.81376439   
     44300  -6100.3695     -6176.329       75.959463      26478.255      453.78223      8298.4372      1.5573291      0.81376439   
     44400  -6097.5693     -6174.5823      77.012993      28160.745      460.07602      8301.0652      1.5568361      0.81376439   
     44500  -6100.6912     -6176.6071      75.915887      29291.239      453.5219       8309.7826      1.5552029      0.81376439   
     44600  -6101.6401     -6175.059       73.4189        30127.103      438.60489      8317.5892      1.5537432      0.81376439   
     44700  -6097.7015     -6171.9624      74.26087       31036.428      443.63482      8321.2656      1.5530568      0.81376439   
     44800  -6097.0689     -6174.1919      77.122965      29818.164      460.73299      8325.5882      1.5522504      0.81376439   
     44900  -6097.5329     -6171.6856      74.152691      32997.345      442.98856      8325.3985      1.5522858      0.81376439   
     45000  -6097.5227     -6172.6007      75.078025      27350.109      448.51651      8326.7878      1.5520268      0.78031558   
     45100  -6097.4434     -6174.3326      76.889172      23020.688      459.33631      8331.3689      1.5511734      0.78031558   
     45200  -6095.0276     -6170.6568      75.629245      21700.347      451.8095       8333.5497      1.5507675      0.78031558   
     45300  -6094.9017     -6171.2955      76.393826      23502.207      456.37711      8335.1266      1.5504741      0.78031558   
     45400  -6096.7534     -6173.7815      77.028073      29632.57       460.1661       8334.5784      1.5505761      0.78031558   
     45500  -6095.4006     -6170.2014      74.800826      28267.096      446.86052      8329.6222      1.5514987      0.78031558   
     45600  -6097.4162     -6174.1544      76.738256      30028.606      458.43474      8322.9438      1.5527436      0.78031558   
     45700  -6098.4669     -6172.522       74.055078      25880.272      442.40542      8314.7556      1.5542727      0.78031558   
     45800  -6099.4225     -6175.606       76.183522      30553.44       455.12075      8304.5314      1.5561863      0.78031558   
     45900  -6100.3177     -6176.2178      75.900072      29884.012      453.42742      8288.7544      1.5591484      0.78031558   
     46000  -6098.7472     -6172.2555      73.508279      32981.199      439.13884      8270.6608      1.5625593      0.80279927   
     46100  -6096.4889     -6174.3749      77.88596       33527.576      465.29113      8256.2782      1.5652813      0.80279927   
     46200  -6097.2842     -6174.1719      76.887751      30675.787      459.32782      8247.8438      1.566882       0.80279927   
     46300  -6097.9822     -6172.7823      74.800106      32168.235      446.85622      8246.2198      1.5671906      0.80279927   
     46400  -6099.6815     -6174.0426      74.361118      33744.337      444.2337       8253.0571      1.5658922      0.80279927   
     46500  -6099.2865     -6174.9113      75.624733      32057.503      451.78254      8267.0428      1.5632431      0.80279927   
     46600  -6099.9573     -6175.3194      75.362183      35515.786      450.21407      8283.3333      1.5601688      0.80279927   
     46700  -6098.4428     -6173.3827      74.939869      33323.864      447.69116      8300.1294      1.5570116      0.80279927   
     46800  -6099.6052     -6176.131       76.525744      29460.429      457.16519      8316.3477      1.5539752      0.80279927   
     46900  -6102.0528     -6175.4866      73.433766      28214.68       438.6937       8326.1172      1.5521518      0.80279927   
     47000  -6101.504      -6177.0111      75.507042      27998.86       451.07946      8323.0946      1.5527155      0.78393414   
     47100  -6098.566      -6174.5778      76.01179       30950.536      454.09482      8308.1536      1.5555078      0.78393414   
     47200  -6097.6837     -6172.5881      74.904402      31453.49       447.47928      8285.8663      1.5596918      0.78393414   
     47300  -6096.3638     -6173.4997      77.135896      26011.824      460.81024      8262.6504      1.5640741      0.78393414   
     47400  -6096.1053     -6173.2618      77.15644       28253.663      460.93297      8245.5087      1.5673257      0.78393414   
     47500  -6095.7465     -6172.6586      76.912133      33629.871      459.47348      8234.2786      1.5694633      0.78393414   
     47600  -6095.7356     -6170.8272      75.091542      28019.563      448.59726      8234.9437      1.5693365      0.78393414   
     47700  -6097.8678     -6173.6921      75.824297      31382.567      452.97474      8247.7435      1.566901       0.78393414   
     47800  -6097.8297     -6174.7956      76.965934      32818.24       459.79489      8269.4082      1.562796       0.78393414   
     47900  -6099.6659     -6176.1346      76.468682      29999.266      456.8243       8290.1592      1.5588842      0.78393414   
     48000  -6101.2735     -6175.2082      73.934689      31891.104      441.68621      8306.2806      1.5558586      0.78352629   
     48100  -6100.4369     -6176.8973      76.460412      26882.568      456.7749       8314.1399      1.5543878      0.78352629   
     48200  -6100.0724     -6176.0569      75.984554      26732.467      453.93212      8309.0584      1.5553384      0.78352629   
     48300  -6099.0181     -6175.7959      76.777813      28369.622      458.67105      8292.937       1.558362       0.78352629   
     48400  -6097.6499     -6172.6294      74.979487      27116.887      447.92784      8272.1424      1.5622794      0.78352629   
     48500  -6095.2915     -6172.8806      77.589162      26407.786      463.51805      8250.659       1.5663474      0.78352629   
     48600  -6097.1574     -6173.9555      76.798041      26967.99       458.79189      8231.2407      1.5700425      0.78352629   
     48700  -6096.9397     -6174.2885      77.348747      31277.542      462.08181      8218.9891      1.5723829      0.78352629   
     48800  -6096.2847     -6174.3162      78.031509      34966.255      466.16064      8216.5365      1.5728522      0.78352629   
     48900  -6096.3104     -6174.4397      78.129247      35382.564      466.74453      8226.5049      1.5709464      0.78352629   
     49000  -6098.2063     -6174.2295      76.023167      28664.229      454.16279      8246.6861      1.567102       0.81721286   
     49100  -6098.3805     -6175.8608      77.48037       31464.318      462.86813      8273.6138      1.5620016      0.81721286   
     49200  -6097.4291     -6175.6394      78.210326      29485.046      467.22889      8300.7046      1.5569037      0.81721286   
     49300  -6097.3636     -6173.1085      75.7449        31168.871      452.50042      8322.1715      1.5528877      0.81721286   
     49400  -6096.3614     -6173.751       77.38952       31531.154      462.32539      8335.4351      1.5504167      0.81721286   
     49500  -6097.3094     -6173.4609      76.151525      29005.832      454.9296       8340.031       1.5495623      0.81721286   
     49600  -6097.2526     -6172.5058      75.253147      30508.907      449.56269      8336.5521      1.550209       0.81721286   
     49700  -6098.2337     -6173.5815      75.3478        28631.57       450.12815      8327.3952      1.5519136      0.81721286   
     49800  -6101.9526     -6176.6606      74.708014      27291.817      446.30606      8311.9612      1.5547953      0.81721286   
     49900  -6100.7264     -6175.9632      75.236791      28191.038      449.46498      8288.0009      1.5592901      0.81721286   
     50000  -6099.3367     -6174.4043      75.067685      34065.816      448.45474      8259.6227      1.5646475      0.78055832   
     50100  -6099.9234     -6174.5056      74.582162      31633.346      445.55422      8238.1755      1.5687209      0.78055832   
     50200  -6099.5199     -6173.8115      74.291621      35041.764      443.81852      8225.4799      1.5711421      0.78055832   
     50300  -6100.8507     -6174.6847      73.833987      30703.131      441.08462      8224.5503      1.5713197      0.78055832   
     50400  -6100.5655     -6176.8101      76.244592      33330.382      455.48558      8233.8982      1.5695358      0.78055832   
     50500  -6100.2234     -6177.1685      76.945073      27081.159      459.67026      8249.0526      1.5666524      0.78055832   
     50600  -6101.204      -6177.0481      75.8441        29380.224      453.09305      8267.7377      1.5631117      0.78055832   
     50700  -6099.0033     -6173.5305      74.527262      31869.079      445.22625      8284.9761      1.5598594      0.78055832   
     50800  -6098.0423     -6175.1425      77.100149      30161.894      460.59668      8298.9895      1.5572255      0.78055832   
     50900  -6099.6146     -6173.4487      73.834049      28653.43       441.08499      8306.2828      1.5558582      0.78055832   
     51000  -6101.357      -6177.2983      75.9413        27356.732      453.67372      8305.9275      1.5559247      0.86383459   
     51100  -6100.247      -6173.5763      73.329338      28524.853      438.06984      8298.0043      1.5574104      0.86383459   
     51200  -6099.3864     -6173.6738      74.287393      32055.503      443.79327      8284.6692      1.5599172      0.86383459   
     51300  -6096.4639     -6173.305       76.841046      34752.677      459.0488       8270.9586      1.562503       0.86383459   
     51400  -6097.1274     -6175.5658      78.438338      31969.172      468.59104      8257.8178      1.5649895      0.86383459   
     51500  -6097.783      -6171.8866      74.103647      34335.17       442.69557      8245.9713      1.5672378      0.86383459   
     51600  -6100.1966     -6175.588       75.391363      35949.991      450.38839      8239.7017      1.5684303      0.86383459   
     51700  -6099.4363     -6174.6583      75.221964      35395.35       449.3764       8236.7843      1.5689858      0.86383459   
     51800  -6100.0723     -6174.2263      74.154077      33986.948      442.99684      8236.0876      1.5691186      0.86383459   
     51900  -6099.3889     -6174.635       75.246116      30967.01       449.52068      8240.1705      1.5683411      0.86383459   
     52000  -6099.2661     -6173.112       73.845871      32432.004      441.15561      8248.5726      1.5667435      0.93140873   
     52100  -6102.2416     -6177.2818      75.0402        31557.394      448.29054      8258.8366      1.5647964      0.93140873   
     52200  -6102.363      -6174.1886      71.825644      31748.118      429.08677      8265.0829      1.5636138      0.93140873   
     52300  -6101.6681     -6177.0076      75.339495      27637.702      450.07853      8266.7904      1.5632909      0.93140873   
     52400  -6101.1395     -6176.4483      75.30885       25009.211      449.89546      8264.6467      1.5636963      0.93140873   
     52500  -6100.9847     -6174.9488      73.964118      30928.227      441.86202      8259.7724      1.5646191      0.93140873   
     52600  -6099.9314     -6177.0544      77.122967      33085.613      460.733        8258.3601      1.5648867      0.93140873   
     52700  -6100.2443     -6176.0729      75.828626      34467.299      453.0006       8257.0069      1.5651432      0.93140873   
     52800  -6100.12       -6173.512       73.391931      27499.963      438.44378      8255.5761      1.5654144      0.93140873   
     52900  -6099.7422     -6177.1768      77.434656      27110.112      462.59504      8256.5484      1.5652301      0.93140873   
     53000  -6100.1486     -6173.8092      73.660604      30812.807      440.04883      8256.3502      1.5652677      0.86206123   
     53100  -6099.3028     -6173.5333      74.230514      32965.862      443.45348      8257.4409      1.5650609      0.86206123   
     53200  -6102.2758     -6176.9608      74.684974      31300.331      446.16842      8261.835       1.5642285      0.86206123   
     53300  -6102.7628     -6175.7557      72.992944      32076.982      436.06022      8264.9874      1.5636319      0.86206123   
     53400  -6102.9367     -6177.3532      74.416566      31935.829      444.56495      8264.7254      1.5636815      0.86206123   
     53500  -6104.2428     -6178.6994      74.456579      29944.741      444.80399      8258.4265      1.5648741      0.86206123   
     53600  -6100.2322     -6173.032       72.799838      29915.649      434.90661      8249.6186      1.5665449      0.86206123   
     53700  -6100.365      -6176.8872      76.52218       28106.437      457.14389      8245.2795      1.5673693      0.86206123   
     53800  -6101.2997     -6175.212       73.912298      27799.099      441.55245      8242.2665      1.5679423      0.86206123   
     53900  -6098.6615     -6174.9525      76.291023      31036.022      455.76296      8243.3772      1.567731       0.86206123   
     54000  -6100.9614     -6177.3547      76.393374      31644.286      456.37441      8250.3585      1.5664044      0.82457632   
     54100  -6102.086      -6176.9572      74.871178      31286.64       447.28081      8262.6214      1.5640796      0.82457632   
     54200  -6101.221      -6175.5525      74.331439      31552.509      444.0564       8276.502       1.5614565      0.82457632   
     54300  -6101.2515     -6176.0821      74.830652      28161.492      447.0387       8287.0631      1.5594666      0.82457632   
     54400  -6099.8803     -6176.5136      76.633352      28607.532      457.80804      8294.0805      1.5581471      0.82457632   
     54500  -6100.051      -6174.6595      74.60846       29782.162      445.71132      8298.8384      1.5572538      0.82457632   
     54600  -6097.5194     -6174.3802      76.860843      30023.839      459.16707      8301.6811      1.5567206      0.82457632   
     54700  -6096.8821     -6171.991       75.10897       27739.119      448.70137      8298.918       1.5572389      0.82457632   
     54800  -6095.8126     -6169.7677      73.95511       29477.356      441.80821      8292.112       1.558517       0.82457632   
     54900  -6094.8997     -6173.8464      78.946626      33223.217      471.62755      8287.7825      1.5593312      0.82457632   
     55000  -6093.9246     -6172.3971      78.472509      33570.475      468.79517      8285.5516      1.5597511      0.82906526   
     55100  -6095.6128     -6171.6293      76.016427      29792.485      454.12253      8287.4563      1.5593926      0.82906526   
     55200  -6095.9295     -6172.437       76.507457      32811.139      457.05594      8294.059       1.5581512      0.82906526   
     55300  -6099.5922     -6173.5457      73.953533      30974.114      441.79879      8301.6066      1.5567346      0.82906526   
     55400  -6095.0698     -6171.2418      76.172017      30448.716      455.05202      8307.1412      1.5556974      0.82906526   
     55500  -6095.0728     -6173.0007      77.927925      31569.964      465.54183      8311.237       1.5549307      0.82906526   
[...]
   2006000  -6103.0948     -6178.3294      75.234681      35971.934      449.45237      8191.226       1.5777123      0.90014793   
   2006100  -6101.7409     -6178.3059      76.56507       40851.801      457.40012      8186.8569      1.5785543      0.90014793   
   2006200  -6102.3546     -6179.5909      77.236356      36103.481      461.41039      8199.9873      1.5760266      0.90014793   
   2006300  -6104.3789     -6177.3968      73.017897      33715.411      436.2093       8225.0522      1.5712238      0.90014793   
   2006400  -6105.3228     -6180.208       74.885213      25696.421      447.36465      8258.1123      1.5649337      0.90014793   
   2006500  -6105.5642     -6181.0866      75.522362      22240.68       451.17098      8289.7391      1.5589632      0.90014793   
   2006600  -6108.2634     -6179.6168      71.35343       25891.197      426.26576      8312.7923      1.5546398      0.90014793   
   2006700  -6105.7987     -6179.5894      73.790758      24157.393      440.82637      8323.4745      1.5526446      0.90014793   
   2006800  -6103.4382     -6177.8088      74.370538      24965.563      444.28997      8321.1423      1.5530798      0.90014793   
   2006900  -6102.5651     -6177.6737      75.108632      27400.366      448.69936      8308.6119      1.555422       0.90014793   
   2007000  -6099.6286     -6175.9802      76.351554      29475.522      456.12458      8290.4676      1.5588262      0.82553439   
   2007100  -6099.3111     -6176.452       77.140875      30391.613      460.83998      8275.4132      1.561662       0.82553439   
   2007200  -6098.8833     -6175.2352      76.35185       30768.724      456.12635      8265.4717      1.5635403      0.82553439   
   2007300  -6100.1137     -6176.3487      76.234988      31776.432      455.42821      8263.6422      1.5638864      0.82553439   
   2007400  -6100.8838     -6176.814       75.93019       31369.878      453.60735      8267.4902      1.5631585      0.82553439   
   2007500  -6096.2872     -6174.8186      78.531392      35406.185      469.14694      8274.9277      1.5617536      0.82553439   
   2007600  -6100.0174     -6174.3282      74.310758      32078.658      443.93285      8287.8371      1.5593209      0.82553439   
   2007700  -6099.7967     -6177.1032      77.306472      27142.582      461.82926      8306.1347      1.5558859      0.82553439   
   2007800  -6100.5872     -6174.5437      73.956479      26514.898      441.81639      8323.2898      1.5526791      0.82553439   
   2007900  -6099.0922     -6175.1647      76.072484      23493.876      454.45741      8340.388       1.549496       0.82553439   
   2008000  -6100.7763     -6176.0845      75.308227      29506.832      449.89173      8354.1087      1.5469511      0.80343918   
   2008100  -6102.414      -6178.4668      76.052729      26951.056      454.3394       8359.1957      1.5460097      0.80343918   
   2008200  -6101.357      -6175.5869      74.229908      28699.427      443.44986      8349.9587      1.54772        0.80343918   
   2008300  -6102.2959     -6178.4747      76.178773      26965.347      455.09238      8331.0663      1.5512297      0.80343918   
   2008400  -6103.8273     -6177.4363      73.609042      27514.434      439.7408       8303.7238      1.5563376      0.80343918   
   2008500  -6104.7483     -6180.6452      75.896843      27121.606      453.40813      8269.2966      1.5628171      0.80343918   
   2008600  -6100.4821     -6176.4606      75.978526      34826.754      453.8961       8227.6914      1.5707198      0.80343918   
   2008700  -6102.1352     -6179.4423      77.307029      33939.286      461.83259      8191.8709      1.5775881      0.80343918   
   2008800  -6100.2402     -6175.384       75.143815      30903.063      448.90954      8171.8003      1.5814628      0.80343918   
   2008900  -6100.5034     -6177.5929      77.08945       32766.525      460.53277      8172.1334      1.5813983      0.80343918   
   2009000  -6103.6326     -6179.2055      75.572921      33789.364      451.47302      8193.034       1.5773641      0.84825228   
   2009100  -6103.9859     -6179.6927      75.706772      30444.814      452.27265      8229.9022      1.5702979      0.84825228   
   2009200  -6105.2146     -6174.9835      69.768892      33440.309      416.79972      8274.7745      1.5617825      0.84825228   
   2009300  -6105.4089     -6181.7742      76.365281      32748.147      456.20658      8318.2382      1.553622       0.84825228   
   2009400  -6105.2626     -6178.8762      73.613615      32505.619      439.76811      8345.8729      1.5484777      0.84825228   
   2009500  -6105.7647     -6178.6704      72.905668      33623.425      435.53883      8355.8554      1.5466277      0.84825228   
   2009600  -6103.4601     -6177.7725      74.312415      27223.407      443.94275      8344.4656      1.5487388      0.84825228   
   2009700  -6104.7633     -6178.605       73.841699      27573.416      441.13069      8314.8139      1.5542618      0.84825228   
   2009800  -6102.9394     -6176.8492      73.909733      29673.636      441.53712      8272.4475      1.5622218      0.84825228   
   2009900  -6099.4901     -6174.9092      75.419092      35077.22       450.55405      8227.9216      1.5706759      0.84825228   
   2010000  -6099.2529     -6174.8605      75.607543      35568.147      451.67985      8193.2283      1.5773267      0.90405708   
   2010100  -6101.5059     -6177.9435      76.437572      34347.818      456.63845      8177.5434      1.5803521      0.90405708   
   2010200  -6102.4711     -6178.0704      75.599232      33059.685      451.6302       8182.0293      1.5794857      0.90405708   
   2010300  -6102.2386     -6177.1008      74.862169      31204.136      447.22699      8201.0724      1.5758181      0.90405708   
   2010400  -6104.6755     -6180.4322      75.756739      32549.706      452.57115      8231.1729      1.5700554      0.90405708   
   2010500  -6104.3014     -6177.4984      73.197         27532.306      437.27926      8263.13        1.5639834      0.90405708   
   2010600  -6106.1091     -6179.245       73.135972      22522.783      436.91467      8291.0027      1.5587256      0.90405708   
   2010700  -6105.7969     -6179.8337      74.036794      25686.877      442.29619      8306.2027      1.5558732      0.90405708   
   2010800  -6105.2738     -6180.856       75.582174      30401.627      451.5283       8309.6298      1.5552315      0.90405708   
   2010900  -6104.7892     -6180.9737      76.184494      27737.068      455.12656      8302.3875      1.5565881      0.90405708   
   2011000  -6104.6525     -6180.1414      75.488857      28608.675      450.97082      8286.0812      1.5596514      0.79172547   
   2011100  -6101.6807     -6175.7809      74.10022       28393.106      442.6751       8266.3958      1.5633655      0.79172547   
   2011200  -6103.569      -6177.3519      73.782875      30491.357      440.77928      8248.0649      1.56684        0.79172547   
   2011300  -6102.4491     -6176.9841      74.534965      35015.617      445.27227      8232.5672      1.5697895      0.79172547   
   2011400  -6106.3861     -6179.2472      72.861136      31144.222      435.2728       8223.6658      1.5714887      0.79172547   
   2011500  -6102.7302     -6176.8081      74.077867      32115.92       442.54156      8220.5882      1.572077       0.79172547   
   2011600  -6106.0156     -6178.7879      72.772284      32341.558      434.742        8222.3705      1.5717363      0.79172547   
   2011700  -6104.0715     -6177.3012      73.229642      28601.068      437.47426      8228.0365      1.5706539      0.79172547   
   2011800  -6102.8685     -6177.77        74.901495      29289.135      447.46192      8239.2011      1.5685256      0.79172547   
   2011900  -6102.2592     -6174.7248      72.465675      31947.102      432.91032      8253.9182      1.5657289      0.79172547   
   2012000  -6100.6452     -6179.5447      78.899497      29098.671      471.346        8272.7651      1.5621618      0.8563072    
   2012100  -6102.0675     -6178.5774      76.509891      31657.547      457.07048      8288.7644      1.5591465      0.8563072    
   2012200  -6101.0351     -6177.4082      76.373106      26644.232      456.25333      8301.4149      1.5567705      0.8563072    
   2012300  -6101.7693     -6176.4904      74.721138      29624.712      446.38446      8312.8872      1.5546221      0.8563072    
   2012400  -6102.5587     -6177.782       75.223309      33024.276      449.38443      8320.8981      1.5531254      0.8563072    
   2012500  -6101.084      -6178.6545      77.570435      29916.39       463.40618      8321.7391      1.5529684      0.8563072    
   2012600  -6100.2148     -6179.7642      79.549423      32006.732      475.22866      8317.0839      1.5538376      0.8563072    
   2012700  -6102.9819     -6178.7634      75.781543      30411.071      452.71933      8308.4655      1.5554494      0.8563072    
   2012800  -6105.2236     -6178.4548      73.231214      30924.09       437.48365      8297.2126      1.557559       0.8563072    
   2012900  -6103.601      -6178.993       75.392021      28917.563      450.39232      8282.6734      1.5602931      0.8563072    
   2013000  -6105.5067     -6180.8673      75.360649      30765.312      450.2049       8269.5922      1.5627612      0.88525031   
   2013100  -6106.38       -6182.2173      75.837325      29923.715      453.05257      8258.7307      1.5648165      0.88525031   
   2013200  -6104.1757     -6178.4738      74.298112      27096.843      443.8573       8247.6943      1.5669104      0.88525031   
   2013300  -6102.3588     -6178.0017      75.642832      27511.867      451.89067      8241.1379      1.568157       0.88525031   
   2013400  -6101.4103     -6178.3721      76.96178       30076.575      459.77007      8242.7263      1.5678548      0.88525031   
   2013500  -6102.9617     -6177.714       74.752344      31063.564      446.57089      8254.4296      1.5656319      0.88525031   
   2013600  -6101.2411     -6177.8993      76.658196      30631.601      457.95646      8275.9377      1.561563       0.88525031   
   2013700  -6100.88       -6177.2953      76.415341      30667.34       456.50564      8300.6881      1.5569068      0.88525031   
   2013800  -6103.4124     -6176.8259      73.41342       32069.847      438.57215      8325.2655      1.5523106      0.88525031   
   2013900  -6102.1396     -6177.8308      75.691168      30822.324      452.17943      8341.7506      1.5492429      0.88525031   
   2014000  -6101.0378     -6176.4766      75.438821      27659.505      450.67191      8346.9541      1.5482771      0.78104291   
   2014100  -6102.3376     -6176.2526      73.914993      25922.203      441.56855      8345.2683      1.5485899      0.78104291   
   2014200  -6102.7353     -6176.7383      74.002907      27719.433      442.09375      8334.4326      1.5506032      0.78104291   
   2014300  -6103.3148     -6179.7016      76.386744      23490.393      456.3348       8314.5941      1.5543029      0.78104291   
   2014400  -6102.1241     -6177.3418      75.217686      28715.823      449.35084      8287.668       1.5593528      0.78104291   
   2014500  -6100.4939     -6177.6639      77.169998      31937.501      461.01396      8262.6261      1.5640787      0.78104291   
   2014600  -6100.7344     -6175.7327      74.998371      32985.251      448.04066      8244.1771      1.5675789      0.78104291   
   2014700  -6099.5576     -6175.8562      76.298688      27585.783      455.80876      8233.3843      1.5696338      0.78104291   
   2014800  -6100.3261     -6177.215       76.888876      27552.006      459.33454      8234.3217      1.5694551      0.78104291   
   2014900  -6098.354      -6176.7482      78.394178      27794.962      468.32723      8246.811       1.5670782      0.78104291   
   2015000  -6099.1028     -6173.4185      74.31574       31391.369      443.96262      8269.9084      1.5627015      0.80074434   
   2015100  -6100.1819     -6176.191       76.009041      32446.225      454.0784       8300.0682      1.5570231      0.80074434   
   2015200  -6098.3345     -6174.9887      76.654174      33198.672      457.93243      8331.3704      1.5511731      0.80074434   
   2015300  -6103.178      -6177.422       74.244021      26444.597      443.53416      8354.9002      1.5468046      0.80074434   
   2015400  -6105.9923     -6180.5162      74.523905      20681.113      445.20619      8363.4384      1.5452255      0.80074434   
   2015500  -6103.398      -6177.9032      74.505127      24942.078      445.09401      8353.7459      1.5470183      0.80074434   
   2015600  -6103.1969     -6179.3431      76.146228      25524.918      454.89796      8332.064       1.551044       0.80074434   
   2015700  -6102.7913     -6176.4638      73.672465      32248.136      440.11968      8304.3928      1.5562123      0.80074434   
   2015800  -6102.4661     -6177.2768      74.810669      27937.816      446.91932      8275.7634      1.5615959      0.80074434   
   2015900  -6101.7482     -6175.1663      73.418006      26388.53       438.59955      8252.2393      1.5660474      0.80074434   
   2016000  -6103.1951     -6178.2992      75.104095      28310.59       448.67225      8236.3564      1.5690673      0.86480225   
   2016100  -6103.4345     -6178.6602      75.225723      31408.493      449.39886      8226.4541      1.5709561      0.86480225   
   2016200  -6103.1255     -6176.1656      73.040027      33250.676      436.3415       8225.569       1.5711251      0.86480225   
   2016300  -6103.4532     -6179.5149      76.061721      31660.502      454.39311      8235.5372      1.5692234      0.86480225   
   2016400  -6103.7884     -6176.619       72.830642      31448.642      435.09063      8250.5734      1.5663636      0.86480225   
   2016500  -6103.2085     -6177.1923      73.983864      24648.766      441.97999      8267.9663      1.5630685      0.86480225   
   2016600  -6102.9559     -6181.3163      78.360384      24955.743      468.12534      8285.7865      1.5597068      0.86480225   
   2016700  -6102.3653     -6175.4182      73.052959      26677.862      436.41876      8300.8303      1.5568802      0.86480225   
   2016800  -6098.462      -6176.6715      78.209507      28217.827      467.224        8314.027       1.5544089      0.86480225   
   2016900  -6102.3737     -6176.2176      73.843887      28491.526      441.14376      8325.7347      1.5522231      0.86480225   
   2017000  -6102.8195     -6179.4956      76.676027      28107.23       458.06298      8330.353       1.5513626      0.88072363   
   2017100  -6101.8161     -6174.7181      72.901946      33742.3        435.5166       8323.2259      1.552691       0.88072363   
   2017200  -6101.5534     -6174.1109      72.557457      30923.094      433.45862      8312.3317      1.554726       0.88072363   
   2017300  -6104.0433     -6178.1539      74.110621      27563.342      442.73723      8299.5638      1.5571177      0.88072363   
   2017400  -6100.2204     -6176.4279      76.207473      31345.265      455.26384      8285.6533      1.5597319      0.88072363   
   2017500  -6101.7596     -6178.3012      76.541627      30439.485      457.26008      8276.401       1.5614756      0.88072363   
   2017600  -6101.0364     -6176.6378      75.601398      29181.687      451.64314      8273.3204      1.562057       0.88072363   
   2017700  -6103.8789     -6179.7275      75.848639      31350.973      453.12016      8275.377       1.5616688      0.88072363   
   2017800  -6102.838      -6177.6159      74.777899      28375.326      446.72356      8281.2322      1.5605646      0.88072363   
   2017900  -6102.8746     -6177.5393      74.664634      29296.642      446.04691      8290.3264      1.5588527      0.88072363   
   2018000  -6102.7681     -6178.0786      75.310479      26896.988      449.90519      8301.13        1.5568239      0.84467782   
   2018100  -6103.8546     -6175.3499      71.495353      24944.949      427.11361      8313.2294      1.5545581      0.84467782   
   2018200  -6101.0069     -6177.9593      76.952393      28943.186      459.71399      8322.661       1.5527964      0.84467782   
   2018300  -6102.3113     -6177.0569      74.745581      27658.001      446.53048      8326.7199      1.5520395      0.84467782   
   2018400  -6100.1582     -6177.4736      77.315371      29131.333      461.88242      8325.6932      1.5522309      0.84467782   
   2018500  -6099.9393     -6176.7874      76.848143      33636.466      459.0912       8320.3385      1.5532298      0.84467782   
   2018600  -6101.9886     -6178.109       76.120472      28664.563      454.74409      8314.6742      1.5542879      0.84467782   
   2018700  -6104.2278     -6178.3131      74.0853        30348.184      442.58596      8305.9307      1.5559241      0.84467782   
   2018800  -6102.9536     -6178.4874      75.533719      28052.808      451.23883      8292.671       1.558412       0.84467782   
   2018900  -6102.37       -6176.8502      74.480168      30659.787      444.9449       8277.1696      1.5613306      0.84467782   
   2019000  -6102.5894     -6178.0851      75.495727      32892.979      451.01186      8265.107       1.5636093      0.80859527   
   2019100  -6100.4656     -6175.3808      74.9152        34570.433      447.54379      8259.5331      1.5646645      0.80859527   
   2019200  -6099.241      -6176.1003      76.859318      29106.63       459.15796      8260.858       1.5644135      0.80859527   
   2019300  -6099.0301     -6174.9247      75.894544      32890.721      453.39439      8268.2438      1.5630161      0.80859527   
   2019400  -6100.7739     -6178.1875      77.413562      33948.273      462.46902      8285.7442      1.5597148      0.80859527   
   2019500  -6101.2863     -6176.3744      75.088128      32237.337      448.57686      8304.4076      1.5562095      0.80859527   
   2019600  -6102.7604     -6175.218       72.457671      32130.491      432.8625       8320.1203      1.5532706      0.80859527   
   2019700  -6103.535      -6178.8716      75.336574      27672.633      450.06108      8329.6567      1.5514923      0.80859527   
   2019800  -6100.679      -6176.3391      75.660093      30377.617      451.99379      8326.4438      1.5520909      0.80859527   
   2019900  -6099.1702     -6176.4661      77.295931      31790.026      461.76629      8311.5218      1.5548775      0.80859527   
   2020000  -6099.507      -6176.9293      77.42233       32897.796      462.5214       8290.5395      1.5588127      0.91171942   
   2020033  -6100.8187     -6177.5429      76.72428       27686.496      458.35124      8282.8546      1.5602589      0.91171942   
Loop time of 8642.1 on 1 procs for 2000000 steps with 1296 atoms

Performance: 9.998 ns/day, 2.401 hours/ns, 231.425 timesteps/s, 299.927 katom-step/s
99.8% CPU use with 1 MPI tasks x 1 OpenMP threads

MPI task timing breakdown:
Section |  min time  |  avg time  |  max time  |%varavg| %total
---------------------------------------------------------------
Pair    | 6610.2     | 6610.2     | 6610.2     |   0.0 | 76.49
Neigh   | 87.584     | 87.584     | 87.584     |   0.0 |  1.01
Comm    | 87.454     | 87.454     | 87.454     |   0.0 |  1.01
Output  | 5.3097     | 5.3097     | 5.3097     |   0.0 |  0.06
Modify  | 1806.7     | 1806.7     | 1806.7     |   0.0 | 20.91
Other   |            | 44.84      |            |       |  0.52

Nlocal:           1296 ave        1296 max        1296 min
Histogram: 1 0 0 0 0 0 0 0 0 0
Nghost:           4451 ave        4451 max        4451 min
Histogram: 1 0 0 0 0 0 0 0 0 0
Neighs:              0 ave           0 max           0 min
Histogram: 1 0 0 0 0 0 0 0 0 0
FullNghs:       233204 ave      233204 max      233204 min
Histogram: 1 0 0 0 0 0 0 0 0 0

Total # of neighbors = 233204
Ave neighs/atom = 179.94136
Neighbor list builds = 200000
Dangerous builds = 200000
Total wall time: 2:25:29
