LAMMPS (27 Jun 2024)
KOKKOS mode with Kokkos version 4.3.1 is enabled (src/KOKKOS/kokkos.cpp:72)
  will use up to 1 GPU(s) per node
WARNING: When using a single thread, the Kokkos Serial backend (i.e. Makefile.kokkos_mpi_only) gives better performance than the OpenMP backend (src/KOKKOS/kokkos.cpp:202)
  using 1 OpenMP thread(s) per MPI task
package kokkos
package kokkos newton on neigh half

units		metal						## E in [eV], t in [ps], P in [10000 Pa], l in [A]
atom_style	atomic						## mass x y z vx vy vz

neighbor	0.5 bin						## neighbor list, skin = 0.5 Angstrom
neigh_modify	every 2 delay 10 check yes			## update of neighbor list

############################## main variables
variable        seed equal 30035

variable	temperature equal 265
variable	tempDamp equal 0.1

variable        pressure equal 5000
variable        pressureDamp equal 1.0 				# This is 1 ps

##############################

read_data water.dat
Reading data file ...
  triclinic box = (0 0 0) to (20.086446 20.107908 21.036805) with tilt (-0.12289673 -0.12587322 0.25756352)
  1 by 1 by 1 MPI processor grid
  reading atoms ...
  972 atoms
  read_data CPU = 0.014 seconds

mass		1 1.008    # H
mass		2 15.9994  # O


pair_style	pace/extrapolation
ACE/AL version: 2023.11.25
pair_coeff	* * /pc2/users/a/acepdw01/work/phase_diagram/pot_dir/interim_potential_ladder_step_1.yaml /pc2/users/a/acepdw01/work/phase_diagram/pot_dir/interim_potential_ladder_step_1.asi H O
Loading /pc2/users/a/acepdw01/work/phase_diagram/pot_dir/interim_potential_ladder_step_1.yaml
Total number of basis functions
	H: 23 (r=1) 664 (r>1)
	O: 23 (r=1) 664 (r>1)
Mapping LAMMPS atom type #1(H) -> ACE species type #0
Mapping LAMMPS atom type #2(O) -> ACE species type #1
Loading ASI /pc2/users/a/acepdw01/work/phase_diagram/pot_dir/interim_potential_ladder_step_1.asi
LINEAR ASI is loaded

fix pace_gamma all pair 1000 pace/extrapolation gamma 1
compute max_pace_gamma all reduce max f_pace_gamma
variable dump_skip equal "c_max_pace_gamma < 10"

dump pace_dump all custom 1000 extrapolative_structures.dump id type x y z f_pace_gamma
dump_modify pace_dump skip v_dump_skip
dump_modify pace_dump element H O

variable max_pace_gamma equal c_max_pace_gamma

timestep	0.0005						## timestep = 0.0005*ps = 0.5 fs

thermo		100
thermo_style custom step etotal pe ke press temp vol density c_max_pace_gamma


min_style cg
minimize 0.0 5.0e-4 10000 100000

CITE-CITE-CITE-CITE-CITE-CITE-CITE-CITE-CITE-CITE-CITE-CITE-CITE

Your simulation uses code contributions which should be cited:

- Type Label Framework: https://doi.org/10.1021/acs.jpcb.3c08419

@Article{Gissinger24,
 author = {Jacob R. Gissinger, Ilia Nikiforov, Yaser Afshar, Brendon Waters, Moon-ki Choi, Daniel S. Karls, Alexander Stukowski, Wonpil Im, Hendrik Heinz, Axel Kohlmeyer, and Ellad B. Tadmor},
 title = {Type Label Framework for Bonded Force Fields in LAMMPS},
 journal = {J. Phys. Chem. B},
 year =    2024,
 volume =  128,
 number =  13,
 pages =   {3282–-3297}
}

CITE-CITE-CITE-CITE-CITE-CITE-CITE-CITE-CITE-CITE-CITE-CITE-CITE

Switching to 'neigh_modify every 1 delay 0 check yes' setting during minimization
Neighbor list info ...
  update: every = 1 steps, delay = 0 steps, check = yes
  max neighbors/atom: 2000, page size: 100000
  master list distance cutoff = 6.5
  ghost atom cutoff = 6.5
  binsize = 6.5, bins = 4 4 4
  1 neighbor lists, perpetual/occasional/extra = 1 0 0
  (1) pair pace/extrapolation/kk, perpetual
      attributes: full, newton on, kokkos_device
      pair build: full/bin/kk/device
      stencil: full/bin/3d
      bin: kk/device
WARNING: Fix with atom-based arrays not compatible with sending data in Kokkos communication, switching to classic exchange/border communication (src/KOKKOS/comm_kokkos.cpp:754)
WARNING: Fix with atom-based arrays not compatible with Kokkos sorting on device, switching to classic host sorting (src/KOKKOS/atom_kokkos.cpp:216)
Per MPI rank memory allocation (min/avg/max) = 777.8 | 777.8 | 777.8 Mbytes
   Step         TotEng         PotEng         KinEng         Press           Temp          Volume        Density     c_max_pace_gamma
         0  -4674.4783     -4674.4783      0             -4207.0767      0              8496.6904      1.140744       0.70893374   
       100  -4698.4118     -4698.4118      0             -5361.4596      0              8496.6904      1.140744       0.70893374   
       200  -4698.4284     -4698.4284      0             -5286.6896      0              8496.6904      1.140744       0.70893374   
       300  -4698.4286     -4698.4286      0             -5280.3747      0              8496.6904      1.140744       0.70893374   
       344  -4698.4286     -4698.4286      0             -5279.8075      0              8496.6904      1.140744       0.70893374   
Loop time of 1.78623 on 1 procs for 344 steps with 972 atoms

99.3% CPU use with 1 MPI tasks x 1 OpenMP threads

Minimization stats:
  Stopping criterion = force tolerance
  Energy initial, next-to-last, final = 
     -4674.47831881434  -4698.42855640536  -4698.42855640926
  Force two-norm initial, final = 12.278537 0.00048663507
  Force max component initial, final = 0.80662295 7.0562336e-05
  Final line search alpha, max atom move = 1 7.0562336e-05
  Iterations, force evaluations = 344 688

MPI task timing breakdown:
Section |  min time  |  avg time  |  max time  |%varavg| %total
---------------------------------------------------------------
Pair    | 1.5322     | 1.5322     | 1.5322     |   0.0 | 85.78
Neigh   | 0.0019972  | 0.0019972  | 0.0019972  |   0.0 |  0.11
Comm    | 0.016519   | 0.016519   | 0.016519   |   0.0 |  0.92
Output  | 0.00037655 | 0.00037655 | 0.00037655 |   0.0 |  0.02
Modify  | 0.14177    | 0.14177    | 0.14177    |   0.0 |  7.94
Other   |            | 0.09332    |            |       |  5.22

Nlocal:            972 ave         972 max         972 min
Histogram: 1 0 0 0 0 0 0 0 0 0
Nghost:           3295 ave        3295 max        3295 min
Histogram: 1 0 0 0 0 0 0 0 0 0
Neighs:              0 ave           0 max           0 min
Histogram: 1 0 0 0 0 0 0 0 0 0
FullNghs:       121804 ave      121804 max      121804 min
Histogram: 1 0 0 0 0 0 0 0 0 0

Total # of neighbors = 121804
Ave neighs/atom = 125.31276
Neighbor list builds = 6
Dangerous builds = 0

################## equilibration of main calculation
# Equilibrate to specified number of ice

fix             3 all nph tri ${pressure} ${pressure} ${pressureDamp}
fix             3 all nph tri 5000 ${pressure} ${pressureDamp}
fix             3 all nph tri 5000 5000 ${pressureDamp}
fix             3 all nph tri 5000 5000 1
fix             4 all temp/csvr ${temperature} ${temperature} ${tempDamp} ${seed}
fix             4 all temp/csvr 265 ${temperature} ${tempDamp} ${seed}
fix             4 all temp/csvr 265 265 ${tempDamp} ${seed}
fix             4 all temp/csvr 265 265 0.1 ${seed}
fix             4 all temp/csvr 265 265 0.1 30035
velocity 	all create ${temperature} ${seed} dist gaussian
velocity 	all create 265 ${seed} dist gaussian
velocity 	all create 265 30035 dist gaussian

run 200000
WARNING: Fix with atom-based arrays not compatible with Kokkos sorting on device, switching to classic host sorting (src/KOKKOS/atom_kokkos.cpp:216)
Per MPI rank memory allocation (min/avg/max) = 777 | 777 | 777 Mbytes
   Step         TotEng         PotEng         KinEng         Press           Temp          Volume        Density     c_max_pace_gamma
       344  -4665.168      -4698.4286      33.260574     -1098.6258      265            8496.6904      1.140744       0.70893374   
       400  -4662.5736     -4678.306       15.732408      637.74696      125.34625      8479.9052      1.143002       0.70893374   
       500  -4655.0751     -4675.4371      20.361968     -19.926051      162.23176      8387.3262      1.1556184      0.70893374   
       600  -4648.9827     -4671.7631      22.780456     -1242.078       181.5008       8226.1272      1.1782639      0.70893374   
       700  -4644.9481     -4670.9549      26.006746      5946.9596      207.20591      8044.8373      1.204816       0.70893374   
       800  -4642.1181     -4670.5832      28.465081      4656.0591      226.79243      7902.1265      1.2265747      0.70893374   
       900  -4639.1816     -4667.2375      28.05586       10329.83       223.53201      7817.0465      1.2399246      0.70893374   
      1000  -4636.2576     -4666.4406      30.183049      6524.0139      240.48016      7789.3687      1.2443304      0.7444233    
      1100  -4636.4318     -4665.758       29.3262        8092.5152      233.6533       7816.4393      1.2400209      0.7444233    
      1200  -4636.0105     -4665.8368      29.826272      3279.0087      237.63758      7883.4788      1.2294761      0.7444233    
      1300  -4635.2547     -4666.1332      30.878511      6704.7201      246.02117      7968.2066      1.2164027      0.7444233    
      1400  -4634.8025     -4666.2503      31.447794      5197.162       250.55687      8053.6478      1.2034979      0.7444233    
      1500  -4632.7906     -4665.2271      32.436501      3757.3457      258.43429      8126.8393      1.1926591      0.7444233    
      1600  -4632.2181     -4663.8726      31.654499      5268.0679      252.20377      8183.4241      1.1844123      0.7444233    
      1700  -4630.6394     -4662.9512      32.311772      1316.7656      257.44052      8222.2947      1.1788131      0.7444233    
      1800  -4630.4446     -4662.9647      32.52017       6144.5359      259.10091      8239.4672      1.1763562      0.7444233    
      1900  -4631.1336     -4663.546       32.412382      1162.971       258.24212      8231.0709      1.1775562      0.7444233    
      2000  -4630.4782     -4662.9636      32.485357      1302.1585      258.82354      8184.062       1.18432        0.68285047   
      2100  -4627.5749     -4661.895       34.320106      5213.6953      273.4417       8108.8985      1.1952978      0.68285047   
      2200  -4627.5096     -4661.1576      33.648029      8797.4268      268.08701      8029.1411      1.2071713      0.68285047   
      2300  -4628.2219     -4661.9158      33.693936      4556.217       268.45276      7969.1243      1.2162627      0.68285047   
      2400  -4628.5857     -4662.7335      34.147834      7040.4654      272.06915      7943.6475      1.2201635      0.68285047   
      2500  -4629.5014     -4663.3793      33.877974      8863.7266      269.91906      7956.1925      1.2182396      0.68285047   
      2600  -4627.4039     -4662.2688      34.864939      6401.3922      277.7826       7992.2294      1.2127465      0.68285047   
      2700  -4628.7447     -4661.9184      33.173703      6120.9849      264.30786      8046.8219      1.2045188      0.68285047   
      2800  -4628.0279     -4661.7349      33.706998      7667.1762      268.55683      8106.6407      1.1956307      0.68285047   
      2900  -4627.382      -4662.2993      34.917293      2162.9043      278.19973      8158.3863      1.1880473      0.68285047   
      3000  -4628.925      -4662.4073      33.482304      2008.4697      266.76661      8195.741       1.1826324      0.65856738   
      3100  -4629.19       -4664.3581      35.168091      6170.5647      280.19793      8212.7666      1.1801807      0.65856738   
      3200  -4630.0428     -4662.3801      32.337297      1086.5871      257.64389      8206.5004      1.1810818      0.65856738   
      3300  -4629.8047     -4662.7839      32.979167      2724.0396      262.75792      8178.5253      1.1851218      0.65856738   
      3400  -4630.3307     -4662.7026      32.371942      3510.8084      257.91992      8132.2368      1.1918675      0.65856738   
      3500  -4628.7448     -4662.1651      33.420214      4996.8367      266.27191      8077.3967      1.1999594      0.65856738   
      3600  -4627.9707     -4662.5596      34.588858      7239.1272      275.58295      8032.4272      1.2066774      0.65856738   
      3700  -4627.8344     -4662.1045      34.270066      6969.0323      273.04301      8016.5985      1.20906        0.65856738   
      3800  -4629.3991     -4663.7869      34.387868      6228.9316      273.98159      8027.681       1.2073908      0.65856738   
      3900  -4629.2218     -4662.4119      33.190048      4118.6149      264.43809      8046.6987      1.2045373      0.65856738   
      4000  -4629.0384     -4661.675       32.636595      5590.1868      260.02851      8066.5783      1.2015687      0.70205753   
      4100  -4628.1133     -4662.4748      34.361573      6738.2307      273.77209      8089.3532      1.1981858      0.70205753   
      4200  -4630.3665     -4662.8267      32.46019       3297.4204      258.62302      8119.4716      1.1937413      0.70205753   
      4300  -4629.5234     -4662.1682      32.644898      4868.4828      260.09467      8152.0028      1.1889776      0.70205753   
      4400  -4629.1637     -4662.4103      33.246581      6969.1455      264.88851      8181.27        1.1847242      0.70205753   
      4500  -4629.1731     -4662.8508      33.677702      6176.0628      268.32342      8197.6241      1.1823607      0.70205753   
      4600  -4628.9596     -4662.3571      33.397432      3380.2344      266.0904       8194.6045      1.1827964      0.70205753   
      4700  -4628.9645     -4663.267       34.302542     -1728.7858      273.30177      8176.5996      1.1854009      0.70205753   
      4800  -4628.9421     -4662.0671      33.124949      5074.9739      263.91942      8146.0681      1.1898438      0.70205753   
      4900  -4629.4039     -4662.4852      33.081325      7582.7438      263.57185      8101.2052      1.1964329      0.70205753   
      5000  -4629.379      -4662.5492      33.170253      5368.945       264.28038      8048.8871      1.2042098      0.70666358   
      5100  -4628.4506     -4662.6491      34.198548      6952.8923      272.47321      8001.1824      1.2113895      0.70666358   
      5200  -4631.0049     -4664.1313      33.126415      8015.4291      263.9311       7976.3231      1.215165       0.70666358   
      5300  -4629.8349     -4662.5132      32.678313      7377.2474      260.3609       7979.6027      1.2146655      0.70666358   
      5400  -4629.3246     -4662.6235      33.29892       5442.8545      265.30552      8015.5956      1.2092113      0.70666358   
      5500  -4628.8862     -4662.4006      33.514398      2510.2694      267.02231      8071.8691      1.2007812      0.70666358   
      5600  -4629.1154     -4663.1061      33.990707      4058.0117      270.81725      8137.1047      1.1911544      0.70666358   
      5700  -4628.7898     -4662.8403      34.050548      4233.0341      271.29403      8195.1583      1.1827164      0.70666358   
      5800  -4628.3281     -4663.2174      34.889248      3502.8472      277.97628      8239.7632      1.176314       0.70666358   
      5900  -4627.8466     -4661.9237      34.077077      1939.7992      271.5054       8264.3215      1.1728184      0.70666358   
      6000  -4626.5747     -4660.4081      33.833378      4236.6322      269.56375      8262.9912      1.1730072      0.728633     
      6100  -4626.7251     -4661.223       34.497943      2733.8569      274.8586       8228.4851      1.1779262      0.728633     
      6200  -4626.3406     -4660.5014      34.160821      2391.2048      272.17262      8162.0218      1.1875181      0.728633     
      6300  -4625.7576     -4661.5996      35.842001      7418.4115      285.56723      8078.9039      1.1997356      0.728633     
      6400  -4627.0561     -4662.7859      35.729796      7112.788       284.67325      8011.3244      1.2098559      0.728633     
      6500  -4626.7505     -4660.2102      33.459756      6538.726       266.58696      7975.9627      1.2152199      0.728633     
      6600  -4628.6763     -4662.9846      34.308355      7201.8371      273.34808      7966.9533      1.2165941      0.728633     
      6700  -4629.5809     -4662.7373      33.156395      5744.3077      264.16996      7973.5674      1.2155849      0.728633     
      6800  -4630.8564     -4662.7471      31.890729      7609.3697      254.0859       7994.3445      1.2124257      0.728633     
      6900  -4631.0045     -4664.0357      33.031195      2494.957       263.17244      8033.5438      1.2065097      0.728633     
      7000  -4631.5111     -4663.6637      32.152579      6323.8187      256.17217      8088.15        1.1983641      0.75983757   
      7100  -4631.2611     -4663.1985      31.937479      6621.6814      254.45839      8152.3854      1.1889218      0.75983757   
      7200  -4629.902      -4663.4011      33.499054      5775.8764      266.90006      8205.3669      1.181245       0.75983757   
      7300  -4630.1763     -4663.6038      33.427529      749.0943       266.33019      8232.366       1.1773709      0.75983757   
      7400  -4629.3245     -4663.8511      34.526586      2927.6122      275.08681      8231.1996      1.1775378      0.75983757   
      7500  -4630.233      -4663.5556      33.322572      5986.7956      265.49396      8208.2882      1.1808246      0.75983757   
      7600  -4629.7206     -4662.6194      32.898799      6399.3938      262.1176       8170.5056      1.186285       0.75983757   
      7700  -4630.1727     -4663.5819      33.409199      1777.5918      266.18415      8125.4393      1.1928645      0.75983757   
      7800  -4629.9484     -4663.1177      33.169334      5276.016       264.27305      8072.2453      1.2007252      0.75983757   
      7900  -4629.599      -4662.7671      33.168092      6959.4758      264.26316      8019.0235      1.2086943      0.75983757   
      8000  -4629.2744     -4662.3695      33.095093      7292.4979      263.68154      7979.7762      1.2146391      0.93940992   
      8100  -4630.1662     -4664.0714      33.905175      5183.4498      270.13579      7964.9341      1.2169025      0.93940992   
      8200  -4631.0935     -4663.5035      32.40997       5249.2902      258.2229       7981.6237      1.214358       0.93940992   
      8300  -4631.1021     -4663.7994      32.697336      7760.1425      260.51246      8020.4171      1.2084843      0.93940992   
      8400  -4630.5958     -4663.5047      32.908991      5694.1406      262.1988       8070.6151      1.2009677      0.93940992   
      8500  -4630.9549     -4664.0127      33.057798      2874.5897      263.3844       8119.4857      1.1937392      0.93940992   
      8600  -4630.2786     -4663.9902      33.711611      4429.3138      268.59359      8156.3587      1.1883426      0.93940992   
      8700  -4628.8643     -4661.982       33.117727      4078.7851      263.86188      8175.2587      1.1855953      0.93940992   
      8800  -4628.6624     -4660.851       32.188591      2936.8767      256.45909      8176.684       1.1853886      0.93940992   
      8900  -4627.8352     -4662.533       34.697815      5023.3135      276.45106      8158.5487      1.1880236      0.93940992   
      9000  -4628.5647     -4661.6448      33.080147      6000.4283      263.56247      8126.0619      1.1927732      0.73917152   
      9100  -4629.1359     -4662.9496      33.813655      6336.9901      269.40661      8086.1008      1.1986678      0.73917152   
      9200  -4628.6101     -4662.196       33.585936      6192.0869      267.59228      8046.4359      1.2045766      0.73917152   
      9300  -4628.9949     -4662.1242      33.129246      3360.1846      263.95366      8015.0895      1.2092876      0.73917152   
      9400  -4629.1272     -4662.9264      33.799208      6684.5996      269.2915       7995.3853      1.2122678      0.73917152   
      9500  -4629.8828     -4663.2843      33.401442      6953.1782      266.12235      7994.741       1.2123655      0.73917152   
      9600  -4630.7938     -4663.2193      32.425488      4325.8312      258.34654      8012.9489      1.2096107      0.73917152   
      9700  -4631.7073     -4663.8921      32.184712      9287.895       256.42818      8047.9521      1.2043497      0.73917152   
      9800  -4630.9234     -4662.8882      31.96477       5655.1532      254.67582      8093.2253      1.1976126      0.73917152   
      9900  -4630.8605     -4664.3538      33.493309      4827.9574      266.85429      8138.8784      1.1908949      0.73917152   
     10000  -4630.3452     -4665.2304      34.88524       2500.1742      277.94434      8177.277       1.1853027      0.6970705    
     10100  -4629.959      -4662.3394      32.380446      2024.6408      257.98767      8202.3261      1.1816829      0.6970705    
     10200  -4630.0847     -4662.6533      32.568573      5244.5905      259.48656      8204.4986      1.18137        0.6970705    
     10300  -4629.2845     -4663.818       34.533501      5885.5242      275.14191      8174.8806      1.1856502      0.6970705    
     10400  -4629.13       -4662.0844      32.954472      4203.6514      262.56116      8126.3721      1.1927276      0.6970705    
     10500  -4627.968      -4662.3804      34.412337      5044.8419      274.17655      8077.8292      1.1998952      0.6970705    
     10600  -4627.8567     -4661.9705      34.113813      6380.8706      271.79809      8045.3442      1.2047401      0.6970705    
     10700  -4627.1174     -4662.5373      35.419963      8296.1065      282.20469      8036.4333      1.2060759      0.6970705    
     10800  -4626.9925     -4660.9334      33.940883      6851.2855      270.42029      8048.2683      1.2043024      0.6970705    
     10900  -4626.0364     -4660.4046      34.368218      5701.0596      273.82503      8070.8632      1.2009308      0.6970705    
     11000  -4627.198      -4662.2253      35.027357      7685.9806      279.07665      8099.5217      1.1966816      0.70076235   
     11100  -4628.9623     -4663.025       34.062753      4024.2789      271.39127      8131.5043      1.1919748      0.70076235   
     11200  -4628.9405     -4661.6287      32.688213      5256.4073      260.43977      8156.9979      1.1882495      0.70076235   
     11300  -4628.1383     -4661.2279      33.089548      4981.646       263.63737      8174.1566      1.1857552      0.70076235   
     11400  -4627.4834     -4661.2501      33.766704      3682.3138      269.03253      8179.2555      1.185016       0.70076235   
     11500  -4628.2154     -4661.5335      33.318072      1569.3675      265.45811      8166.3676      1.1868861      0.70076235   
     11600  -4628.4162     -4663.1475      34.73129       3768.7577      276.71777      8143.7465      1.190183       0.70076235   
     11700  -4628.936      -4662.1321      33.196029      6411.7143      264.48574      8122.2137      1.1933383      0.70076235   
     11800  -4628.2898     -4662.6149      34.325059      5920.2888      273.48116      8107.3935      1.1955197      0.70076235   
     11900  -4628.8031     -4662.6029      33.799758      6077.9071      269.29589      8095.8311      1.1972271      0.70076235   
     12000  -4627.6868     -4661.965       34.27821       1879.4071      273.1079       8084.1765      1.1989531      0.84889456   
     12100  -4628.674      -4660.4526      31.778606      2689.6957      253.19258      8066.5138      1.2015784      0.84889456   
     12200  -4628.091      -4661.7425      33.651507      9005.618       268.11472      8048.927       1.2042038      0.84889456   
     12300  -4628.0624     -4662.182       34.119689      6851.591       271.8449       8042.7708      1.2051255      0.84889456   
     12400  -4627.8524     -4662.2136      34.361177      7427.2105      273.76893      8060.2612      1.2025105      0.84889456   
     12500  -4628.9028     -4661.0257      32.122887      5313.8219      255.9356       8092.1397      1.1977732      0.84889456   
     12600  -4629.5291     -4661.9144      32.385338      2895.2753      258.02665      8121.858       1.1933905      0.84889456   
     12700  -4629.6284     -4663.5081      33.879745      2724.0748      269.93317      8137.7154      1.191065       0.84889456   
     12800  -4629.2255     -4662.4181      33.192647      5269.524       264.4588       8134.851       1.1914844      0.84889456   
     12900  -4629.1931     -4663.278       34.084957      8219.2647      271.56818      8118.6539      1.1938615      0.84889456   
     13000  -4628.5426     -4662.9391      34.396584      1818.2036      274.05103      8097.7145      1.1969487      0.81231083   
     13100  -4628.4555     -4661.1276      32.672171      8401.8727      260.31196      8077.9208      1.1998816      0.81231083   
     13200  -4628.7958     -4663.0557      34.259935      7030.2927      272.9623       8068.4023      1.2012971      0.81231083   
     13300  -4629.4742     -4663.3065      33.832294      7058.668       269.55511      8066.1034      1.2016395      0.81231083   
     13400  -4627.7487     -4662.5607      34.812031      7059.4956      277.36107      8072.2261      1.2007281      0.81231083   
     13500  -4627.6938     -4662.4146      34.720752      4694.7793      276.63381      8088.64        1.1982915      0.81231083   
     13600  -4627.887      -4661.6499      33.76281       5287.1734      269.00151      8112.7893      1.1947245      0.81231083   
     13700  -4628.1962     -4662.7547      34.558475      6477.6391      275.34088      8135.2217      1.1914301      0.81231083   
     13800  -4627.8406     -4661.8583      34.017754      5557.6295      271.03275      8148.0609      1.1895528      0.81231083   
     13900  -4626.4886     -4661.5584      35.069849      3333.2891      279.4152       8144.8674      1.1900192      0.81231083   
     14000  -4626.3112     -4660.6851      34.373864      4109.4429      273.87002      8128.9636      1.1923474      0.68675483   
     14100  -4626.4421     -4662.4985      36.056402      3055.2117      287.27545      8111.9961      1.1948413      0.68675483   
     14200  -4625.887      -4661.1779      35.29086       2308.5012      281.17608      8102.1492      1.1962935      0.68675483   
     14300  -4627.1861     -4661.3253      34.139241      4224.264       272.00068      8103.2564      1.19613        0.68675483   
     14400  -4628.5384     -4661.4213      32.882885      4468.0233      261.9908       8103.051       1.1961604      0.68675483   
     14500  -4628.938      -4663.4216      34.483526      5094.1198      274.74374      8093.5253      1.1975682      0.68675483   
     14600  -4629.4993     -4662.9652      33.465951      6063.4108      266.63631      8072.7475      1.2006505      0.68675483   
     14700  -4629.743      -4664.3532      34.610178      3778.2097      275.75282      8050.5709      1.2039579      0.68675483   
     14800  -4629.9944     -4662.4665      32.472132      5733.3564      258.71817      8029.5689      1.2071069      0.68675483   
     14900  -4630.3524     -4662.6922      32.339815      5351.5877      257.66395      8018.3565      1.2087949      0.68675483   
     15000  -4630.0514     -4662.8701      32.818618      8052.1961      261.47877      8024.1818      1.2079173      0.73778336   
     15100  -4629.4988     -4663.8352      34.336438      3454.9044      273.57183      8042.2113      1.2052094      0.73778336   
     15200  -4629.8409     -4662.2131      32.372193      6808.8852      257.92192      8064.4366      1.2018879      0.73778336   
     15300  -4629.8469     -4663.766       33.919082      8543.6442      270.24659      8085.3081      1.1987853      0.73778336   
     15400  -4630.5139     -4663.7715      33.257638      5287.2204      264.97661      8105.4108      1.1958121      0.73778336   
     15500  -4630.171      -4663.0273      32.85636       4471.4678      261.77947      8122.8189      1.1932493      0.73778336   
     15600  -4629.5229     -4663.0512      33.528323      3521.8505      267.13326      8130.6134      1.1921054      0.73778336   
     15700  -4628.9418     -4662.1444      33.202584      2946.09        264.53797      8124.4928      1.1930035      0.73778336   
     15800  -4627.2888     -4661.9489      34.660064      5327.3987      276.15028      8108.7985      1.1953125      0.73778336   
     15900  -4627.9087     -4661.5364      33.627718      3480.3124      267.92518      8094.0672      1.197488       0.73778336   
     16000  -4629.7087     -4662.2452      32.536506      8943.0629      259.23107      8085.3729      1.1987757      0.72742689   
     16100  -4630.8499     -4664.2413      33.391337      3591.1166      266.04184      8083.1636      1.1991033      0.72742689   
     16200  -4632.1026     -4663.765       31.662387      1515.8202      252.26662      8079.971       1.1995771      0.72742689   
     16300  -4631.8203     -4663.0731      31.252866      5183.6086      249.0038       8067.7193      1.2013988      0.72742689   
     16400  -4631.2461     -4664.0554      32.809282      4660.6469      261.40438      8055.9829      1.2031491      0.72742689   
     16500  -4630.0168     -4664.4999      34.483112      6840.6795      274.74044      8054.7573      1.2033321      0.72742689   
     16600  -4629.2795     -4661.4225      32.143069      7116.6473      256.0964       8064.453       1.2018854      0.72742689   
     16700  -4629.3815     -4662.9362      33.554675      3574.3468      267.34321      8081.3602      1.1993709      0.72742689   
     16800  -4628.4903     -4661.9914      33.501181      4553.1568      266.91701      8095.7535      1.1972386      0.72742689   
     16900  -4629.417      -4663.7362      34.319225      7500.755       273.43468      8106.8293      1.1956029      0.72742689   
     17000  -4628.351      -4662.5173      34.16637       7490.7478      272.21683      8114.1973      1.1945172      1.0650651    
     17100  -4628.8175     -4662.5131      33.695592      5903.5304      268.46596      8125.0993      1.1929145      1.0650651    
     17200  -4628.3502     -4662.527       34.176794      4744.4868      272.29988      8140.2543      1.1906936      1.0650651    
     17300  -4627.1782     -4662.3849      35.206738      10004.757      280.50585      8155.2341      1.1885065      1.0650651    
     17400  -4627.2806     -4662.2836      35.003003      3338.8138      278.88261      8167.0012      1.1867941      1.0650651    
     17500  -4627.3815     -4661.79        34.408481      2338.7623      274.14582      8162.8907      1.1873917      1.0650651    
     17600  -4627.9246     -4660.6743      32.749749      2993.5092      260.93006      8138.2524      1.1909865      1.0650651    
     17700  -4626.314      -4660.2282      33.914187      6761.1741      270.20759      8107.9212      1.1954419      1.0650651    
     17800  -4626.0308     -4660.2742      34.243411      5435.8133      272.83065      8083.7587      1.1990151      1.0650651    
     17900  -4627.6106     -4662.0497      34.439113      6126.7239      274.38988      8070.4638      1.2009903      1.0650651    
     18000  -4627.5822     -4663.025       35.442792      8663.1229      282.38658      8066.5687      1.2015702      0.87479176   
     18100  -4627.4961     -4662.0255      34.529444      4710.8261      275.10958      8070.2842      1.201017       0.87479176   
     18200  -4629.0353     -4663.9971      34.961841      5218.5738      278.55466      8078.7537      1.1997579      0.87479176   
     18300  -4629.703      -4663.5712      33.868184      4681.6971      269.84107      8095.5161      1.1972737      0.87479176   
     18400  -4630.4124     -4663.0766      32.664216      3537.0638      260.24858      8121.192       1.1934884      0.87479176   
     18500  -4631.2413     -4663.5158      32.274503     -85.360165      257.14358      8143.0923      1.1902786      0.87479176   
     18600  -4630.7537     -4664.1549      33.401214      3606.8217      266.12053      8147.9955      1.1895623      0.87479176   
     18700  -4630.5007     -4663.3761      32.875403      4712.4065      261.93119      8131.1841      1.1920218      0.87479176   
     18800  -4630.231      -4662.442       32.211018      6573.247       256.63778      8103.4073      1.1961078      0.87479176   
     18900  -4630.6381     -4664.8397      34.201562      8638.457       272.49722      8079.683       1.1996199      0.87479176   
     19000  -4631.9144     -4663.7196      31.805191      7563.9841      253.40439      8066.6036      1.201565       0.84199133   
     19100  -4631.4603     -4664.291       32.830773      5148.8336      261.5756       8066.2876      1.201612       0.84199133   
     19200  -4631.2287     -4664.494       33.26532       5231.8824      265.03781      8071.37        1.2008554      0.84199133   
     19300  -4630.0699     -4662.8273      32.757347      5481.5494      260.99059      8069.1675      1.2011832      0.84199133   
     19400  -4629.4339     -4662.9981      33.564193      6660.9973      267.41905      8058.1297      1.2028285      0.84199133   
     19500  -4629.2124     -4662.1598      32.947427      4417.842       262.50504      8048.9931      1.2041939      0.84199133   
     19600  -4629.1443     -4662.6319      33.487564      5430.8334      266.80851      8048.8356      1.2042175      0.84199133   
     19700  -4629.5158     -4662.3248      32.808996      3534.3173      261.4021       8062.4544      1.2021833      0.84199133   
     19800  -4629.3942     -4662.955       33.560885      4480.1553      267.39269      8089.0018      1.1982379      0.84199133   
     19900  -4630.6364     -4663.2866      32.650219      4626.1847      260.13706      8119.2455      1.1937745      0.84199133   
     20000  -4630.9682     -4663.9634      32.995128      6111.1294      262.88509      8148.0538      1.1895538      0.74270141   
     20100  -4630.6357     -4663.3287      32.692925      3075.1143      260.47732      8162.7618      1.1874104      0.74270141   
     20200  -4629.9195     -4661.7697      31.850219      2073.5193      253.76315      8155.6304      1.1884487      0.74270141   
     20300  -4629.2833     -4662.8488      33.565445      2170.839       267.42903      8129.6775      1.1922427      0.74270141   
     20400  -4629.0175     -4662.8177      33.800285      8676.2462      269.30009      8088.9905      1.1982396      0.74270141   
     20500  -4628.9079     -4663.1889      34.28101       5773.8677      273.13021      8044.6512      1.2048438      0.74270141   
     20600  -4629.9531     -4662.2494      32.296281      5873.1267      257.3171       8007.5068      1.2104327      0.74270141   
     20700  -4629.1781     -4663.3694      34.191273      8425.5544      272.41524      7995.885       1.2121921      0.74270141   
     20800  -4629.8815     -4662.8726      32.991034      9082.2469      262.85247      8012.6081      1.2096621      0.74270141   
     20900  -4630.102      -4663.4243      33.322273      1708.4304      265.49158      8040.8441      1.2054143      0.74270141   
     21000  -4629.4998     -4663.0293      33.529493      1000.0531      267.14258      8064.0487      1.2019457      0.71604187   
     21100  -4631.7378     -4664.3946      32.656802      3365.1224      260.18951      8083.3542      1.1990751      0.71604187   
     21200  -4631.0728     -4664.0565      32.983667      4064.0773      262.79378      8095.4223      1.1972876      0.71604187   
     21300  -4630.2042     -4663.4772      33.273055      4017.6097      265.09944      8102.4324      1.1962517      0.71604187   
     21400  -4629.6392     -4662.3201      32.680879      5702.385       260.38134      8107.8618      1.1954506      0.71604187   
     21500  -4629.5246     -4662.846       33.321381      2431.2712      265.48447      8115.2911      1.1943562      0.71604187   
     21600  -4629.6268     -4662.918       33.291228      3750.5818      265.24423      8122.2739      1.1933294      0.71604187   
     21700  -4630.5296     -4664.2882      33.758598      9389.5933      268.96795      8126.1386      1.1927619      0.71604187   
     21800  -4629.6708     -4662.2468      32.576061      2820.6717      259.54622      8125.6706      1.1928306      0.71604187   
     21900  -4631.2401     -4663.5435      32.303412      424.65689      257.37391      8119.016       1.1938083      0.71604187   
     22000  -4631.5531     -4664.3222      32.769092      3575.8795      261.08417      8102.9119      1.1961809      0.99787919   
     22100  -4630.845      -4663.4703      32.625279      5863.4594      259.93835      8076.9354      1.200028       0.99787919   
     22200  -4630.8745     -4663.7991      32.924663      3619.6927      262.32366      8046.8456      1.2045153      0.99787919   
     22300  -4630.8914     -4664.4985      33.607136      7867.4613      267.76119      8022.7731      1.2081294      0.99787919   
     22400  -4630.1438     -4664.0541      33.910223      8678.9975      270.17601      8018.6753      1.2087468      0.99787919   
     22500  -4630.1818     -4663.4567      33.274951      4820.0988      265.11454      8039.4854      1.205618       0.99787919   
     22600  -4630.1805     -4663.2397      33.059207      2246.2282      263.39563      8079.9054      1.1995869      0.99787919   
     22700  -4631.5425     -4664.3747      32.832133      6645.1078      261.58644      8121.4103      1.1934563      0.99787919   
     22800  -4632.2623     -4664.6277      32.365429      3093.2394      257.86803      8147.158       1.1896846      0.99787919   
     22900  -4631.0643     -4663.3896      32.325258      5441.639       257.54797      8151.6687      1.1890263      0.99787919   
     23000  -4630.5383     -4663.7878      33.249488      2196.0456      264.91167      8142.1349      1.1904186      0.72811474   
     23100  -4630.456      -4662.164       31.707924      4885.8054      252.62943      8123.9686      1.1930805      0.72811474   
     23200  -4631.6614     -4663.262       31.600619      4368.1132      251.77449      8102.9503      1.1961752      0.72811474   
     23300  -4631.0913     -4663.7515      32.66019       3442.4992      260.21651      8086.112       1.1986661      0.72811474   
     23400  -4630.0156     -4664.1992      34.183575      8183.2309      272.35391      8077.9586      1.199876       0.72811474   
     23500  -4630.0198     -4662.547       32.527167      5088.738       259.15666      8075.9017      1.2001816      0.72811474   
     23600  -4630.3541     -4663.4667      33.112636      7398.2687      263.82132      8078.1862      1.1998422      0.72811474   
     23700  -4629.732      -4662.3828      32.650797      3895.3656      260.14166      8082.1861      1.1992484      0.72811474   
     23800  -4629.902      -4662.8117      32.909733      2421.694       262.20471      8089.7592      1.1981257      0.72811474   
     23900  -4630.3922     -4663.3162      32.92402       5195.8882      262.31854      8095.1482      1.1973281      0.72811474   
     24000  -4630.1683     -4663.4238      33.255502      4952.8535      264.95959      8093.6973      1.1975427      0.95096745   
     24100  -4629.8343     -4662.3054      32.471099      5080.8559      258.70994      8087.6683      1.1984355      0.95096745   
     24200  -4628.1769     -4661.3253      33.148419      7886.2439      264.10641      8076.4596      1.2000987      0.95096745   
     24300  -4628.8757     -4662.4615      33.585768      8560.7077      267.59095      8070.8834      1.2009278      0.95096745   
     24400  -4628.2922     -4662.0725      33.780379      3265.4079      269.14149      8073.774       1.2004979      0.95096745   
     24500  -4630.2026     -4662.475       32.272335      5019.279       257.12631      8080.3652      1.1995186      0.95096745   
     24600  -4631.8184     -4663.8662      32.047807      2534.9834      255.33741      8087.0279      1.1985304      0.95096745   
     24700  -4629.6107     -4662.907       33.296306      2863.3963      265.28469      8089.6651      1.1981396      0.95096745   
     24800  -4629.5867     -4662.4576      32.870892      5605.6777      261.89525      8092.9901      1.1976474      0.95096745   
     24900  -4630.3176     -4663.0258      32.708136      4843.7743      260.59851      8094.3723      1.1974429      0.95096745   
     25000  -4629.1303     -4663.2578      34.127576      6955.2769      271.90774      8091.9714      1.1977981      0.69937436   
     25100  -4629.4249     -4663.0316      33.606683      196.30462      267.75758      8088.1044      1.1983708      0.69937436   
     25200  -4630.7808     -4662.602       31.821215      3229.8768      253.53207      8084.8039      1.19886        0.69937436   
     25300  -4630.5894     -4664.4668      33.877404      4878.5631      269.91452      8079.1003      1.1997064      0.69937436   
     25400  -4630.5307     -4662.8161      32.285391      5812.2405      257.23034      8070.0031      1.2010588      0.69937436   
     25500  -4631.6173     -4664.296       32.678769      6605.0974      260.36453      8069.0237      1.2012046      0.69937436   
     25600  -4631.1836     -4664.2678      33.084205      6143.2374      263.5948       8073.6963      1.2005094      0.69937436   
     25700  -4631.19       -4664.9012      33.711207      6019.0894      268.59037      8081.4001      1.199365       0.69937436   
     25800  -4630.8067     -4664.5285      33.721801      6062.3958      268.67477      8091.5036      1.1978674      0.69937436   
     25900  -4630.6819     -4662.5813      31.899369      4504.4223      254.15474      8101.8563      1.1963367      0.69937436   
     26000  -4629.5648     -4662.7991      33.23436       3389.1628      264.79114      8108.1196      1.1954126      0.69167745   
     26100  -4630.4009     -4664.0015      33.600648      5945.5743      267.7095       8109.117       1.1952656      0.69167745   
     26200  -4630.8531     -4664.3297      33.476547      3421.9333      266.72074      8107.8833      1.1954475      0.69167745   
     26300  -4630.9765     -4663.4598      32.483335      3811.5899      258.80743      8102.9072      1.1961816      0.69167745   
     26400  -4630.4909     -4663.4858      32.99489       6931.2529      262.88319      8095.0882      1.197337       0.69167745   
     26500  -4631.8914     -4664.5508      32.659378      3676.7328      260.21003      8084.8302      1.1988561      0.69167745   
     26600  -4631.3356     -4664.2225      32.886919      7939.8419      262.02294      8066.7056      1.2015498      0.69167745   
     26700  -4629.5513     -4663.0466      33.495277      7028.01        266.86997      8049.229       1.2041586      0.69167745   
     26800  -4630.0926     -4662.2705      32.177911      3728.3398      256.374        8040.983       1.2053935      0.69167745   
     26900  -4629.1186     -4663.1645      34.045844      7327.9931      271.25655      8038.9934      1.2056918      0.69167745   
     27000  -4628.5945     -4661.7252      33.130709      6372.9024      263.96531      8047.2518      1.2044545      0.74375126   
     27100  -4628.8706     -4662.899       34.028382      4883.5659      271.11742      8065.5704      1.2017189      0.74375126   
     27200  -4629.9876     -4663.2256      33.238014      5558.1995      264.82025      8080.4079      1.1995123      0.74375126   
     27300  -4632.0328     -4665.8883      33.855524      3751.6904      269.7402       8089.2231      1.1982051      0.74375126   
     27400  -4631.6935     -4665.1907      33.497204      5597.8983      266.88532      8095.3385      1.1973         0.74375126   
     27500  -4632.1904     -4664.1841      31.99375       1425.1257      254.90672      8097.8753      1.1969249      0.74375126   
     27600  -4632.0148     -4664.2294      32.214646      5676.7803      256.66668      8097.0099      1.1970528      0.74375126   
     27700  -4630.7264     -4664.7316      34.005199      6163.8792      270.93272      8097.4978      1.1969807      0.74375126   
     27800  -4631.3425     -4663.5442      32.201716      6128.4698      256.56366      8096.3515      1.1971501      0.74375126   
     27900  -4628.7142     -4661.963       33.24883       4240.7606      264.90643      8090.0895      1.1980768      0.74375126   
     28000  -4628.2541     -4662.1331      33.878914      3406.5823      269.92656      8088.262       1.1983475      0.72872691   
     28100  -4628.8161     -4662.508       33.691934      3534.5913      268.43681      8093.82        1.1975246      0.72872691   
     28200  -4629.2301     -4663.1039      33.873827      5036.5618      269.88603      8100.5953      1.196523       0.72872691   
     28300  -4629.3796     -4663.9185      34.538832      5394.6676      275.18438      8110.3733      1.1950804      0.72872691   
     28400  -4629.3902     -4662.7374      33.347237      3243.6753      265.69048      8117.9988      1.1939579      0.72872691   
     28500  -4628.817      -4662.5212      33.704238      3519.1084      268.53484      8120.3568      1.1936112      0.72872691   
     28600  -4630.6589     -4662.9813      32.322341      3055.7189      257.52473      8117.3435      1.1940542      0.72872691   
     28700  -4629.3545     -4662.5242      33.169773      3983.5769      264.27655      8107.775       1.1954634      0.72872691   
     28800  -4627.6234     -4661.9607      34.337294      4061.3942      273.57865      8091.1087      1.1979259      0.72872691   
     28900  -4628.2032     -4662.5383      34.335042      5405.9503      273.5607       8072.2103      1.2007304      0.72872691   
     29000  -4629.8993     -4663.4019      33.502651      4855.9005      266.92872      8057.789       1.2028794      0.73352615   
     29100  -4631.3072     -4663.1354      31.828118      4344.0323      253.58706      8054.0221      1.203442       0.73352615   
     29200  -4631.5014     -4664.626       33.124605      7024.4519      263.91668      8059.2076      1.2026677      0.73352615   
     29300  -4631.5204     -4663.9607      32.44028       8409.6522      258.4644       8070.2789      1.2010178      0.73352615   
     29400  -4630.8284     -4663.2668      32.438361      5928.3512      258.44911      8081.9361      1.1992855      0.73352615   
     29500  -4630.9644     -4662.9496      31.985115      3705.5136      254.83792      8095.9785      1.1972053      0.73352615   
     29600  -4629.7111     -4663.0724      33.361337      3210.6028      265.80282      8105.0651      1.1958631      0.73352615   
     29700  -4629.4921     -4662.3538      32.861754      2955.4649      261.82245      8104.9218      1.1958843      0.73352615   
     29800  -4629.7927     -4662.8176      33.024917      2809.1721      263.12242      8097.0199      1.1970513      0.73352615   
     29900  -4629.4951     -4662.3305      32.83543       7390.411       261.61271      8085.2007      1.1988012      0.73352615   
     30000  -4629.1344     -4663.1773      34.042893      3924.4576      271.23304      8072.6792      1.2006607      0.88649927   
     30100  -4628.5989     -4662.7588      34.159841      6842.8659      272.16481      8059.4466      1.202632       0.88649927   
     30200  -4628.0966     -4662.0247      33.928077      10161.215      270.31826      8052.2062      1.2037134      0.88649927   
     30300  -4629.2196     -4662.2052      32.985586      5041.6696      262.80906      8056.286       1.2031038      0.88649927   
     30400  -4630.1858     -4662.2371      32.051256      4356.1797      255.36489      8068.7629      1.2012434      0.88649927   
     30500  -4629.6296     -4662.2881      32.658494      5715.8889      260.20299      8083.1437      1.1991063      0.88649927   
     30600  -4629.0615     -4663.3841      34.322601      4682.4775      273.46158      8100.3476      1.1965596      0.88649927   
     30700  -4629.4461     -4662.0865      32.640399      2285.7278      260.05882      8114.0288      1.194542       0.88649927   
     30800  -4630.1258     -4662.8571      32.731298      3646.6306      260.78305      8119.5479      1.1937301      0.88649927   
     30900  -4630.6004     -4663.6895      33.08905       3431.2217      263.6334       8118.5411      1.1938781      0.88649927   
     31000  -4632.169      -4663.5217      31.35273       3943.5218      249.79946      8113.0005      1.1946934      0.71513866   
     31100  -4632.7269     -4664.4767      31.749872      7663.8468      252.96364      8098.4306      1.1968428      0.71513866   
     31200  -4631.9484     -4664.3578      32.409328      3070.5476      258.21779      8077.2856      1.1999759      0.71513866   
     31300  -4630.9379     -4662.8095      31.871589      4017.1651      253.93341      8052.5397      1.2036635      0.71513866   
     31400  -4630.9576     -4663.5882      32.630604      6640.783       259.98078      8034.0672      1.2064311      0.71513866   
     31500  -4630.4431     -4663.5735      33.130438      5056.0658      263.96315      8026.8909      1.2075097      0.71513866   
     31600  -4630.8255     -4663.1557      32.33027       5530.788       257.58791      8031.68        1.2067897      0.71513866   
     31700  -4630.001      -4664.039       34.038015      4773.2251      271.19418      8045.9119      1.204655       0.71513866   
     31800  -4629.0379     -4662.0328      32.994913      7163.7593      262.88338      8063.4945      1.2020283      0.71513866   
     31900  -4629.9092     -4663.6447      33.735412      4916.2058      268.78322      8083.4179      1.1990656      0.71513866   
     32000  -4629.7346     -4663.1372      33.402654      2706.2523      266.13201      8103.422       1.1961056      0.76482195   
     32100  -4629.9804     -4661.9006      31.920176     -448.59082      254.32052      8122.187       1.1933422      0.76482195   
     32200  -4629.4672     -4662.4621      32.994891      3071.5248      262.8832       8135.7061      1.1913592      0.76482195   
     32300  -4629.9149     -4662.0401      32.125289      4524.812       255.95474      8134.4165      1.1915481      0.76482195   
     32400  -4629.3189     -4662.777       33.458152      2106.3345      266.57418      8115.6934      1.194297       0.76482195   
     32500  -4627.2213     -4661.7016      34.480316      3984.7469      274.71816      8089.4452      1.1981722      0.76482195   
     32600  -4628.0654     -4661.8446      33.779175      8295.4566      269.1319       8069.3541      1.2011554      0.76482195   
     32700  -4629.5927     -4663.9957      34.403036      2032.1667      274.10244      8061.8439      1.2022744      0.76482195   
     32800  -4629.5849     -4661.7557      32.170735      7563.0015      256.31682      8065.7302      1.2016951      0.76482195   
     32900  -4629.2131     -4663.0148      33.801745      5813.3331      269.31172      8072.8476      1.2006356      0.76482195   
     33000  -4629.5375     -4662.5885      33.051048      2421.4493      263.33062      8068.3102      1.2013108      0.78929792   
     33100  -4630.3785     -4663.6912      33.312768      3498.097       265.41585      8052.5446      1.2036628      0.78929792   
     33200  -4629.9373     -4662.9167      32.979415      4818.1802      262.75989      8034.511       1.2063645      0.78929792   
     33300  -4629.5621     -4663.1402      33.578108      5761.044       267.52992      8027.8469      1.2073659      0.78929792   
     33400  -4628.7574     -4661.6421      32.884709      6663.4964      262.00534      8037.265       1.2059511      0.78929792   
     33500  -4628.0185     -4662.2233      34.204707      4384.5464      272.52227      8059.9452      1.2025576      0.78929792   
     33600  -4628.0858     -4662.8212      34.735449      2593.4391      276.7509       8088.9803      1.1982411      0.78929792   
     33700  -4628.5913     -4662.4005      33.809175      5137.2767      269.37092      8120.2925      1.1936206      0.78929792   
     33800  -4628.8152     -4662.1293      33.314048      4705.4282      265.42605      8149.6017      1.1893279      0.78929792   
     33900  -4628.2073     -4662.7282      34.520929      3825.3993      275.04174      8175.6256      1.1855421      0.78929792   
     34000  -4629.1325     -4662.3169      33.184365      3583.2073      264.39281      8190.1984      1.1834327      0.68391881   
     34100  -4628.8611     -4661.2385      32.377383      1381.1309      257.96327      8181.225       1.1847307      0.68391881   
     34200  -4629.6551     -4662.6509      32.995815      3255.8925      262.89056      8141.732       1.1904775      0.68391881   
     34300  -4629.1493     -4663.8384      34.689097      2953.8805      276.3816       8084.6426      1.198884       0.68391881   
     34400  -4629.8764     -4662.2905      32.414072      6744.4778      258.25559      8029.6828      1.2070898      0.68391881   
     34500  -4630.2112     -4663.1723      32.961151      7101.9376      262.61438      7991.2433      1.2128962      0.68391881   
     34600  -4629.768      -4662.5497      32.781716      8024.7793      261.18475      7977.4393      1.2149949      0.68391881   
     34700  -4629.4683     -4661.9043      32.436007      5493.8869      258.43035      7985.2189      1.2138112      0.68391881   
     34800  -4629.94       -4663.4591      33.519086      6626.453       267.05966      8007.0993      1.2104943      0.68391881   
     34900  -4628.7247     -4663.3232      34.59847       5810.147       275.65954      8041.6943      1.2052869      0.68391881   
     35000  -4628.918      -4663.072       34.153987      4832.1402      272.11817      8086.7534      1.198571       0.87605018   
     35100  -4629.1252     -4661.9857      32.86053       7875.1883      261.81269      8131.5117      1.1919737      0.87605018   
     35200  -4629.124      -4662.0494      32.925382      2036.3157      262.32939      8164.1339      1.1872109      0.87605018   
     35300  -4629.4591     -4662.4282      32.969065      4733.1187      262.67743      8179.0058      1.1850522      0.87605018   
     35400  -4629.7874     -4662.3342      32.546788     -2245.8259      259.31299      8173.2284      1.1858898      0.87605018   
     35500  -4629.4784     -4663.316       33.837564      5478.6409      269.59711      8147.5068      1.1896337      0.87605018   
     35600  -4628.8524     -4662.4727      33.620306      6587.1478      267.86612      8112.5607      1.1947582      0.87605018   
     35700  -4628.3967     -4662.1311      33.734431      3031.7934      268.7754       8080.5541      1.1994906      0.87605018   
     35800  -4627.0203     -4661.5323      34.512021      6020.1365      274.97076      8052.2259      1.2037104      0.87605018   
     35900  -4626.6289     -4660.5168      33.887909      4487.3657      269.99822      8031.0288      1.2068875      0.87605018   
     36000  -4625.92       -4660.7331      34.813106      4449.2397      277.36963      8021.5189      1.2083183      0.84084405   
     36100  -4625.7397     -4660.6425      34.902847      7502.8767      278.08463      8026.529       1.2075641      0.84084405   
     36200  -4626.0924     -4661.4601      35.36777       9000.6526      281.78885      8048.9867      1.2041949      0.84084405   
     36300  -4628.0019     -4661.1676      33.165696      5845.1678      264.24406      8083.691       1.1990251      0.84084405   
     36400  -4628.8813     -4662.1992      33.317901      4317.6254      265.45675      8119.8679      1.193683       0.84084405   
     36500  -4629.6111     -4662.0991      32.487992      5065.5865      258.84454      8149.7547      1.1893055      0.84084405   
     36600  -4629.9684     -4664.9409      34.972497      2276.4266      278.63956      8166.1604      1.1869162      0.84084405   
     36700  -4628.7139     -4663.4351      34.721193      5753.8424      276.63732      8168.1775      1.1866231      0.84084405   
     36800  -4628.9421     -4662.9273      33.985235      5403.6729      270.77366      8160.1791      1.1877862      0.84084405   
     36900  -4629.5811     -4663.1743      33.593198      3552.0194      267.65014      8141.629       1.1904925      0.84084405   
     37000  -4629.7791     -4662.8524      33.073302      1129.227       263.50793      8109.2249      1.1952497      0.71783458   
     37100  -4628.5615     -4660.778       32.216534      4649.2208      256.68172      8072.0434      1.2007552      0.71783458   
     37200  -4629.5045     -4663.4057      33.901124      7183.5057      270.10351      8039.8437      1.2055643      0.71783458   
     37300  -4628.9167     -4662.5537      33.63707       7099.0994      267.99969      8014.2811      1.2094096      0.71783458   
     37400  -4629.5845     -4663.1273      33.542804      3745.8663      267.24864      8004.7859      1.2108442      0.71783458   
     37500  -4629.0422     -4662.3006      33.258397      4470.7926      264.98265      8016.6182      1.209057       0.71783458   
     37600  -4628.2177     -4662.345       34.127308      5539.3642      271.9056       8049.0983      1.2041782      0.71783458   
     37700  -4629.2999     -4662.6376      33.33765       4984.3592      265.61409      8091.6539      1.1978452      0.71783458   
     37800  -4628.5924     -4662.724       34.13166       2314.4932      271.94028      8132.2471      1.1918659      0.71783458   
     37900  -4629.4674     -4663.2295      33.762059      793.54363      268.99553      8159.202       1.1879285      0.71783458   
     38000  -4628.1052     -4661.599       33.493825      2503.7685      266.8584       8165.7909      1.1869699      0.7657056    
     38100  -4627.9986     -4662.8092      34.810677      2061.1018      277.35028      8158.2289      1.1880702      0.7657056    
     38200  -4629.0031     -4663.4247      34.421632      4740.7639      274.25061      8138.0125      1.1910216      0.7657056    
     38300  -4629.6703     -4663.3838      33.713499      6887.9481      268.60863      8108.5207      1.1953535      0.7657056    
     38400  -4631.4102     -4664.8244      33.414222      2510.0661      266.22417      8070.6147      1.2009678      0.7657056    
     38500  -4630.6064     -4663.0936      32.487251      6095.8741      258.83863      8026.5589      1.2075596      0.7657056    
     38600  -4631.1029     -4662.9906      31.887686      7325.7244      254.06166      7988.3641      1.2133333      0.7657056    
     38700  -4630.5958     -4663.2604      32.664615      9737.1115      260.25176      7967.8207      1.2164617      0.7657056    
     38800  -4629.9026     -4663.9898      34.087112      6498.3594      271.58535      7975.1434      1.2153447      0.7657056    
     38900  -4630.6894     -4663.7109      33.021513      5185.1066      263.0953       8008.4116      1.210296       0.7657056    
     39000  -4630.4311     -4665.7217      35.290569      6245.6925      281.17376      8056.0038      1.203146       0.76146685   
     39100  -4629.9158     -4661.9419      32.026185      5777.0039      255.16514      8101.7792      1.1963481      0.76146685   
     39200  -4628.2524     -4662.3487      34.096346      3600.5339      271.65892      8141.9875      1.1904401      0.76146685   
     39300  -4629.0251     -4662.1142      33.089042      3204.4636      263.63333      8172.1058      1.1860527      0.76146685   
     39400  -4628.5548     -4662.575       34.020161      4710.5049      271.05192      8189.6658      1.1835096      0.76146685   
     39500  -4628.8563     -4661.797       32.940763      2715.648       262.45194      8189.9847      1.1834636      0.76146685   
     39600  -4629.1744     -4662.8006      33.626185      4905.6049      267.91297      8168.7068      1.1865462      0.76146685   
     39700  -4628.4577     -4662.4955      34.037785      5567.072       271.19235      8132.6284      1.1918101      0.76146685   
     39800  -4627.4144     -4661.7284      34.313918      4765.9863      273.3924       8092.3959      1.1977353      0.76146685   
     39900  -4628.1021     -4662.8176      34.715543      4221.9845      276.59231      8061.4571      1.2023321      0.76146685   
     40000  -4626.935      -4661.4928      34.557777      7077.2961      275.33532      8044.5213      1.2048633      0.85293958   
     40100  -4628.2171     -4662.5238      34.306773      7818.4355      273.33548      8042.9566      1.2050977      0.85293958   
     40200  -4627.482      -4662.4315      34.949513      4382.421       278.45643      8048.973       1.2041969      0.85293958   
     40300  -4628.742      -4662.5783      33.836227      4012.3156      269.58645      8059.6211      1.202606       0.85293958   
     40400  -4627.6274     -4661.5178      33.8904        4154.3826      270.01807      8076.2583      1.2001286      0.85293958   
     40500  -4628.3463     -4660.9241      32.577828      2001.7456      259.56029      8102.5906      1.1962283      0.85293958   
     40600  -4628.5943     -4662.0427      33.448392      5974.4815      266.49642      8130.7345      1.1920877      0.85293958   
     40700  -4629.6598     -4661.6567      31.996888      2437.5016      254.93172      8157.3649      1.188196       0.85293958   
     40800  -4630.2756     -4662.6183      32.342712      2934.2499      257.68703      8177.5007      1.1852703      0.85293958   
     40900  -4629.3871     -4662.5043      33.117189      6228.2924      263.8576       8179.2308      1.1850196      0.85293958   
     41000  -4629.8483     -4663.2262      33.377956      7198.3678      265.93523      8159.0734      1.1879472      0.67503345   
     41100  -4628.2985     -4661.849       33.55041       2904.9651      267.30924      8122.5914      1.1932828      0.67503345   
     41200  -4628.3765     -4662.1436      33.767044      5728.1432      269.03524      8080.6308      1.1994792      0.67503345   
     41300  -4629.4901     -4662.3334      32.843307      6358.9924      261.67547      8042.7581      1.2051274      0.67503345   
     41400  -4628.8595     -4661.5318      32.672274      3397.0319      260.31278      8009.9861      1.2100581      0.67503345   
     41500  -4628.908      -4662.2456      33.337601      7523.6175      265.61371      7987.1444      1.2135186      0.67503345   
     41600  -4629.5629     -4662.8425      33.279582      5878.9718      265.15144      7984.9772      1.213848       0.67503345   
     41700  -4630.4467     -4663.435       32.988253      8454.8872      262.83031      8006.3618      1.2106058      0.67503345   
     41800  -4629.6376     -4663.7416      34.103949      5418.4695      271.71949      8044.151       1.2049188      0.67503345   
     41900  -4629.8553     -4662.9243      33.069019      5826.6547      263.47381      8095.947       1.19721        0.67503345   
     42000  -4629.1254     -4662.2346      33.109239      3028.5034      263.79425      8149.2025      1.1893861      0.86225126   
     42100  -4629.5574     -4663.1313      33.573947      2266.2973      267.49677      8185.3579      1.1841325      0.86225126   
     42200  -4630.0108     -4663.9584      33.947601      5363.9946      270.47381      8200.7454      1.1819107      0.86225126   
     42300  -4628.8827     -4660.8074      31.924744      3942.4375      254.35692      8196.8644      1.1824703      0.86225126   
     42400  -4630.0734     -4663.3667      33.293299      3839.9316      265.26073      8175.0098      1.1856314      0.86225126   
     42500  -4629.7688     -4663.5987      33.829872      4783.021       269.53581      8137.7353      1.1910621      0.86225126   
     42600  -4628.9591     -4662.9724      34.013316      6245.3238      270.99739      8099.4047      1.1966989      0.86225126   
     42700  -4628.719      -4662.174       33.455079      3587.7285      266.5497       8070.6562      1.2009616      0.86225126   
     42800  -4627.9726     -4661.9283      33.955748      2512.9569      270.53872      8054.7099      1.2033392      0.86225126   
     42900  -4627.4071     -4661.5881      34.181051      4445.775       272.3338       8045.8749      1.2046606      0.86225126   
     43000  -4627.2395     -4662.8886      35.649069      559.97425      284.03007      8049.3328      1.2041431      0.70481192   
     43100  -4626.7197     -4661.562       34.842277      6636.3756      277.60204      8065.7488      1.2016923      0.70481192   
     43200  -4627.637      -4661.361       33.724027      8846.7146      268.69251      8099.0629      1.1967494      0.70481192   
     43300  -4629.5615     -4663.1709      33.60942       6761.7011      267.77939      8140.3223      1.1906836      0.70481192   
     43400  -4630.4626     -4663.3068      32.844172      252.27929      261.68236      8167.3779      1.1867393      0.70481192   
     43500  -4631.2644     -4664.1443      32.879915      3500.201       261.96714      8171.5959      1.1861267      0.70481192   
     43600  -4632.3002     -4665.2657      32.965487      5880.9729      262.64893      8152.8788      1.1888498      0.70481192   
     43700  -4631.5171     -4664.2199      32.702768      7427.1624      260.55574      8115.2686      1.1943595      0.70481192   
     43800  -4632.9726     -4664.3186      31.346034      5080.4837      249.74611      8071.2789      1.200869       0.70481192   
     43900  -4632.5461     -4664.0799      31.53378       4570.6599      251.24195      8031.5155      1.2068144      0.70481192   
     44000  -4631.4127     -4663.9505      32.537731      4422.4945      259.24082      8003.6816      1.2110112      0.65701765   
     44100  -4631.0401     -4662.3433      31.303222      6981.6327      249.40501      7992.4717      1.2127098      0.65701765   
     44200  -4629.1918     -4661.7076      32.515808      7877.7331      259.06616      7996.0253      1.2121708      0.65701765   
     44300  -4629.5388     -4662.1978      32.659051      4410.2233      260.20743      8019.231       1.2086631      0.65701765   
     44400  -4629.6115     -4662.0612      32.449732      5888.5454      258.5397       8058.957       1.2027051      0.65701765   
     44500  -4629.569      -4663.0368      33.467806      5359.3261      266.6511       8100.0953      1.1965968      0.65701765   
     44600  -4630.073      -4661.7749      31.701846      5896.4046      252.581        8128.877       1.1923601      0.65701765   
     44700  -4629.9726     -4661.9403      31.967714      5170.2014      254.69928      8144.2649      1.1901072      0.65701765   
     44800  -4630.4386     -4663.0075      32.568944      2697.6321      259.48951      8142.1776      1.1904123      0.65701765   
     44900  -4630.9898     -4665.0879      34.09809       4069.04        271.67281      8124.6518      1.1929802      0.65701765   
     45000  -4631.3857     -4663.5292      32.143517      5433.3061      256.09996      8103.8587      1.1960411      0.77538064   
     45100  -4631.5984     -4664.5761      32.977667      5100.7404      262.74597      8085.3655      1.1987768      0.77538064   
     45200  -4629.9991     -4662.0792      32.080118      8971.1381      255.59484      8066.9984      1.2015062      0.77538064   
     45300  -4630.1035     -4663.0554      32.951885      5292.1142      262.54055      8055.0442      1.2032893      0.77538064   
     45400  -4630.2274     -4661.613       31.385644      2449.1841      250.0617       8049.6607      1.204094       0.77538064   
     45500  -4630.5799     -4664.1119      33.532067      8894.8272      267.16309      8044.4424      1.2048751      0.77538064   
     45600  -4630.8098     -4663.8666      33.056868      7560.6422      263.37699      8043.6808      1.2049892      0.77538064   
     45700  -4630.7477     -4664.4408      33.693009      4815.018       268.44538      8056.0249      1.2031428      0.77538064   
     45800  -4631.3087     -4663.2537      31.945034      3119.4238      254.51858      8078.7774      1.1997544      0.77538064   
     45900  -4630.5085     -4664.1842      33.675626      4951.6521      268.30688      8104.0925      1.1960066      0.77538064   
     46000  -4631.1914     -4664.7165      33.525109      3342.2178      267.10766      8124.804       1.1929578      0.73464915   
     46100  -4631.052      -4663.2237      32.171715      5283.3853      256.32464      8142.8045      1.1903207      0.73464915   
     46200  -4630.9802     -4662.853       31.872764      4050.7881      253.94278      8156.8955      1.1882644      0.73464915   
     46300  -4629.9576     -4662.8663      32.908729      3403.6025      262.19671      8159.7518      1.1878484      0.73464915   
     46400  -4629.4685     -4663.319       33.850513      5674.454       269.70027      8142.2656      1.1903994      0.73464915   
     46500  -4628.9815     -4663.0827      34.101127      2833.8185      271.69701      8107.0456      1.195571       0.73464915   
     46600  -4629.5056     -4662.9355      33.429861      2154.1874      266.34878      8063.1009      1.202087       0.73464915   
     46700  -4629.2362     -4662.4804      33.244193      5626.8545      264.86948      8022.515       1.2081683      0.73464915   
     46800  -4628.6233     -4661.9431      33.319785      5714.3248      265.47175      8001.8213      1.2112928      0.73464915   
     46900  -4628.1864     -4662.4222      34.23585       11086.204      272.7704       8008.6857      1.2102546      0.73464915   
     47000  -4629.3029     -4663.4507      34.147786      6276.8462      272.06877      8040.6188      1.2054481      0.71052312   
     47100  -4629.6247     -4663.2987      33.673983      5312.231       268.29379      8088.1061      1.1983706      0.71052312   
     47200  -4629.0715     -4662.5524      33.480884      4459.5623      266.75529      8134.636       1.1915159      0.71052312   
     47300  -4629.1958     -4661.3051      32.109372      2471.1768      255.82792      8170.657       1.186263       0.71052312   
     47400  -4628.622      -4661.8544      33.232399      2664.1891      264.77551      8189.1707      1.1835812      0.71052312   
     47500  -4627.3665     -4661.0348      33.668262      4193.3842      268.24821      8192.0401      1.1831666      0.71052312   
     47600  -4628.9116     -4661.9333      33.021773      6764.5716      263.09738      8183.4304      1.1844114      0.71052312   
     47700  -4628.7088     -4662.2086      33.499781      4406.3118      266.90585      8165.511       1.1870106      0.71052312   
     47800  -4627.4573     -4661.5983      34.14101       4670.3288      272.01478      8138.9435      1.1908853      0.71052312   
     47900  -4627.7871     -4662.3507      34.563616      4806.2936      275.38185      8106.619       1.1956339      0.71052312   
     48000  -4627.5436     -4661.9403      34.396705      2495.3156      274.052        8074.9314      1.2003258      0.74957046   
     48100  -4626.2399     -4660.5816      34.34167       4501.6295      273.61351      8053.7669      1.2034801      0.74957046   
     48200  -4627.3694     -4660.8273      33.457885      5487.9223      266.57206      8052.1586      1.2037205      0.74957046   
     48300  -4627.6901     -4662.9923      35.302242      6779.9204      281.26677      8070.0341      1.2010542      0.74957046   
     48400  -4627.7153     -4661.5485      33.83322       4774.0799      269.56249      8095.9403      1.197211       0.74957046   
     48500  -4628.3036     -4660.9414      32.637804      2119.086       260.03815      8122.7176      1.1932642      0.74957046   
     48600  -4627.0205     -4660.2579      33.237388      2063.487       264.81526      8138.9163      1.1908893      0.74957046   
     48700  -4628.7012     -4662.0123      33.31113      -614.60959      265.4028       8141.7938      1.1904684      0.74957046   
     48800  -4628.9493     -4661.5908      32.641498      1189.0202      260.06758      8131.8834      1.1919193      0.74957046   
     48900  -4628.4182     -4662.8102      34.391995      7097.5537      274.01447      8117.9433      1.193966       0.74957046   
     49000  -4628.7766     -4662.5205      33.743862      2892.5212      268.85054      8104.3736      1.1959652      0.70305694   
     49100  -4629.4149     -4663.0213      33.606412      7229.496       267.75543      8090.3484      1.1980384      0.70305694   
     49200  -4628.5277     -4662.521       33.993368      4591.9849      270.83846      8082.1229      1.1992577      0.70305694   
     49300  -4629.8629     -4662.578       32.715068      3363.9871      260.65374      8084.131       1.1989598      0.70305694   
     49400  -4629.8194     -4664.1328      34.313355      6906.1888      273.38791      8092.5424      1.1977136      0.70305694   
     49500  -4630.6931     -4663.5955      32.902426      3334.9428      262.1465       8099.873       1.1966297      0.70305694   
     49600  -4630.5728     -4663.4073      32.834531      6088.2151      261.60554      8096.8351      1.1970786      0.70305694   
     49700  -4630.8305     -4663.3687      32.538106      3780.366       259.24381      8079.3929      1.199663       0.70305694   
     49800  -4630.0357     -4663.0887      33.052985      4542.7771      263.34605      8057.2647      1.2029577      0.70305694   
     49900  -4629.7762     -4662.6654      32.889237      3178.6333      262.04141      8041.3799      1.205334       0.70305694   
     50000  -4629.9292     -4663.6166      33.687387      6439.3219      268.40058      8038.7619      1.2057265      0.67851038   
     50100  -4628.7801     -4663.4731      34.693034      8427.5029      276.41297      8054.3033      1.2034         0.67851038   
     50200  -4630.1363     -4662.1954      32.059039      6744.9476      255.4269       8084.8188      1.1988578      0.67851038   
     50300  -4629.9214     -4663.6811      33.759686      5813.0027      268.97662      8118.2174      1.1939257      0.67851038   
     50400  -4629.8427     -4662.9397      33.097022      2044.0835      263.69692      8145.1986      1.1899708      0.67851038   
     50500  -4629.4944     -4662.946       33.451617      3914.5339      266.52211      8159.4177      1.1878971      0.67851038   
     50600  -4629.8636     -4663.7029      33.839324      3232.6145      269.61113      8159.7458      1.1878493      0.67851038   
     50700  -4629.9756     -4663.5419      33.566299      3763.9548      267.43583      8153.4861      1.1887613      0.67851038   
     50800  -4630.2947     -4662.316       32.021305      5365.3197      255.12626      8143.8383      1.1901696      0.67851038   
     50900  -4629.0639     -4663.1242      34.060234      4843.0483      271.3712       8127.5752      1.1925511      0.67851038   
     51000  -4628.8775     -4662.4686      33.591094      6063.2362      267.63338      8104.1288      1.1960013      0.72740653   
     51100  -4628.0647     -4662.2019      34.137212      7460.5699      271.98452      8078.3313      1.1998206      0.72740653   
     51200  -4628.5222     -4662.5241      34.001897      5083.2727      270.90641      8055.6489      1.203199       0.72740653   
     51300  -4628.9726     -4663.2031      34.230476      4698.1831      272.72759      8042.1301      1.2052215      0.72740653   
     51400  -4628.9922     -4661.6918      32.699604      5962.6892      260.53053      8040.3925      1.205482       0.72740653   
     51500  -4629.6354     -4663.2283      33.592836      3525.2613      267.64726      8047.6225      1.204399       0.72740653   
     51600  -4629.4995     -4663.8096      34.310094      4938.5411      273.36193      8062.6923      1.2021479      0.72740653   
     51700  -4629.0049     -4661.4258      32.42093       4619.2892      258.31023      8084.8984      1.198846       0.72740653   
     51800  -4630.3279     -4662.4621      32.134266      2115.9569      256.02626      8108.9778      1.1952861      0.72740653   
     51900  -4631.378      -4665.0051      33.62712       6570.7492      267.92041      8122.2151      1.1933381      0.72740653   
     52000  -4630.3223     -4663.4761      33.153799      3247.1043      264.14928      8127.6025      1.1925471      0.74397867   
     52100  -4630.0907     -4662.7521      32.661421      7303.202       260.22631      8130.372       1.1921408      0.74397867   
     52200  -4630.3695     -4662.0087      31.63923       8804.489       252.08212      8132.392       1.1918447      0.74397867   
     52300  -4629.7643     -4662.1938      32.429475      4115.6721      258.37831      8126.6789      1.1926826      0.74397867   
     52400  -4629.8384     -4662.578       32.739555      52.215062      260.84884      8111.8806      1.1948584      0.74397867   
     52500  -4629.6018     -4663.2001      33.598302      4329.4543      267.69081      8088.9875      1.19824        0.74397867   
     52600  -4629.6225     -4662.9591      33.336592      4147.6753      265.60566      8061.5884      1.2023125      0.74397867   
     52700  -4630.2304     -4663.4939      33.263491      6308.4025      265.02324      8038.4539      1.2057727      0.74397867   
     52800  -4630.0839     -4660.7655      30.681538      7660.7892      244.45181      8027.2445      1.2074565      0.74397867   
     52900  -4629.7266     -4663.386       33.659468      7126.3276      268.17814      8025.6331      1.2076989      0.74397867   
     53000  -4629.2863     -4663.5253      34.239049      6487.8877      272.79589      8039.8853      1.2055581      0.95468032   
     53100  -4629.3748     -4662.5252      33.150323      7732.7663      264.12159      8067.7919      1.201388       0.95468032   
     53200  -4629.2322     -4661.6931      32.460933      4592.8013      258.62895      8103.215       1.1961361      0.95468032   
     53300  -4630.9956     -4663.6438      32.648236      2901.4726      260.12126      8137.2256      1.1911367      0.95468032   
     53400  -4629.9308     -4662.9269      32.996074      597.46439      262.89263      8163.4363      1.1873123      0.95468032   
     53500  -4629.8208     -4663.6522      33.83145       3097.207       269.54839      8179.8961      1.1849232      0.95468032   
     53600  -4631.1571     -4663.2907      32.133638      5193.1019      256.02126      8181.1509      1.1847414      0.95468032   
     53700  -4629.5241     -4663.2177      33.693568      4183.2271      268.44983      8163.6648      1.1872791      0.95468032   
     53800  -4629.3792     -4663.5802      34.20104       2684.1437      272.49306      8134.005       1.1916084      0.95468032   
     53900  -4630.0596     -4663.2129      33.153329      3305.2963      264.14553      8096.1284      1.1971831      0.95468032   
     54000  -4629.7811     -4662.2788      32.497709      5127.4877      258.92195      8056.7806      1.20303        0.79619841   
     54100  -4629.168      -4663.168       34.000083      8281.5259      270.89195      8032.6782      1.2066397      0.79619841   
     54200  -4629.2612     -4662.6973      33.436087      9055.0748      266.39838      8029.5125      1.2071154      0.79619841   
     54300  -4629.5401     -4663.1941      33.654004      5482.5748      268.13461      8042.1313      1.2052214      0.79619841   
     54400  -4629.5531     -4662.1124      32.559244      4533.6045      259.41223      8061.1617      1.2023761      0.79619841   
     54500  -4629.8797     -4662.819       32.939314      4990.0783      262.44039      8082.4522      1.1992089      0.79619841   
     54600  -4629.688      -4663.4852      33.797195      4258.9672      269.27547      8104.1197      1.1960026      0.79619841   
     54700  -4629.656      -4663.8112      34.155234      3390.8293      272.1281       8123.5811      1.1931374      0.79619841   
     54800  -4629.6745     -4662.1579      32.483389      6349.7113      258.80786      8132.8538      1.191777       0.79619841   
     54900  -4630.0204     -4663.3953      33.37487       2858.7067      265.91064      8126.7259      1.1926757      0.79619841   
     55000  -4628.8502     -4661.646       32.795715      2866.9709      261.29629      8109.0703      1.1952725      0.96031755   
     55100  -4628.9583     -4663.3637      34.405381      3953.8583      274.12112      8090.1222      1.1980719      0.96031755   
[...]
   2186400  -4628.3695     -4662.1814      33.811903      1239.7377      269.39265      8129.3919      1.1922846      0.81010257   
   2186500  -4628.0139     -4661.5638      33.549891      5574.0969      267.3051       8129.3938      1.1922843      0.81010257   
   2186600  -4627.6089     -4661.0985      33.489602      3475.6691      266.82475      8124.7254      1.1929693      0.81010257   
   2186700  -4628.2738     -4661.5571      33.283306      4919.1464      265.18111      8111.0925      1.1949745      0.81010257   
   2186800  -4627.0349     -4662.0569      35.021979      4023.3117      279.0338       8085.7634      1.1987178      0.81010257   
   2186900  -4626.9008     -4662.0206      35.119778      6707.7171      279.81301      8058.2456      1.2028112      0.81010257   
   2187000  -4627.3506     -4661.3716      34.021091      6182.8537      271.05933      8040.2673      1.2055008      0.75372986   
   2187100  -4626.2929     -4660.3691      34.076213      6860.8114      271.49852      8037.7157      1.2058835      0.75372986   
   2187200  -4626.7405     -4661.9667      35.226213      6726.0217      280.66101      8050.5175      1.2039659      0.75372986   
   2187300  -4628.8124     -4662.7508      33.938316      3395.1378      270.39983      8077.8392      1.1998937      0.75372986   
   2187400  -4629.2631     -4663.2727      34.009576      624.37489      270.96759      8108.66        1.1953329      0.75372986   
   2187500  -4628.8029     -4662.0675      33.264574      3056.862       265.03187      8132.0439      1.1918957      0.75372986   
   2187600  -4628.7677     -4662.3265      33.558761      9615.6677      267.37577      8141.6465      1.19049        0.75372986   
   2187700  -4629.1091     -4662.9366      33.827538      7171.8043      269.51722      8139.8186      1.1907573      0.75372986   
   2187800  -4629.1583     -4663.381       34.222699      2378.1118      272.66563      8132.7973      1.1917853      0.75372986   
   2187900  -4629.5896     -4662.2854      32.6958        6064.9577      260.50022      8121.5812      1.1934312      0.75372986   
   2188000  -4628.9426     -4662.4383      33.495757      3283.7958      266.87379      8103.2312      1.1961338      0.72732858   
   2188100  -4627.7107     -4661.2358      33.525062      3412.8774      267.10728      8083.2342      1.1990929      0.72732858   
   2188200  -4627.0272     -4661.8338      34.806651      8427.2579      277.3182       8068.68        1.2012558      0.72732858   
   2188300  -4628.4089     -4662.6761      34.267185      2404.8047      273.02006      8064.0384      1.2019472      0.72732858   
   2188400  -4628.1383     -4661.7718      33.633536      5331.8783      267.97153      8071.786       1.2007935      0.72732858   
   2188500  -4628.8539     -4662.5267      33.672806      4563.007       268.28441      8089.4362      1.1981735      0.72732858   
   2188600  -4628.1769     -4663.4767      35.299747      5838.2971      281.24689      8114.457       1.194479       0.72732858   
   2188700  -4628.4968     -4662.2332      33.736391      4291.3271      268.79102      8134.4983      1.1915361      0.72732858   
   2188800  -4628.1456     -4662.0872      33.941595      4248.3682      270.42596      8139.1073      1.1908614      0.72732858   
   2188900  -4629.4786     -4661.6597      32.181101      5438.9414      256.39941      8129.6194      1.1922512      0.72732858   
   2189000  -4629.8459     -4662.8675      33.021599      5126.9196      263.09599      8112.3266      1.1947927      0.77845771   
   2189100  -4629.8502     -4663.2354      33.385156      2748.8755      265.99259      8087.7428      1.1984244      0.77845771   
   2189200  -4630.1164     -4662.2766      32.160234      6875.0077      256.23316      8061.0416      1.202394       0.77845771   
   2189300  -4630.0935     -4662.917       32.823543      6168.367       261.51801      8037.0443      1.2059842      0.77845771   
   2189400  -4629.537      -4662.7427      33.205661      3278.1099      264.56249      8025.1548      1.2077709      0.77845771   
   2189500  -4629.9983     -4663.8528      33.854431      7540.8309      269.73149      8034.4864      1.2063681      0.77845771   
   2189600  -4629.7803     -4662.8329      33.052608      9644.166       263.34306      8060.8461      1.2024232      0.77845771   
   2189700  -4629.3556     -4661.6866      32.330958      2503.672       257.59338      8098.2963      1.1968627      0.77845771   
   2189800  -4628.3838     -4661.3777      32.993903      2224.2263      262.87533      8134.2286      1.1915756      0.77845771   
   2189900  -4628.8539     -4661.9209      33.067013      4466.6243      263.45782      8157.9942      1.1881044      0.77845771   
   2190000  -4629.8897     -4661.7117      31.821936      6984.9859      253.53781      8162.6344      1.187429       0.70858724   
   2190100  -4631.1436     -4664.6263      33.482761      3078.3918      266.77025      8153.5269      1.1887553      0.70858724   
   2190200  -4631.2574     -4663.2184      31.960979      3243.9696      254.64562      8128.4166      1.1924276      0.70858724   
   2190300  -4631.3643     -4663.3939      32.029571      3628.8261      255.19211      8094.2698      1.197458       0.70858724   
   2190400  -4631.4091     -4663.5862      32.177104      9205.6828      256.36757      8060.0285      1.2025452      0.70858724   
   2190500  -4630.3894     -4663.6386      33.249189      6289.1582      264.90929      8032.2606      1.2067024      0.70858724   
   2190600  -4630.6297     -4663.0934      32.463707      7043.9886      258.65105      8021.6093      1.2083047      0.70858724   
   2190700  -4629.7989     -4662.795       32.996072      3663.1236      262.89261      8029.8548      1.207064       0.70858724   
   2190800  -4629.3638     -4663.6061      34.242286      4503.3556      272.82168      8048.6878      1.2042396      0.70858724   
   2190900  -4631.0174     -4663.4483      32.430879      5210.7969      258.38949      8070.7986      1.2009404      0.70858724   
   2191000  -4631.5819     -4664.0134      32.431531      4685.5039      258.39469      8087.089       1.1985213      0.76844389   
   2191100  -4631.4441     -4663.7161      32.272076      5134.3277      257.12425      8097.0475      1.1970472      0.76844389   
   2191200  -4632.5691     -4664.4534      31.884365      6964.299       254.0352       8101.8339      1.1963401      0.76844389   
   2191300  -4632.0681     -4664.2216      32.153452      5592.699       256.17913      8099.6542      1.196662       0.76844389   
   2191400  -4631.3217     -4664.0354      32.713733      6044.4708      260.6431       8096.8842      1.1970714      0.76844389   
   2191500  -4631.6103     -4664.3462      32.735815      7298.1639      260.81904      8098.1532      1.1968838      0.76844389   
   2191600  -4630.6081     -4663.4983      32.890199      5721.0056      262.04908      8101.5555      1.1963812      0.76844389   
   2191700  -4629.8676     -4662.7112      32.843562      7372.0982      261.6775       8109.1194      1.1952652      0.76844389   
   2191800  -4630.0069     -4663.1317      33.124842      5203.609       263.91857      8120.1689      1.1936388      0.76844389   
   2191900  -4629.9707     -4661.8766      31.905888      4582.4171      254.20669      8126.2982      1.1927385      0.76844389   
   2192000  -4630.3435     -4663.0088      32.665281      4666.7123      260.25706      8127.0049      1.1926347      0.72130999   
   2192100  -4630.114      -4662.3911      32.277057      5711.5405      257.16393      8115.1161      1.194382       0.72130999   
   2192200  -4630.492      -4663.8746      33.382617      1115.9227      265.97236      8092.7573      1.1976818      0.72130999   
   2192300  -4628.8512     -4662.2928      33.441626      1890.872       266.44251      8061.8987      1.2022662      0.72130999   
   2192400  -4628.4413     -4662.2501      33.808735      5772.4426      269.36741      8042.6326      1.2051462      0.72130999   
   2192500  -4627.5893     -4661.9336      34.344327      8671.2944      273.63468      8041.4227      1.2053276      0.72130999   
   2192600  -4628.4435     -4662.5495      34.105963      6218.6427      271.73555      8058.2631      1.2028086      0.72130999   
   2192700  -4630.147      -4662.2788      32.131747      2950.365       256.00619      8086.0472      1.1986757      0.72130999   
   2192800  -4629.4419     -4662.8896      33.44766       7451.862       266.49058      8114.7279      1.1944391      0.72130999   
   2192900  -4629.0932     -4662.8053      33.71208       2842.5524      268.59733      8138.071       1.191013       0.72130999   
   2193000  -4630.1321     -4663.4898      33.357705      4716.5299      265.77388      8151.0426      1.1891176      0.71296472   
   2193100  -4629.3836     -4662.7133      33.329678      4198.4087      265.55058      8150.8425      1.1891468      0.71296472   
   2193200  -4629.6107     -4662.7028      33.092129      4464.179       263.65793      8143.3389      1.1902425      0.71296472   
   2193300  -4629.0909     -4662.261       33.170135      6577.0329      264.27943      8130.1826      1.1921686      0.71296472   
   2193400  -4629.1539     -4662.3521      33.198207      5153.2804      264.5031       8109.1518      1.1952604      0.71296472   
   2193500  -4629.6483     -4662.9145      33.266229      2745.5382      265.04506      8083.6993      1.1990239      0.71296472   
   2193600  -4628.9885     -4662.6543      33.665837      10045.835      268.22888      8057.1466      1.2029753      0.71296472   
   2193700  -4629.5328     -4662.4903      32.957425      8809.6596      262.58469      8041.3816      1.2053337      0.71296472   
   2193800  -4627.9931     -4662.8494      34.856285      3444.1455      277.71365      8045.4223      1.2047284      0.71296472   
   2193900  -4626.2263     -4661.5403      35.313976      1914.9643      281.36026      8067.5748      1.2014203      0.71296472   
   2194000  -4627.0046     -4660.8717      33.86711       6191.2309      269.83251      8101.4265      1.1964002      0.74492974   
   2194100  -4627.9394     -4661.8076      33.868191      6198.4679      269.84112      8137.9852      1.1910256      0.74492974   
   2194200  -4629.6253     -4663.2484      33.623162      5090.7222      267.88888      8171.9209      1.1860796      0.74492974   
   2194300  -4629.9534     -4663.9083      33.954926      3617.9402      270.53217      8191.9938      1.1831733      0.74492974   
   2194400  -4630.5293     -4662.421       31.891646      903.19312      254.09321      8195.7591      1.1826297      0.74492974   
   2194500  -4629.2864     -4662.2582      32.971831      3240.5227      262.69947      8182.5465      1.1845394      0.74492974   
   2194600  -4629.3047     -4661.8351      32.530419      6941.9038      259.18257      8155.2074      1.1885104      0.74492974   
   2194700  -4630.3023     -4662.7648      32.46247       4347.0202      258.64119      8120.8183      1.1935433      0.74492974   
   2194800  -4628.5371     -4662.5171      33.979971      7280.8919      270.73172      8089.5606      1.1981551      0.74492974   
   2194900  -4629.1641     -4663.219       34.054856      5251.8054      271.32835      8067.1396      1.2014851      0.74492974   
   2195000  -4629.6052     -4663.3435      33.738298      5845.0893      268.80621      8056.4591      1.203078       0.751935     
   2195100  -4629.8742     -4661.8352      31.960987      3966.1205      254.64568      8052.577       1.203658       0.751935     
   2195200  -4628.8134     -4662.4113      33.5979        8806.465       267.68761      8048.5056      1.2042668      0.751935     
   2195300  -4628.8816     -4662.9625      34.08086       6107.6589      271.53554      8055.6003      1.2032062      0.751935     
   2195400  -4628.3998     -4662.4634      34.063518      4530.9109      271.39736      8077.9534      1.1998767      0.751935     
   2195500  -4627.8412     -4661.9205      34.079267      5742.8261      271.52284      8105.8809      1.1957428      0.751935     
   2195600  -4628.8962     -4662.5335      33.637315      6241.0273      268.00164      8137.8271      1.1910487      0.751935     
   2195700  -4629.7245     -4663.8431      34.118631      4431.6012      271.83648      8164.4186      1.1871695      0.751935     
   2195800  -4629.101      -4662.3451      33.244147      3109.5579      264.86912      8177.9872      1.1851998      0.751935     
   2195900  -4629.5197     -4662.1498      32.630119      1566.2395      259.97692      8179.6943      1.1849524      0.751935     
   2196000  -4630.9831     -4663.2796      32.296438      5513.279       257.31835      8166.288       1.1868977      0.69392178   
   2196100  -4631.0399     -4662.461       31.421054      3174.9791      250.34382      8135.0625      1.1914535      0.69392178   
   2196200  -4631.3141     -4662.8739      31.559777      4887.916       251.44908      8088.6547      1.1982893      0.69392178   
   2196300  -4630.6398     -4663.6478      33.007968      1054.3674      262.98739      8035.9241      1.2061523      0.69392178   
   2196400  -4630.4533     -4663.637       33.183728      6678.6077      264.38774      7991.9194      1.2127936      0.69392178   
   2196500  -4630.2369     -4662.7711      32.534191      10056.605      259.21262      7968.1453      1.2164121      0.69392178   
   2196600  -4630.0299     -4663.6738      33.643917      6116.5609      268.05424      7971.5083      1.2158989      0.69392178   
   2196700  -4629.9762     -4662.5081      32.531924      2507.5749      259.19456      8004.6402      1.2108662      0.69392178   
   2196800  -4628.9512     -4662.7438      33.792578      7033.8834      269.23868      8054.2495      1.203408       0.69392178   
   2196900  -4628.9275     -4661.676       32.748491      4935.4171      260.92003      8107.3337      1.1955285      0.69392178   
   2197000  -4628.7104     -4662.5321      33.82169       3932.124       269.47063      8155.7025      1.1884382      0.67619344   
   2197100  -4629.9255     -4662.8554      32.929824      2437.274       262.36479      8183.6834      1.1843748      0.67619344   
   2197200  -4629.2429     -4663.2597      34.016845      3929.4211      271.02551      8189.1234      1.183588       0.67619344   
   2197300  -4628.9303     -4661.7136      32.783275      2440.3206      261.19717      8177.7215      1.1852383      0.67619344   
   2197400  -4629.5842     -4663.3178      33.733656      6363.3905      268.76923      8155.6433      1.1884468      0.67619344   
   2197500  -4629.6301     -4660.8702      31.240103      4075.3252      248.90212      8127.4024      1.1925764      0.67619344   
   2197600  -4629.2518     -4663.0084      33.756663      7028.8416      268.95253      8099.7905      1.1966419      0.67619344   
   2197700  -4628.9943     -4661.9361      32.941735      5396.9416      262.45969      8082.0353      1.1992707      0.67619344   
   2197800  -4629.5726     -4663.4768      33.90416       5861.4939      270.1277       8072.9551      1.2006196      0.67619344   
   2197900  -4630.3973     -4662.2706      31.873319      3917.7925      253.94719      8064.2517      1.2019154      0.67619344   
   2198000  -4629.4907     -4662.5376      33.046894      8708.5116      263.29753      8051.777       1.2037776      0.68245962   
   2198100  -4629.2133     -4662.526       33.312691      8619.9792      265.41523      8043.3842      1.2050336      0.68245962   
   2198200  -4629.9128     -4662.6068      32.693912      3443.9081      260.48518      8050.9273      1.2039046      0.68245962   
   2198300  -4630.3103     -4662.4686      32.158344      3871.6599      256.2181       8073.3554      1.2005601      0.68245962   
   2198400  -4631.1092     -4664.1222      33.013011      3173.5104      263.02757      8104.3833      1.1959637      0.68245962   
   2198500  -4630.4176     -4662.5315      32.11382       6487.2763      255.86336      8130.2931      1.1921524      0.68245962   
   2198600  -4629.6231     -4662.6269      33.003848      6513.4444      262.95457      8150.5529      1.1891891      0.68245962   
   2198700  -4630.6568     -4663.3795      32.722755      6764.5186      260.71498      8167.2271      1.1867612      0.68245962   
   2198800  -4630.5004     -4662.6571      32.156623      5838.9944      256.20439      8175.4079      1.1855737      0.68245962   
   2198900  -4629.5324     -4662.1705      32.638124      7684.9092      260.04069      8167.4547      1.1867281      0.68245962   
   2199000  -4630.3247     -4662.7684      32.443783      4207.7515      258.4923       8141.4878      1.1905132      0.65911147   
   2199100  -4629.3999     -4663.3079      33.908026      4643.2912      270.1585       8098.6501      1.1968104      0.65911147   
   2199200  -4631.3038     -4663.8408      32.536995      5798.3618      259.23496      8050.9141      1.2039066      0.65911147   
   2199300  -4631.9807     -4664.3132      32.332497      6577.8176      257.60564      8016.1894      1.2091217      0.65911147   
   2199400  -4631.1227     -4663.3096      32.186876      7372.3179      256.44543      8004.3242      1.210914       0.65911147   
   2199500  -4632.5717     -4664.5142      31.942473      7449.3464      254.49817      8019.2184      1.208665       0.65911147   
   2199600  -4631.3666     -4664.423       33.056409      4735.8644      263.37334      8051.8407      1.203768       0.65911147   
   2199700  -4631.178      -4662.9499      31.771912      3977.6733      253.13925      8088.1867      1.1983586      0.65911147   
   2199800  -4631.2923     -4663.4648      32.172507      5528.3404      256.33095      8116.4515      1.1941855      0.65911147   
   2199900  -4631.149      -4664.085       32.936031      6366.7317      262.41423      8131.8837      1.1919192      0.65911147   
   2200000  -4631.8532     -4665.4288      33.575555      6547.0052      267.50957      8138.3721      1.1909689      0.8555376    
   2200100  -4630.2716     -4664.529       34.257452      4202.0478      272.94252      8135.9404      1.1913249      0.8555376    
   2200200  -4630.643      -4664.5342      33.891137      5819.0694      270.02394      8126.2722      1.1927423      0.8555376    
   2200300  -4629.0591     -4662.4908      33.431709      5687.8824      266.36349      8112.215       1.1948091      0.8555376    
   2200344  -4628.7052     -4662.3513      33.646157      6758.6189      268.07209      8103.953       1.1960272      0.8555376    
Loop time of 6764.65 on 1 procs for 2000000 steps with 972 atoms

Performance: 12.772 ns/day, 1.879 hours/ns, 295.655 timesteps/s, 287.376 katom-step/s
99.8% CPU use with 1 MPI tasks x 1 OpenMP threads

MPI task timing breakdown:
Section |  min time  |  avg time  |  max time  |%varavg| %total
---------------------------------------------------------------
Pair    | 4795.8     | 4795.8     | 4795.8     |   0.0 | 70.89
Neigh   | 65.954     | 65.954     | 65.954     |   0.0 |  0.97
Comm    | 88.401     | 88.401     | 88.401     |   0.0 |  1.31
Output  | 4.5463     | 4.5463     | 4.5463     |   0.0 |  0.07
Modify  | 1763.6     | 1763.6     | 1763.6     |   0.0 | 26.07
Other   |            | 46.36      |            |       |  0.69

Nlocal:            972 ave         972 max         972 min
Histogram: 1 0 0 0 0 0 0 0 0 0
Nghost:           3363 ave        3363 max        3363 min
Histogram: 1 0 0 0 0 0 0 0 0 0
Neighs:              0 ave           0 max           0 min
Histogram: 1 0 0 0 0 0 0 0 0 0
FullNghs:       131180 ave      131180 max      131180 min
Histogram: 1 0 0 0 0 0 0 0 0 0

Total # of neighbors = 131180
Ave neighs/atom = 134.95885
Neighbor list builds = 197289
Dangerous builds = 183734

unfix		3
unfix		4
Total wall time: 2:04:03
