LAMMPS (7 Feb 2024 - Update 1)
KOKKOS mode with Kokkos version 4.2.0 is enabled (src/KOKKOS/kokkos.cpp:72)
  will use up to 2 GPU(s) per node
  using 1 OpenMP thread(s) per MPI task
package kokkos
package kokkos newton on neigh half

units		metal						## E in [eV], t in [ps], P in [10000 Pa], l in [A]
atom_style	atomic						## mass x y z vx vy vz

neighbor	0.5 bin						## neighbor list, skin = 0.5 Angstrom
neigh_modify	every 2 delay 10 check yes			## update of neighbor list

############################## main variables
variable        seed equal 65091

variable	temperature equal 310
variable	tempDamp equal 0.1

variable        pressure equal 4000
variable        pressureDamp equal 1.0 				# This is 1 ps

##############################

read_data water.dat
Reading data file ...
  triclinic box = (0 0 0) to (18.047441 22.912981 19.549222) with tilt (-0.10697296 -6.2467562 -0.022549581)
  1 by 2 by 1 MPI processor grid
  reading atoms ...
  1008 atoms
  read_data CPU = 0.009 seconds

mass		1 1.008    # H
mass		2 15.9994  # O


pair_style	pace/extrapolation
ACE/AL version: 2023.11.25
pair_coeff	* * /home/cicn/cicn607503/pd/pot_dir/interim_potential_ladder_step_5.yaml /home/cicn/cicn607503/pd/pot_dir/interim_potential_ladder_step_5.asi H O
Loading /home/cicn/cicn607503/pd/pot_dir/interim_potential_ladder_step_5.yaml
Total number of basis functions
	H: 24 (r=1) 863 (r>1)
	O: 24 (r=1) 863 (r>1)
Mapping LAMMPS atom type #1(H) -> ACE species type #0
Mapping LAMMPS atom type #2(O) -> ACE species type #1
Loading ASI /home/cicn/cicn607503/pd/pot_dir/interim_potential_ladder_step_5.asi
LINEAR ASI is loaded

fix pace_gamma all pair 1000 pace/extrapolation gamma 1
compute max_pace_gamma all reduce max f_pace_gamma
variable dump_skip equal "c_max_pace_gamma < 10"

dump pace_dump all custom 1000 extrapolative_structures.dump id type x y z f_pace_gamma
dump_modify pace_dump skip v_dump_skip
dump_modify pace_dump element H O

variable max_pace_gamma equal c_max_pace_gamma

timestep	0.0005						## timestep = 0.0005*ps = 0.5 fs

thermo		100
thermo_style custom step etotal pe ke press temp vol density c_max_pace_gamma


min_style cg/kk
minimize 0.0 5.0e-4 10000 100000
Switching to 'neigh_modify every 1 delay 0 check yes' setting during minimization
Neighbor list info ...
  update: every = 1 steps, delay = 0 steps, check = yes
  max neighbors/atom: 2000, page size: 100000
  master list distance cutoff = 6.5
  ghost atom cutoff = 6.5
  binsize = 6.5, bins = 4 4 4
  1 neighbor lists, perpetual/occasional/extra = 1 0 0
  (1) pair pace/extrapolation/kk, perpetual
      attributes: full, newton on, kokkos_device
      pair build: full/bin/kk/device
      stencil: full/bin/3d
      bin: kk/device
WARNING: Fix with atom-based arrays not compatible with sending data in Kokkos communication, switching to classic exchange/border communication (src/KOKKOS/comm_kokkos.cpp:666)
WARNING: Fix with atom-based arrays not compatible with Kokkos sorting on device, switching to classic host sorting (src/KOKKOS/atom_kokkos.cpp:218)
Per MPI rank memory allocation (min/avg/max) = 546.3 | 549.6 | 552.9 Mbytes
   Step         TotEng         PotEng         KinEng         Press           Temp          Volume        Density     c_max_pace_gamma
         0  -4827.4078     -4827.4078      0              65842.018      0              8084.0073      1.2433848      0.77404012   
       100  -4869.0901     -4869.0901      0             -8623.4012      0              8084.0073      1.2433848      0.77404012   
       200  -4869.1022     -4869.1022      0             -8586.5226      0              8084.0073      1.2433848      0.77404012   
       300  -4869.1022     -4869.1022      0             -8587.4902      0              8084.0073      1.2433848      0.77404012   
       303  -4869.1022     -4869.1022      0             -8587.5931      0              8084.0073      1.2433848      0.77404012   
Loop time of 1.20082 on 2 procs for 303 steps with 1008 atoms

99.7% CPU use with 2 MPI tasks x 1 OpenMP threads

Minimization stats:
  Stopping criterion = force tolerance
  Energy initial, next-to-last, final = 
     -4827.40775476357  -4869.10223783817  -4869.10223784276
  Force two-norm initial, final = 47.883568 0.00048071696
  Force max component initial, final = 2.283098 3.3055059e-05
  Final line search alpha, max atom move = 1 3.3055059e-05
  Iterations, force evaluations = 303 605

MPI task timing breakdown:
Section |  min time  |  avg time  |  max time  |%varavg| %total
---------------------------------------------------------------
Pair    | 0.84967    | 0.85732    | 0.86497    |   0.8 | 71.39
Neigh   | 0.0022072  | 0.0022393  | 0.0022714  |   0.1 |  0.19
Comm    | 0.11311    | 0.12231    | 0.13152    |   2.6 | 10.19
Output  | 0.00043626 | 0.00043697 | 0.00043768 |   0.0 |  0.04
Modify  | 0.13629    | 0.13989    | 0.1435     |   1.0 | 11.65
Other   |            | 0.07862    |            |       |  6.55

Nlocal:            504 ave         505 max         503 min
Histogram: 1 0 0 0 0 0 0 0 0 1
Nghost:           2652 ave        2655 max        2649 min
Histogram: 1 0 0 0 0 0 0 0 0 1
Neighs:              0 ave           0 max           0 min
Histogram: 2 0 0 0 0 0 0 0 0 0
FullNghs:        73309 ave       73559 max       73059 min
Histogram: 1 0 0 0 0 0 0 0 0 1

Total # of neighbors = 146618
Ave neighs/atom = 145.45437
Neighbor list builds = 6
Dangerous builds = 0

################## equilibration of main calculation
# Equilibrate to specified number of ice

fix             3 all nph tri ${pressure} ${pressure} ${pressureDamp}
fix             3 all nph tri 4000 ${pressure} ${pressureDamp}
fix             3 all nph tri 4000 4000 ${pressureDamp}
fix             3 all nph tri 4000 4000 1
fix             4 all temp/csvr ${temperature} ${temperature} ${tempDamp} ${seed}
fix             4 all temp/csvr 310 ${temperature} ${tempDamp} ${seed}
fix             4 all temp/csvr 310 310 ${tempDamp} ${seed}
fix             4 all temp/csvr 310 310 0.1 ${seed}
fix             4 all temp/csvr 310 310 0.1 65091
velocity 	all create ${temperature} ${seed} dist gaussian
velocity 	all create 310 ${seed} dist gaussian
velocity 	all create 310 65091 dist gaussian

run 200000
WARNING: Fix with atom-based arrays not compatible with sending data in Kokkos communication, switching to classic exchange/border communication (src/KOKKOS/comm_kokkos.cpp:666)
WARNING: Fix with atom-based arrays not compatible with Kokkos sorting on device, switching to classic host sorting (src/KOKKOS/atom_kokkos.cpp:218)
Per MPI rank memory allocation (min/avg/max) = 548.7 | 551 | 553.4 Mbytes
   Step         TotEng         PotEng         KinEng         Press           Temp          Volume        Density     c_max_pace_gamma
       303  -4828.7511     -4869.1022      40.351139     -3256.1079      310            8084.0073      1.2433848      0.77404012   
       400  -4820.6285     -4843.6532      23.024753      1915.4183      176.88902      8046.9745      1.2491069      0.77404012   
       500  -4812.8127     -4838.8207      26.008091      910.33481      199.80868      7965.2393      1.2619246      0.77404012   
       600  -4804.7059     -4835.8377      31.131827      6265.5829      239.17209      7866.1917      1.2778142      0.77404012   
       700  -4801.9036     -4835.5093      33.605682      6900.7745      258.17763      7782.1886      1.2916073      0.77404012   
       800  -4799.5431     -4833.9627      34.419597      10708.952      264.43058      7732.6981      1.2998738      0.77404012   
       900  -4796.3684     -4831.3146      34.946125      5958.1052      268.47566      7730.0432      1.3003202      0.77404012   
      1000  -4792.3579     -4829.9595      37.601605      10088.879      288.87654      7770.4347      1.293561       0.67719956   
      1100  -4793.1965     -4831.4098      38.213292      10150.895      293.57586      7846.1276      1.2810818      0.67719956   
      1200  -4792.6793     -4831.7504      39.071015      3718.6429      300.16537      7942.6187      1.2655186      0.67719956   
      1300  -4792.3915     -4829.5209      37.129449     -1136.9995      285.24917      8038.2031      1.25047        0.67719956   
      1400  -4790.5184     -4828.9113      38.392983      3258.6809      294.95635      8114.0005      1.2387886      0.67719956   
      1500  -4788.8297     -4826.8633      38.033541      2292.8392      292.19492      8167.1889      1.2307211      0.67719956   
      1600  -4787.6341     -4825.6547      38.020558      3077.0629      292.09517      8195.0903      1.2265309      0.67719956   
      1700  -4787.5083     -4826.7393      39.231034      3984.4506      301.39472      8199.5194      1.2258684      0.67719956   
      1800  -4785.5328     -4824.0889      38.556092      963.77411      296.20944      8184.0602      1.228184       0.67719956   
      1900  -4785.2998     -4826.1622      40.862423      3272.2623      313.92797      8159.8285      1.2318312      0.67719956   
      2000  -4785.0062     -4825.2257      40.219564      3913.9132      308.98916      8128.9579      1.2365093      0.84903082   
      2100  -4786.2722     -4824.9658      38.6936        7020.6784      297.26586      8097.6903      1.2412838      0.84903082   
      2200  -4785.3638     -4826.167       40.803158      4138.0177      313.47266      8071.5208      1.2453083      0.84903082   
      2300  -4784.9618     -4824.8071      39.845258      4547.3951      306.11354      8053.235       1.2481359      0.84903082   
      2400  -4786.0208     -4825.7135      39.692701      4586.4356      304.94151      8043.3887      1.2496638      0.84903082   
      2500  -4787.6807     -4827.9684      40.287734      4645.2591      309.51288      8039.797       1.2502221      0.84903082   
      2600  -4786.2868     -4826.8529      40.566168      8827.0343      311.65197      8044.9668      1.2494187      0.84903082   
      2700  -4786.5093     -4825.7662      39.25688       1822.3258      301.59329      8058.2908      1.2473528      0.84903082   
      2800  -4786.7629     -4826.9518      40.188926      5088.8348      308.75379      8072.4044      1.245172       0.84903082   
      2900  -4786.3371     -4827.7605      41.423426      3939.5896      318.2379       8085.7496      1.2431169      0.84903082   
      3000  -4787.1602     -4827.2811      40.120895      2313.7142      308.23113      8096.6382      1.2414451      0.75496283   
      3100  -4785.9145     -4824.9576      39.043188      2568.7896      299.95159      8104.7709      1.2401994      0.75496283   
      3200  -4783.8957     -4825.6716      41.775853      4536.8943      320.94544      8112.925       1.2389529      0.75496283   
      3300  -4785.044      -4825.425       40.380996      3625.7203      310.22938      8119.4805      1.2379526      0.75496283   
      3400  -4785.6415     -4824.6228      38.981269      4585.4532      299.47589      8119.2154      1.237993       0.75496283   
      3500  -4786.8689     -4827.2343      40.365324      7711.1831      310.10897      8116.0766      1.2384718      0.75496283   
      3600  -4786.4769     -4824.9568      38.479898      2403.1371      295.62408      8106.59        1.2399211      0.75496283   
      3700  -4785.9782     -4827.1451      41.166858      1150.6962      316.26681      8091.0529      1.2423021      0.75496283   
      3800  -4785.4702     -4824.7644      39.294168      3946.0283      301.87975      8071.1926      1.2453589      0.75496283   
      3900  -4785.7121     -4826.0279      40.315773      4102.1235      309.72829      8055.2197      1.2478284      0.75496283   
      4000  -4786.4842     -4826.1948      39.710618      4352.4317      305.07915      8045.0388      1.2494075      0.79112336   
      4100  -4786.4452     -4825.818       39.372808      2302.4442      302.48391      8040.5676      1.2501022      0.79112336   
      4200  -4785.1339     -4825.0809      39.947055      5798.0121      306.8956       8041.7425      1.2499196      0.79112336   
      4300  -4783.7309     -4824.5102      40.779282      4033.4187      313.28923      8051.6954      1.2483746      0.79112336   
      4400  -4783.0174     -4825.1113      42.093897      4852.8054      323.38884      8070.7589      1.2454258      0.79112336   
      4500  -4783.8999     -4824.5106      40.610702      6073.9944      311.99411      8100.3474      1.2408766      0.79112336   
      4600  -4783.9884     -4824.3298      40.341407      1200.0409      309.92523      8135.6084      1.2354985      0.79112336   
      4700  -4784.7045     -4824.4131      39.708588      1276.6256      305.06356      8171.5154      1.2300695      0.79112336   
      4800  -4784.9186     -4825.0655      40.146879      4113.0289      308.43076      8207.6219      1.2246582      0.79112336   
      4900  -4783.3525     -4824.247       40.894537      751.81623      314.17468      8230.4256      1.2212651      0.79112336   
      5000  -4783.7149     -4825.1744      41.4595        3646.0887      318.51504      8235.2071      1.220556       0.69994589   
      5100  -4784.7835     -4824.1626      39.379103      3899.3881      302.53227      8216.893       1.2232765      0.69994589   
      5200  -4784.4864     -4824.497       40.01067       4344.2091      307.38432      8177.444       1.2291777      0.69994589   
      5300  -4785.5471     -4826.0053      40.458262      2439.0665      310.82298      8121.7732      1.2376031      0.69994589   
      5400  -4784.0831     -4825.1548      41.071699      2201.4482      315.53574      8058.2322      1.2473619      0.69994589   
      5500  -4783.1538     -4822.721       39.567193      3640.8269      303.97728      7998.6165      1.2566588      0.69994589   
      5600  -4783.8689     -4824.2432      40.374226      7429.807       310.17736      7959.0403      1.2629075      0.69994589   
      5700  -4783.1871     -4824.0497      40.862565      4084.8         313.92906      7946.0831      1.2649669      0.69994589   
      5800  -4783.3048     -4824.4072      41.102381      6503.2532      315.77146      7964.3248      1.2620695      0.69994589   
      5900  -4784.1343     -4825.0276      40.893295      3226.4914      314.16514      8004.8904      1.2556739      0.69994589   
      6000  -4783.9039     -4823.5033      39.599465      5671.5451      304.22522      8051.4651      1.2484103      0.76494719   
      6100  -4783.6918     -4824.8379      41.146088      798.44247      316.10724      8100.0399      1.2409237      0.76494719   
      6200  -4783.8843     -4823.0784      39.194117      1341.9973      301.1111       8144.0365      1.2342199      0.76494719   
      6300  -4782.3336     -4823.755       41.421425      4748.6046      318.22253      8174.1338      1.2296755      0.76494719   
      6400  -4782.9963     -4823.4585      40.462169      2621.7884      310.85299      8188.9905      1.2274445      0.76494719   
      6500  -4784.5732     -4825.1937      40.620501      2008.9808      312.06939      8189.8179      1.2273205      0.76494719   
      6600  -4783.7924     -4824.8142      41.021769      128.39912      315.15215      8175.1101      1.2295286      0.76494719   
      6700  -4782.8394     -4824.661       41.821602      2945.5741      321.29691      8145.4185      1.2340105      0.76494719   
      6800  -4782.6483     -4824.0149      41.366601      6453.5715      317.80134      8110.1638      1.2393747      0.76494719   
      6900  -4782.1752     -4824.0904      41.915231      5853.4176      322.01622      8076.8764      1.2444826      0.76494719   
      7000  -4782.3816     -4824.7705      42.388807      4407.7434      325.6545       8053.764       1.2480539      0.72089493   
      7100  -4782.6655     -4824.2218      41.556315      5498.215       319.25883      8040.445       1.2501213      0.72089493   
      7200  -4782.8232     -4824.0856      41.26247       3265.0751      317.00135      8036.2104      1.2507801      0.72089493   
      7300  -4783.4014     -4824.7667      41.365306      6518.6577      317.7914       8040.4679      1.2501177      0.72089493   
      7400  -4784.3154     -4824.5006      40.185261      4077.8566      308.72563      8053.1462      1.2481497      0.72089493   
      7500  -4784.0374     -4825.3809      41.34351       3711.2831      317.62395      8071.8783      1.2452531      0.72089493   
      7600  -4784.5081     -4824.2044      39.696289      1190.4464      304.96908      8095.8961      1.2415589      0.72089493   
      7700  -4784.6991     -4824.9592      40.260132      2311.8561      309.30083      8118.88        1.2380441      0.72089493   
      7800  -4785.0701     -4825.4843      40.414281      2453.4803      310.48509      8136.655       1.2353395      0.72089493   
      7900  -4785.0989     -4825.5528      40.453952      6785.1818      310.78986      8147           1.2337709      0.72089493   
      8000  -4784.5655     -4824.8986      40.333074      9122.401       309.86121      8146.0311      1.2339177      0.69721613   
      8100  -4785.6145     -4825.1123      39.497823      4656.5729      303.44434      8134.8695      1.2356107      0.69721613   
      8200  -4784.9527     -4824.2261      39.273398      6125.5904      301.72019      8114.145       1.2387666      0.69721613   
      8300  -4785.6588     -4825.4972      39.838445      4599.677       306.0612       8086.6004      1.2429861      0.69721613   
      8400  -4783.7655     -4825.526       41.760478      5340.1582      320.82733      8055.1045      1.2478462      0.69721613   
      8500  -4785.1236     -4826.2766      41.152976      7914.2987      316.16016      8029.3432      1.2518498      0.69721613   
      8600  -4784.941      -4826.3706      41.429534      5588.6793      318.28483      8011.8873      1.2545773      0.69721613   
      8700  -4784.4908     -4824.0132      39.522395      4605.457       303.63312      8003.9087      1.2558279      0.69721613   
      8800  -4785.2802     -4825.1941      39.913913      6849.0302      306.64098      8005.8719      1.2555199      0.69721613   
      8900  -4786.5039     -4826.8925      40.388623      5569.4058      310.28797      8019.5823      1.2533735      0.69721613   
      9000  -4786.4787     -4826.8197      40.341041      3254.0876      309.92242      8043.2823      1.2496803      0.79368445   
      9100  -4786.415      -4826.6758      40.260875     -665.30951      309.30654      8070.2347      1.2455067      0.79368445   
      9200  -4787.38       -4825.9501      38.570072      547.49734      296.31684      8097.8937      1.2412526      0.79368445   
      9300  -4785.0794     -4824.0665      38.987081      5474.6665      299.52054      8121.2598      1.2376813      0.79368445   
      9400  -4784.9375     -4825.35        40.412443      2004.4072      310.47097      8138.4088      1.2350733      0.79368445   
      9500  -4785.2884     -4825.2865      39.998024      3103.1645      307.28717      8144.1431      1.2342037      0.79368445   
      9600  -4786.7341     -4825.7578      39.023675      2845.6349      299.80168      8135.947       1.235447       0.79368445   
      9700  -4786.7866     -4826.1348      39.348124      4216.3269      302.29428      8117.8962      1.2381942      0.79368445   
      9800  -4785.9047     -4826.1002      40.195467      4236.0606      308.80404      8096.465       1.2414716      0.79368445   
      9900  -4785.9334     -4825.1997      39.266272      4528.8606      301.66544      8074.0175      1.2449232      0.79368445   
     10000  -4786.5957     -4827.8804      41.284658      3118.2391      317.17181      8051.8301      1.2483537      0.77871848   
     10100  -4786.7959     -4823.9397      37.143799      2923.8822      285.35942      8030.6626      1.2516441      0.77871848   
     10200  -4786.5926     -4826.9606      40.368013      5150.9388      310.12963      8020.2633      1.2532671      0.77871848   
     10300  -4785.7904     -4825.5781      39.787661      5760.8578      305.67105      8019.9376      1.2533179      0.77871848   
     10400  -4785.7641     -4827.1451      41.380929      3922.2333      317.91142      8032.3994      1.2513735      0.77871848   
     10500  -4784.8255     -4825.5626      40.737161      6011.2335      312.96564      8053.2803      1.2481289      0.77871848   
     10600  -4783.6511     -4824.2571      40.606039      5110.0425      311.95828      8079.0366      1.2441498      0.77871848   
     10700  -4783.8368     -4824.9132      41.076383      4551.5744      315.57172      8106.0026      1.2400109      0.77871848   
     10800  -4785.5702     -4825.7727      40.202443      3432.8998      308.85763      8131.1166      1.236181       0.77871848   
     10900  -4786.7542     -4826.7479      39.993648      8762.368       307.25355      8150.6614      1.2332167      0.77871848   
     11000  -4787.4698     -4826.9063      39.436503      4044.9629      302.97325      8157.6166      1.2321653      0.81575174   
     11100  -4788.4081     -4827.7476      39.339536      4830.4493      302.22829      8147.3779      1.2337137      0.81575174   
     11200  -4785.455      -4825.3033      39.84832       3616.7162      306.13706      8122.3603      1.2375136      0.81575174   
     11300  -4784.9232     -4825.3668      40.443611      6455.5725      310.71042      8093.6101      1.2419096      0.81575174   
     11400  -4782.8942     -4823.7824      40.888255      4535.5752      314.12642      8064.4967      1.2463929      0.81575174   
     11500  -4783.8863     -4824.2504      40.36411       16.03527       310.09965      8044.0384      1.2495629      0.81575174   
     11600  -4784.2022     -4825.3884      41.186201      3240.6925      316.41541      8033.2681      1.2512382      0.81575174   
     11700  -4783.2783     -4824.8922      41.613946      2801.5866      319.70159      8033.2768      1.2512368      0.81575174   
     11800  -4783.3878     -4823.6248      40.236979      6775.1466      309.12296      8044.7523      1.249452       0.81575174   
     11900  -4783.5815     -4824.9005      41.319024      4941.4454      317.43583      8067.0402      1.2459999      0.81575174   
     12000  -4783.3253     -4825.7546      42.42928       3473.1951      325.96543      8092.6754      1.242053       0.69966717   
     12100  -4784.5346     -4825.0573      40.522743      1895.8447      311.31835      8116.8197      1.2383584      0.69966717   
     12200  -4784.794      -4824.3753      39.581363      1107.5744      304.08615      8134.0819      1.2357303      0.69966717   
     12300  -4784.3186     -4824.343       40.024399      6222.8158      307.48979      8141.3497      1.2346272      0.69966717   
     12400  -4783.493      -4824.0485      40.555483      6321.9481      311.56988      8141.333       1.2346297      0.69966717   
     12500  -4784.0307     -4823.8067      39.776019      2848.8071      305.58161      8139.433       1.2349179      0.69966717   
     12600  -4784.297      -4824.1174      39.820419      2768.7417      305.92271      8134.5165      1.2356643      0.69966717   
     12700  -4784.0866     -4825.7879      41.70132       2140.5643      320.37284      8120.7768      1.237755       0.69966717   
     12800  -4781.8378     -4824.003       42.165278      4616.8581      323.93723      8102.6901      1.2405178      0.69966717   
     12900  -4780.4341     -4823.4069      42.972853      8499.5407      330.14147      8087.6045      1.2428318      0.69966717   
     13000  -4781.5723     -4823.5635      41.991253      6501.2767      322.60027      8078.3713      1.2442523      0.7112228    
     13100  -4782.409      -4822.3616      39.952596      4248.9116      306.93817      8078.896       1.2441714      0.7112228    
     13200  -4782.7376     -4823.3445      40.606907      1917.3423      311.96495      8088.1728      1.2427444      0.7112228    
     13300  -4783.2105     -4823.2744      40.063938      3552.7822      307.79355      8098.4993      1.2411598      0.7112228    
     13400  -4782.5805     -4824.3178      41.737299      2912.8115      320.64925      8109.5024      1.2394758      0.7112228    
     13500  -4784.2968     -4823.7408      39.443987      1267.5975      303.03075      8120.6946      1.2377675      0.7112228    
     13600  -4785.3673     -4825.7229      40.355579      1031.9095      310.03411      8128.8996      1.2365181      0.7112228    
     13700  -4785.9037     -4826.3305      40.426781      3031.3993      310.58112      8129.5193      1.2364239      0.7112228    
     13800  -4787.1765     -4825.8954      38.71892       2033.9487      297.46038      8121.766       1.2376042      0.7112228    
     13900  -4787.1808     -4826.2138      39.033047      1053.927       299.87368      8107.5615      1.2397725      0.7112228    
     14000  -4786.8333     -4825.7212      38.887917      1617.9629      298.75871      8086.3283      1.2430279      0.76145491   
     14100  -4788.2009     -4826.3307      38.129799      2434.2402      292.93442      8059.5861      1.2471523      0.76145491   
     14200  -4786.4282     -4826.5187      40.090539      5200.6121      307.99792      8029.806       1.2517777      0.76145491   
     14300  -4785.4081     -4825.7546      40.346469      3233.3195      309.96412      8004.2673      1.2557716      0.76145491   
     14400  -4783.8247     -4825.3029      41.478162      4379.6502      318.65842      7987.8933      1.2583458      0.76145491   
     14500  -4785.97       -4825.0703      39.10028       5248.4121      300.3902       7988.6297      1.2582298      0.76145491   
     14600  -4785.2863     -4826.1486      40.862329      6131.2861      313.92724      8005.2514      1.2556172      0.76145491   
     14700  -4787.0592     -4826.883       39.823809      5085.7852      305.94875      8037.5928      1.2505649      0.76145491   
     14800  -4787.7792     -4828.4092      40.63004       4450.4825      312.14267      8077.6539      1.2443628      0.76145491   
     14900  -4787.8395     -4828.7929      40.953372      1950.6503      314.62668      8120.3771      1.2378159      0.76145491   
     15000  -4788.2447     -4826.5469      38.302174      4650.9328      294.2587       8157.0644      1.2322487      0.80247936   
     15100  -4786.8784     -4827.0379      40.159541      3513.2442      308.52803      8177.95        1.2291016      0.80247936   
     15200  -4785.6212     -4826.9909      41.369682      4600.9101      317.82501      8178.3435      1.2290425      0.80247936   
     15300  -4785.4329     -4824.287       38.854164      2073.7947      298.49939      8158.4022      1.2320466      0.80247936   
     15400  -4785.4983     -4824.8694      39.371027      6798.8803      302.47023      8128.2107      1.2366229      0.80247936   
     15500  -4785.0156     -4826.4754      41.459734      7611.5144      318.51684      8094.7524      1.2417343      0.80247936   
     15600  -4784.7246     -4824.4168      39.692181      5482.1543      304.93752      8063.0491      1.2466167      0.80247936   
     15700  -4784.6285     -4826.0878      41.459288      7338.1353      318.51341      8042.2006      1.2498484      0.80247936   
     15800  -4783.9242     -4825.3685      41.444275      6997.7975      318.39808      8030.5061      1.2516685      0.80247936   
     15900  -4786.1016     -4826.0903      39.988727      8498.0677      307.21575      8032.7963      1.2513117      0.80247936   
     16000  -4786.5973     -4826.0453      39.448053      5545.0922      303.06199      8044.0182      1.249566       0.72310993   
     16100  -4785.5068     -4826.3005      40.793622      6436.3573      313.3994       8060.8125      1.2469626      0.72310993   
     16200  -4784.421      -4824.8455      40.424555      2231.2127      310.56402      8084.5279      1.2433047      0.72310993   
     16300  -4785.6388     -4826.7739      41.135113      694.06554      316.02293      8115.3465      1.2385832      0.72310993   
     16400  -4785.401      -4824.1026      38.701553      3982.2671      297.32695      8141.7875      1.2345608      0.72310993   
     16500  -4784.1238     -4825.6044      41.480601      3282.5195      318.67715      8163.8287      1.2312277      0.72310993   
     16600  -4784.6159     -4824.7587      40.142796      4280.6409      308.39939      8176.7934      1.2292755      0.72310993   
     16700  -4784.7709     -4825.2331      40.462238     -931.96175      310.85352      8176.8171      1.2292719      0.72310993   
     16800  -4782.722      -4823.2841      40.562107      2891.4711      311.62077      8161.817       1.2315311      0.72310993   
     16900  -4782.4106     -4824.1555      41.744939      2318.9213      320.70795      8137.552       1.2352034      0.72310993   
     17000  -4784.3444     -4823.6108      39.266353      5497.2565      301.66607      8109.1271      1.2395331      0.70814499   
     17100  -4784.0576     -4825.3689      41.31126       5864.0338      317.37618      8083.0032      1.2435392      0.70814499   
     17200  -4782.5669     -4824.4125      41.845624      6962.3305      321.48146      8059.8672      1.2471089      0.70814499   
     17300  -4784.0728     -4823.3255      39.252707      3013.2985      301.56123      8049.7876      1.2486704      0.70814499   
     17400  -4786.0164     -4825.2912      39.274829      4568.6166      301.73118      8050.0247      1.2486336      0.70814499   
     17500  -4785.5918     -4825.8155      40.223723      2445.5779      309.02112      8056.7334      1.2475939      0.70814499   
     17600  -4786.6879     -4826.1988      39.510875      4041.0905      303.54462      8067.2258      1.2459713      0.70814499   
     17700  -4786.8418     -4825.9042      39.062448      4553.073       300.09955      8076.6352      1.2445197      0.70814499   
     17800  -4786.802      -4825.7776      38.975673      4664.3077      299.4329       8084.6852      1.2432805      0.70814499   
     17900  -4786.9564     -4827.0532      40.096884      3829.1361      308.04667      8088.5791      1.242682       0.70814499   
     18000  -4789.1924     -4828.1631      38.970705      3168.0816      299.39473      8089.7913      1.2424958      0.72468204   
     18100  -4789.2815     -4828.0882      38.806705      1619.8819      298.13479      8083.4519      1.2434702      0.72468204   
     18200  -4787.1082     -4826.1251      39.01691       781.26863      299.7497       8069.0074      1.2456962      0.72468204   
     18300  -4787.738      -4827.419       39.681024      2352.1211      304.8518       8054.7465      1.2479017      0.72468204   
     18400  -4788.387      -4826.5587      38.171632      4790.6366      293.2558       8041.1475      1.2500121      0.72468204   
     18500  -4788.8572     -4827.7619      38.904735      5271.1314      298.88791      8029.7661      1.2517839      0.72468204   
     18600  -4788.843      -4828.2549      39.411887      4939.9499      302.78414      8020.1027      1.2532921      0.72468204   
     18700  -4787.9244     -4827.4452      39.52083       3375.1406      303.6211       8011.9515      1.2545672      0.72468204   
     18800  -4787.8616     -4828.0095      40.147943      4209.2661      308.43893      8007.3203      1.2552928      0.72468204   
     18900  -4787.3085     -4827.0286      39.720111      3738.4445      305.15209      8009.9918      1.2548742      0.72468204   
     19000  -4785.8396     -4826.9258      41.086259      255.07001      315.6476       8022.2058      1.2529636      0.71193726   
     19100  -4784.6148     -4824.3661      39.751277      7664.5207      305.39152      8041.5966      1.2499423      0.71193726   
     19200  -4785.1346     -4825.5864      40.451841      7080.2767      310.77365      8068.0488      1.2458442      0.71193726   
     19300  -4784.5182     -4826.7383      42.220103      7289.4147      324.35842      8096.9911      1.241391       0.71193726   
     19400  -4784.7405     -4823.7663      39.025827      4223.841       299.81821      8120.3397      1.2378216      0.71193726   
     19500  -4785.1258     -4826.2061      41.080305      89.123057      315.60185      8137.1832      1.2352594      0.71193726   
     19600  -4783.2823     -4824.4912      41.20891       3257.9616      316.58988      8146.0921      1.2339084      0.71193726   
     19700  -4783.4112     -4824.9448      41.533598      5236.3381      319.08431      8147.0286      1.2337666      0.71193726   
     19800  -4782.8492     -4823.6158      40.766604      3893.6976      313.19183      8138.7687      1.2350187      0.71193726   
     19900  -4783.62       -4823.1079      39.487927      2517.0275      303.36832      8129.4445      1.2364352      0.71193726   
     20000  -4781.6956     -4824.7112      43.015639      4015.6626      330.47018      8118.8271      1.2380522      0.80092787   
     20100  -4783.8016     -4825.5797      41.778143      2401.7636      320.96304      8108.8559      1.2395746      0.80092787   
     20200  -4784.6875     -4825.6773      40.989793      2597.1146      314.90649      8101.2401      1.2407399      0.80092787   
     20300  -4785.9135     -4826.0275      40.114028      1578.4907      308.17838      8091.289       1.2422658      0.80092787   
     20400  -4783.2842     -4825.0343      41.750163      3098.8305      320.74808      8074.9324      1.2447822      0.80092787   
     20500  -4782.9542     -4822.8809      39.926616      3964.5159      306.73857      8059.1425      1.247221       0.80092787   
     20600  -4783.182      -4825.1408      41.958764      3868.0027      322.35067      8051.7243      1.2483701      0.80092787   
     20700  -4782.2352     -4825.9397      43.70444       6723.2562      335.76193      8051.0704      1.2484715      0.80092787   
     20800  -4783.7245     -4824.4082      40.683688      6847.8088      312.55483      8056.3435      1.2476543      0.80092787   
     20900  -4782.6997     -4823.078       40.378278      5394.2246      310.20849      8070.9649      1.2453941      0.80092787   
     21000  -4782.885      -4824.3423      41.457375      3614.1757      318.49872      8100.5267      1.2408492      0.78531072   
     21100  -4782.0147     -4823.3086      41.293912      4971.5992      317.24291      8135.304       1.2355447      0.78531072   
     21200  -4783.5426     -4824.3357      40.793184      2790.6367      313.39603      8164.8926      1.2310672      0.78531072   
     21300  -4784.0501     -4824.2822      40.232082      3086.0931      309.08534      8182.8158      1.2283708      0.78531072   
     21400  -4782.8816     -4824.5385      41.656941      6277.9361      320.03189      8187.7749      1.2276268      0.78531072   
     21500  -4783.0637     -4823.8621      40.798472      2640.9569      313.43665      8181.1444      1.2286217      0.78531072   
     21600  -4781.7839     -4824.2917      42.507889      1269.9498      326.56936      8161.935       1.2315133      0.78531072   
     21700  -4782.248      -4823.9181      41.67013       4806.6474      320.13322      8131.7731      1.2360812      0.78531072   
     21800  -4779.6837     -4821.5689      41.88513       5440.1941      321.78498      8099.2121      1.2410506      0.78531072   
     21900  -4781.3445     -4823.5948      42.250216      7856.588       324.58977      8066.9123      1.2460197      0.78531072   
     22000  -4781.1857     -4823.3762      42.190526      4427.0191      324.1312       8046.4985      1.2491808      0.75213002   
     22100  -4781.6037     -4823.8984      42.294715      3366.1129      324.93163      8035.904       1.2508277      0.75213002   
     22200  -4782.5411     -4823.4748      40.933693      2933.9923      314.4755       8036.9754      1.250661       0.75213002   
     22300  -4782.3917     -4824.958       42.566321      7716.1859      327.01826      8049.4504      1.2487227      0.75213002   
     22400  -4783.3088     -4825.4881      42.179378      3672.4692      324.04555      8074.0969      1.244911       0.75213002   
     22500  -4785.3223     -4827.0779      41.755581      2448.1681      320.78971      8109.4128      1.2394895      0.75213002   
     22600  -4784.4477     -4826.5121      42.064394      3041.5081      323.16218      8147.3641      1.2337158      0.75213002   
     22700  -4783.8507     -4822.7263      38.875598     -224.48565      298.66407      8181.8849      1.2285105      0.75213002   
     22800  -4784.4931     -4824.6487      40.155677      401.08114      308.49835      8203.9385      1.2252081      0.75213002   
     22900  -4783.217      -4824.1648      40.947795     -686.28551      314.58384      8210.2935      1.2242597      0.75213002   
     23000  -4784.5729     -4824.5965      40.023656      3892.099       307.48409      8198.9429      1.2259546      0.88692325   
     23100  -4785.0181     -4825.2277      40.20952       722.33377      308.912        8169.6044      1.2303572      0.88692325   
     23200  -4785.8074     -4824.9067      39.09929       5119.4375      300.38259      8125.5734      1.2370243      0.88692325   
     23300  -4784.365      -4825.8586      41.493583      3985.9895      318.77689      8074.5313      1.244844       0.88692325   
     23400  -4785.2778     -4824.9548      39.676951      3459.0548      304.82051      8021.1811      1.2531237      0.88692325   
     23500  -4785.166      -4825.5651      40.399191      5090.372       310.36916      7976.6872      1.2601136      0.88692325   
     23600  -4783.9659     -4826.6401      42.674155      5178.1065      327.84671      7949.6429      1.2644004      0.88692325   
     23700  -4785.6952     -4825.2464      39.551185      3663.2146      303.8543       7948.0109      1.26466        0.88692325   
     23800  -4785.7197     -4824.7557      39.036003      6134.2203      299.89639      7970.6247      1.261072       0.88692325   
     23900  -4785.9759     -4826.7184      40.742485      5671.8854      313.00654      8011.0326      1.2547111      0.88692325   
     24000  -4784.5083     -4824.2205      39.712264      4850.9605      305.0918       8058.2524      1.2473588      0.75386193   
     24100  -4783.8883     -4825.0524      41.164083      3101.2579      316.24549      8109.6844      1.239448       0.75386193   
     24200  -4784.1661     -4824.389       40.222839      1366.5926      309.01432      8154.0359      1.2327063      0.75386193   
     24300  -4786.2431     -4826.5741      40.330987      1577.4934      309.84518      8181.9497      1.2285008      0.75386193   
     24400  -4786.7361     -4827.0668      40.330627      1622.4667      309.84241      8186.5131      1.227816       0.75386193   
     24500  -4784.7267     -4823.2152      38.488544      1986.1356      295.6905       8174.1381      1.2296748      0.75386193   
     24600  -4784.2931     -4824.4801      40.187002      2649.6959      308.73901      8153.8868      1.2327289      0.75386193   
     24700  -4783.7367     -4826.198       42.461343      3633.1245      326.21176      8128.1815      1.2366274      0.75386193   
     24800  -4784.5733     -4825.8385      41.265152      5149.6223      317.02195      8100.7708      1.2408118      0.75386193   
     24900  -4786.5888     -4826.35        39.761205      5686.7505      305.46779      8077.1643      1.2444382      0.75386193   
     25000  -4785.7027     -4826.1725      40.469804      2506.3501      310.91164      8057.0797      1.2475403      0.7138166    
     25100  -4785.299      -4827.0743      41.775278      5028.3688      320.94103      8043.1455      1.2497016      0.7138166    
     25200  -4785.5343     -4824.6071      39.072778      6338.5659      300.17892      8040.0162      1.250188       0.7138166    
     25300  -4786.3914     -4826.2228      39.831413      4830.9915      306.00717      8049.3807      1.2487335      0.7138166    
     25400  -4785.8995     -4826.7597      40.860132      3193.8784      313.91036      8066.9714      1.2460106      0.7138166    
     25500  -4786.7141     -4826.4927      39.778638      62.827695      305.60173      8082.9764      1.2435434      0.7138166    
     25600  -4786.1944     -4825.6486      39.454151      3170.9763      303.10883      8097.4476      1.241321       0.7138166    
     25700  -4785.0109     -4824.5666      39.555744      6395.0923      303.88932      8111.8111      1.239123       0.7138166    
     25800  -4784.8091     -4824.7337      39.924532      2487.823       306.72256      8123.2446      1.2373789      0.7138166    
     25900  -4784.6748     -4826.2199      41.545104      3074.1463      319.1727       8125.9758      1.236963       0.7138166    
     26000  -4784.8666     -4824.5327      39.666119      4565.6967      304.73729      8119.2596      1.2379862      0.71060219   
     26100  -4783.4999     -4824.3407      40.840776      5588.0545      313.76166      8108.1339      1.239685       0.71060219   
     26200  -4783.4252     -4824.6184      41.193258      240.11313      316.46963      8096.6556      1.2414424      0.71060219   
     26300  -4785.1079     -4825.9316      40.823741      1596.2576      313.63079      8086.9213      1.2429368      0.71060219   
     26400  -4786.6551     -4824.9841      38.329058      3677.361       294.46524      8079.8627      1.2440226      0.71060219   
     26500  -4786.8715     -4825.9316      39.060111      6096.9176      300.0816       8075.7716      1.2446528      0.71060219   
     26600  -4785.7394     -4825.8718      40.132319      6876.5538      308.3189       8068.1609      1.2458269      0.71060219   
     26700  -4785.9606     -4826.0941      40.133496      4762.5918      308.32794      8063.8217      1.2464973      0.71060219   
     26800  -4787.5018     -4826.1452      38.643435      5313.834       296.88046      8062.1811      1.2467509      0.71060219   
     26900  -4786.3696     -4826.3951      40.025493      3325.7716      307.4982       8061.9634      1.2467846      0.71060219   
     27000  -4785.1603     -4826.1697      41.009391      1907.9096      315.05706      8065.5105      1.2462363      0.73387497   
     27100  -4786.2484     -4826.716       40.467589      4463.5166      310.89463      8073.2466      1.2450421      0.73387497   
     27200  -4786.0527     -4825.3628      39.310136      6277.1708      302.00243      8084.0444      1.2433791      0.73387497   
     27300  -4786.2106     -4825.3365      39.125865      4698.245       300.58676      8095.3802      1.241638       0.73387497   
     27400  -4786.7352     -4827.454       40.718881      2304.999       312.82519      8101.7583      1.2406605      0.73387497   
     27500  -4785.7258     -4825.374       39.64824       1628.6342      304.59993      8100.4794      1.2408564      0.73387497   
     27600  -4785.3684     -4825.2658      39.897373      3254.3016      306.51392      8094.6937      1.2417433      0.73387497   
     27700  -4783.68       -4825.0552      41.375265      5366.4808      317.8679       8089.5887      1.2425269      0.73387497   
     27800  -4785.082      -4824.4518      39.369741      5013.8621      302.46035      8087.1973      1.2428943      0.73387497   
     27900  -4785.3753     -4824.7915      39.416189      5857.6527      302.81719      8084.5989      1.2432938      0.73387497   
     28000  -4786.0129     -4825.8532      39.840285      1409.5525      306.07533      8083.7368      1.2434264      0.70647622   
     28100  -4786.1764     -4824.7877      38.611308     -75.516409      296.63364      8080.8429      1.2438717      0.70647622   
     28200  -4786.6197     -4826.027       39.407243      3043.7952      302.74846      8075.6514      1.2446713      0.70647622   
     28300  -4786.1267     -4826.9241      40.797371      3058.937       313.4282       8070.3529      1.2454885      0.70647622   
     28400  -4786.2418     -4825.8334      39.591565      5149.6085      304.16452      8067.8675      1.2458722      0.70647622   
     28500  -4786.7376     -4825.3038      38.566206      8291.1682      296.28714      8070.6042      1.2454497      0.70647622   
     28600  -4787.0057     -4827.2232      40.217495      3172.6535      308.97327      8071.9689      1.2452392      0.70647622   
     28700  -4787.0453     -4826.4744      39.429124      3216.5662      302.91656      8072.5212      1.245154       0.70647622   
     28800  -4787.2059     -4825.0662      37.860258      5301.4995      290.86365      8074.4401      1.244858       0.70647622   
     28900  -4787.6641     -4827.5576      39.893454      7148.9329      306.48381      8075.8045      1.2446477      0.70647622   
     29000  -4785.6823     -4826.2506      40.568367      4032.8396      311.66886      8074.6545      1.244825       0.74267583   
     29100  -4785.8754     -4825.4109      39.535502      3241.7928      303.73382      8069.0751      1.2456857      0.74267583   
     29200  -4785.2128     -4824.6298      39.416953      3913.0376      302.82306      8061.426       1.2468677      0.74267583   
     29300  -4785.2491     -4826.446       41.196899      2096.3097      316.4976       8057.6586      1.2474507      0.74267583   
     29400  -4786.6073     -4826.3642      39.756896      5827.9736      305.43469      8060.8749      1.2469529      0.74267583   
     29500  -4786.3824     -4826.4947      40.112275      5127.6835      308.16491      8068.5795      1.2457622      0.74267583   
     29600  -4786.0377     -4826.1013      40.063576      5681.7672      307.79077      8076.4027      1.2445555      0.74267583   
     29700  -4786.7571     -4825.6853      38.92816       6096.6874      299.06787      8084.1235      1.2433669      0.74267583   
     29800  -4785.0908     -4824.3555      39.264711      5917.3256      301.65345      8088.6742      1.2426674      0.74267583   
     29900  -4784.5152     -4825.4581      40.942913      1917.4491      314.54633      8092.4817      1.2420827      0.74267583   
     30000  -4784.3366     -4825.9747      41.638031      2315.265       319.88662      8095.8094      1.2415722      0.75517999   
     30100  -4784.6004     -4824.0208      39.420424      1619.5607      302.84973      8098.292       1.2411916      0.75517999   
     30200  -4785.388      -4826.8209      41.432937      5472.8459      318.31097      8101.4006      1.2407153      0.75517999   
     30300  -4785.3886     -4825.1358      39.747111      4567.4561      305.35952      8104.3624      1.2402619      0.75517999   
     30400  -4784.9601     -4824.9478      39.987761      3592.3194      307.20832      8103.4812      1.2403967      0.75517999   
     30500  -4785.0224     -4825.8616      40.839184      2180.9312      313.74943      8096.8809      1.2414079      0.75517999   
     30600  -4784.8979     -4825.1391      40.2412        2286.8629      309.15538      8083.6895      1.2434337      0.75517999   
     30700  -4784.8448     -4825.8811      41.036307      7116.9574      315.26384      8064.5564      1.2463837      0.75517999   
     30800  -4785.1998     -4825.0032      39.803389      5437.6954      305.79187      8044.5589      1.249482       0.75517999   
     30900  -4786.632      -4826.1929      39.560833      2313.6586      303.92842      8028.4046      1.2519961      0.75517999   
     31000  -4785.4758     -4824.8501      39.374357      1519.5955      302.49581      8016.8001      1.2538084      0.7383438    
     31100  -4784.5619     -4824.0907      39.528847      4086.7296      303.68269      8015.2312      1.2540539      0.7383438    
     31200  -4784.5083     -4824.3904      39.882069      1926.9678      306.39634      8029.1485      1.2518802      0.7383438    
     31300  -4783.5767     -4825.3087      41.732073      2227.6206      320.6091       8053.2072      1.2481402      0.7383438    
     31400  -4784.6246     -4824.3406      39.716062      2050.3213      305.12098      8080.2961      1.2439559      0.7383438    
     31500  -4784.5903     -4824.3017      39.711398      3541.0296      305.08515      8104.6731      1.2402143      0.7383438    
     31600  -4784.4953     -4825.5008      41.00548       1558.4114      315.02701      8123.0942      1.2374018      0.7383438    
     31700  -4785.1041     -4825.1221      40.017997     -3139.4956      307.44062      8135.0371      1.2355852      0.7383438    
     31800  -4784.5107     -4823.6795      39.16882      -2066.8487      300.91676      8137.9919      1.2351366      0.7383438    
     31900  -4785.4918     -4825.3901      39.898291      2612.4417      306.52097      8132.2081      1.2360151      0.7383438    
     32000  -4785.7362     -4826.0592      40.322942      2233.7993      309.78337      8114.8507      1.2386589      0.70319968   
     32100  -4786.2592     -4825.6038      39.344626      3772.0476      302.2674       8085.7877      1.243111       0.70319968   
     32200  -4785.9379     -4826.3677      40.429769      3045.4652      310.60408      8054.0584      1.2480083      0.70319968   
     32300  -4786.9395     -4824.9512      38.011679      3299.1211      292.02696      8021.3158      1.2531026      0.70319968   
     32400  -4785.0889     -4826.2937      41.204798      716.04295      316.55828      7990.8793      1.2578755      0.70319968   
     32500  -4785.9761     -4825.6862      39.71004       1319.5046      305.07472      7971.781       1.2608891      0.70319968   
     32600  -4786.6985     -4827.1017      40.403212      3304.2293      310.40005      7970.3698      1.2611123      0.70319968   
     32700  -4787.8079     -4827.9187      40.110842      4730.174       308.1539       7984.2692      1.2589169      0.70319968   
     32800  -4787.3285     -4827.9735      40.645019      337.38697      312.25774      8014.1881      1.2542171      0.70319968   
     32900  -4788.0439     -4826.5466      38.502653      5209.7395      295.79889      8052.2705      1.2482854      0.70319968   
     33000  -4788.0132     -4826.8732      38.859949      5986.1147      298.54384      8092.3122      1.2421087      0.7626068    
     33100  -4786.0845     -4826.4507      40.366164      2817.4555      310.11542      8124.9582      1.237118       0.7626068    
     33200  -4785.6236     -4825.7849      40.161347      2257.112       308.54191      8146.7201      1.2338133      0.7626068    
     33300  -4784.8747     -4826.4878      41.613093      4309.4482      319.69503      8158.0849      1.2320945      0.7626068    
     33400  -4783.8763     -4823.9561      40.079784      5411.902       307.91529      8157.0936      1.2322442      0.7626068    
     33500  -4784.5475     -4825.7266      41.179049      5579.5424      316.36046      8146.1332      1.2339022      0.7626068    
     33600  -4783.6719     -4825.4654      41.793501      298.53059      321.08103      8127.7341      1.2366954      0.7626068    
     33700  -4783.4754     -4824.1174      40.642057      2773.531       312.23499      8103.8956      1.2403333      0.7626068    
     33800  -4784.2417     -4824.5669      40.32521       5345.7038      309.8008       8083.852       1.2434087      0.7626068    
     33900  -4784.4694     -4826.0134      41.544048      3066.6159      319.16459      8068.7944      1.2457291      0.7626068    
     34000  -4784.9065     -4824.1335      39.227032      8483.8416      301.36398      8057.1045      1.2475365      0.69751391   
     34100  -4785.1044     -4825.843       40.738636      5858.6736      312.97697      8051.2356      1.2484458      0.69751391   
     34200  -4785.5028     -4827.0148      41.51196       4131.6146      318.91807      8048.1077      1.2489311      0.69751391   
     34300  -4785.7093     -4826.2157      40.506396      8396.9803      311.19277      8048.4851      1.2488725      0.69751391   
     34400  -4786.1161     -4827.4177      41.301529      3953.3079      317.30142      8055.3409      1.2478096      0.69751391   
     34500  -4785.7376     -4826.9695      41.23186       3189.1033      316.76619      8061.8049      1.2468091      0.69751391   
     34600  -4786.4018     -4826.8861      40.48435       2998.6302      311.0234       8071.0252      1.2453848      0.69751391   
     34700  -4785.9849     -4825.9029      39.91803       4195.4166      306.67261      8080.4609      1.2439305      0.69751391   
     34800  -4783.8565     -4824.9729      41.116464      5613.2133      315.87965      8086.4822      1.2430042      0.69751391   
     34900  -4784.4797     -4825.4629      40.983224      3461.881       314.85602      8090.7953      1.2423416      0.69751391   
     35000  -4783.8266     -4823.4911      39.664446     -1076.9184      304.72444      8091.4144      1.2422466      0.85031052   
     35100  -4784.2169     -4826.3692      42.152245     -1451.4879      323.8371       8091.1365      1.2422892      0.85031052   
     35200  -4784.1601     -4824.2199      40.059754      2850.757       307.76142      8088.1183      1.2427528      0.85031052   
     35300  -4783.3503     -4824.3939      41.043593      3937.3875      315.31981      8085.738       1.2431186      0.85031052   
     35400  -4785.4402     -4824.8066      39.366373      5349.9676      302.43447      8081.5263      1.2437665      0.85031052   
     35500  -4786.2381     -4825.5543      39.316157      7749.9356      302.04869      8078.4242      1.2442441      0.85031052   
     35600  -4787.2304     -4826.7869      39.556492      1705.8353      303.89508      8073.618       1.2449848      0.85031052   
     35700  -4786.1593     -4824.7971      38.637753     -838.73681      296.83681      8062.1257      1.2467595      0.85031052   
     35800  -4785.8184     -4825.7538      39.935372      3844.8743      306.80585      8046.1527      1.2492345      0.85031052   
     35900  -4785.093      -4824.776       39.68301       2641.0016      304.86706      8033.071       1.2512689      0.85031052   
     36000  -4782.6983     -4824.2298      41.531547      6276.5271      319.06855      8027.0442      1.2522083      0.68520203   
     36100  -4784.2292     -4825.7352      41.505928      5286.2312      318.87173      8027.6463      1.2521144      0.68520203   
     36200  -4784.4294     -4825.3281      40.898667      2430.1294      314.20641      8037.2914      1.2506118      0.68520203   
     36300  -4784.512      -4824.154       39.641998      2391.1568      304.55198      8058.1536      1.2473741      0.68520203   
     36400  -4784.6189     -4824.1249      39.506027      4060.8911      303.50738      8082.4696      1.2436213      0.68520203   
     36500  -4784.5971     -4825.7862      41.189074      3294.6102      316.43748      8110.4924      1.2393245      0.68520203   
     36600  -4783.9248     -4826.1642      42.23947       4004.5615      324.50721      8135.6754      1.2354883      0.68520203   
     36700  -4783.7022     -4822.7829      39.08068       3473.7486      300.23962      8150.9138      1.2331785      0.68520203   
     36800  -4786.045      -4827.0183      40.973384      1427.1207      314.78043      8158.5084      1.2320306      0.68520203   
     36900  -4785.9703     -4824.8023      38.83197       4818.6424      298.32889      8153.8574      1.2327333      0.68520203   
     37000  -4785.3265     -4826.1797      40.853162      2649.7918      313.85682      8139.6641      1.2348829      0.70085824   
     37100  -4785.3958     -4826.0788      40.682986      2884.8922      312.54943      8117.7887      1.2382106      0.70085824   
     37200  -4782.9161     -4824.5758      41.659658      2385.5076      320.05277      8093.8271      1.2418763      0.70085824   
     37300  -4784.9746     -4825.7474      40.772823      2685.9756      313.2396       8073.5334      1.2449979      0.70085824   
     37400  -4785.573      -4824.8869      39.313839      1964.0162      302.03088      8060.6717      1.2469844      0.70085824   
     37500  -4785.7445     -4825.2827      39.538207      7454.9717      303.7546       8052.9344      1.2481825      0.70085824   
     37600  -4785.4151     -4825.8266      40.411576      6838.9441      310.4643       8053.321       1.2481226      0.70085824   
     37700  -4785.8698     -4825.6332      39.763424      8199.0107      305.48484      8060.3072      1.2470408      0.70085824   
     37800  -4785.4613     -4825.4771      40.015777      5560.2254      307.42356      8069.1824      1.2456692      0.70085824   
     37900  -4786.3936     -4826.6349      40.241349      960.36901      309.15653      8081.9114      1.2437072      0.70085824   
     38000  -4787.1721     -4826.2261      39.054015      1545.3941      300.03476      8093.6235      1.2419075      0.76928853   
     38100  -4787.3103     -4826.0197      38.709428      177.98634      297.38745      8100.6772      1.2408261      0.76928853   
     38200  -4787.4052     -4825.917       38.511796      6346.4734      295.86913      8099.9827      1.2409325      0.76928853   
     38300  -4788.1194     -4826.4906      38.371193      196.84848      294.78894      8093.0655      1.2419931      0.76928853   
     38400  -4787.4327     -4826.7048      39.272161      196.14927      301.71068      8079.2645      1.2441147      0.76928853   
     38500  -4785.9317     -4825.6442      39.712474      6918.8274      305.09341      8063.3659      1.2465677      0.76928853   
     38600  -4785.4191     -4826.8335      41.414434      8089.0324      318.16882      8053.1129      1.2481548      0.76928853   
     38700  -4785.7637     -4824.4787      38.714969      5932.6645      297.43002      8049.7836      1.248671       0.76928853   
     38800  -4785.7162     -4826.2483      40.532039      8514.2997      311.38977      8052.2804      1.2482839      0.76928853   
     38900  -4785.8169     -4826.5987      40.781869      4050.0199      313.3091       8061.9694      1.2467837      0.76928853   
     39000  -4786.9816     -4826.1649      39.183355      1866.6108      301.02842      8072.9488      1.245088       0.7084198    
     39100  -4785.2212     -4825.1191      39.897941      2544.1744      306.51828      8082.6457      1.2435943      0.7084198    
     39200  -4784.3028     -4825.0419      40.739134      5874.6835      312.98079      8097.7442      1.2412755      0.7084198    
     39300  -4784.2911     -4824.6286      40.337428      4996.6074      309.89466      8113.4509      1.2388726      0.7084198    
     39400  -4783.4735     -4824.913       41.439431      1891.4242      318.36087      8124.6069      1.2371714      0.7084198    
     39500  -4782.9146     -4823.6592      40.744656      1133.4098      313.02321      8133.7276      1.2357842      0.7084198    
     39600  -4784.0379     -4824.1269      40.088971      4585.3466      307.98588      8140.3744      1.2347751      0.7084198    
     39700  -4784.2961     -4824.7734      40.477321      5629.9386      310.96939      8142.2445      1.2344915      0.7084198    
     39800  -4785.5773     -4827.1785      41.601224      4139.4603      319.60385      8137.293       1.2352427      0.7084198    
     39900  -4786.3083     -4826.3892      40.080862      3338.7766      307.92358      8125.6398      1.2370142      0.7084198    
     40000  -4787.3613     -4826.6553      39.294004      7007.9572      301.87849      8104.9976      1.2401647      0.70749978   
     40100  -4786.6814     -4826.3127      39.631242      5634.3136      304.46935      8080.7586      1.2438847      0.70749978   
     40200  -4786.1456     -4827.924       41.778404      4441.7192      320.96504      8056.8961      1.2475687      0.70749978   
     40300  -4785.7037     -4825.6833      39.979593      5906.7018      307.14558      8034.6824      1.2510179      0.70749978   
     40400  -4785.2349     -4826.6046      41.3697        6431.935       317.82515      8024.555       1.2525968      0.70749978   
     40500  -4784.2823     -4826.2961      42.013793      4602.5257      322.77343      8025.4502      1.2524571      0.70749978   
     40600  -4785.481      -4825.2108      39.729801      3070.0431      305.22653      8039.1462      1.2503233      0.70749978   
     40700  -4785.7983     -4824.9406      39.142278      3681.8585      300.71285      8061.9522      1.2467863      0.70749978   
     40800  -4786.0371     -4826.4548      40.417649      3427.1081      310.51096      8089.9678      1.2424687      0.70749978   
     40900  -4788.0402     -4827.136       39.095811      619.17134      300.35586      8116.3898      1.238424       0.70749978   
     41000  -4787.7841     -4827.4226      39.63859       0.81420329     304.5258       8134.9448      1.2355993      0.7109619    
     41100  -4787.7074     -4827.5818      39.874399      4498.1318      306.33741      8145.2012      1.2340434      0.7109619    
     41200  -4785.952      -4825.9492      39.997233      639.57525      307.28109      8144.6664      1.2341244      0.7109619    
     41300  -4785.3027     -4824.8186      39.51598       4552.8423      303.58384      8137.4594      1.2352174      0.7109619    
     41400  -4786.4107     -4825.4185      39.007775      3262.6738      299.67952      8125.7965      1.2369903      0.7109619    
     41500  -4786.6929     -4826.838       40.14514       5910.9097      308.4174       8106.0037      1.2400107      0.7109619    
     41600  -4785.5462     -4825.5364      39.990196      5500.9113      307.22703      8080.7582      1.2438847      0.7109619    
     41700  -4786.2544     -4827.5977      41.343335      6222.9865      317.6226       8051.9182      1.24834        0.7109619    
     41800  -4786.9612     -4827.1846      40.223437      4987.0335      309.01892      8024.8198      1.2525554      0.7109619    
     41900  -4786.9463     -4825.9246      38.97837       3446.741       299.45361      8009.8021      1.2549039      0.7109619    
     42000  -4787.3405     -4826.7956      39.455044      2821.3976      303.11569      8008.7332      1.2550714      0.79129572   
     42100  -4784.0386     -4825.2411      41.202588      6299.6269      316.54131      8022.8809      1.2528581      0.79129572   
     42200  -4783.9068     -4824.4872      40.580334      7335.9094      311.7608       8052.2306      1.2482916      0.79129572   
     42300  -4782.5816     -4824.0825      41.500846      1194.427       318.83269      8091.9267      1.2421679      0.79129572   
     42400  -4782.3516     -4823.7543      41.402658      1548.2381      318.07835      8136.8568      1.2353089      0.79129572   
     42500  -4782.041      -4824.1015      42.060533      633.54502      323.13252      8181.7201      1.2285353      0.79129572   
     42600  -4782.7021     -4824.2036      41.50155       1012.1279      318.8381       8217.8109      1.2231398      0.79129572   
     42700  -4782.8558     -4822.3885      39.532715      2735.6619      303.7124       8238.1509      1.2201199      0.79129572   
     42800  -4783.9887     -4823.6012      39.612464      4092.9541      304.32509      8238.1541      1.2201194      0.79129572   
     42900  -4784.1927     -4823.8619      39.66916       3159.4386      304.76065      8220.3308      1.2227649      0.79129572   
     43000  -4784.0243     -4824.7388      40.714545      2239.4176      312.79188      8183.8405      1.228217       0.73000593   
     43100  -4783.1828     -4824.1337      40.950858      6716.0527      314.60737      8132.2255      1.2360124      0.73000593   
     43200  -4782.1301     -4824.4441      42.314056      7362.7884      325.08022      8078.0125      1.2443075      0.73000593   
     43300  -4783.1936     -4825.3896      42.195972      3357.5489      324.17304      8033.6842      1.2511734      0.73000593   
     43400  -4784.0502     -4825.4647      41.414494      6110.0784      318.16928      8004.9282      1.2556679      0.73000593   
     43500  -4783.2285     -4826.3019      43.07339       6209.5504      330.91385      7992.6046      1.257604       0.73000593   
     43600  -4784.0538     -4824.9658      40.911957      7159.1374      314.30851      8001.4904      1.2562074      0.73000593   
     43700  -4785.2764     -4825.3408      40.064363      7284.989       307.79682      8033.8143      1.2511531      0.73000593   
     43800  -4784.4526     -4823.9476      39.494993      4927.1289      303.4226       8081.0544      1.2438391      0.73000593   
     43900  -4783.8716     -4823.8716      40.000001      1886.5575      307.30235      8140.8422      1.2347042      0.73000593   
     44000  -4784.1457     -4823.9126      39.766977      5633.839       305.51214      8202.2623      1.2254585      0.70639066   
     44100  -4783.865      -4824.7772      40.912277      1849.2075      314.31097      8251.8274      1.2180977      0.70639066   
     44200  -4785.3377     -4824.351       39.013261      4841.0706      299.72167      8278.9464      1.2141076      0.70639066   
     44300  -4784.3746     -4824.9947      40.620117      1773.6182      312.06644      8282.701       1.2135572      0.70639066   
     44400  -4785.227      -4825.0119      39.784983      1348.1914      305.65047      8265.9977      1.2160095      0.70639066   
     44500  -4786.7783     -4825.0243      38.246041      2895.8855      293.82746      8228.8676      1.2214963      0.70639066   
     44600  -4786.0016     -4825.1794      39.17773       5590.7792      300.98521      8175.5626      1.2294606      0.70639066   
     44700  -4786.7111     -4826.2106      39.499564      5744.6497      303.45772      8116.2132      1.2384509      0.70639066   
     44800  -4785.4399     -4825.8811      40.441188      5281.3311      310.6918       8056.6206      1.2476114      0.70639066   
     44900  -4785.3352     -4825.8733      40.538137      6654.048       311.43662      8012.5736      1.2544698      0.70639066   
     45000  -4784.34       -4825.2341      40.89409       7641.1682      314.17125      7994.6404      1.2572838      0.70738349   
     45100  -4784.0402     -4824.1141      40.073986      3115.1752      307.87075      8004.6075      1.2557183      0.70738349   
     45200  -4784.4515     -4826.0122      41.560736      4918.153       319.2928       8035.5966      1.2508756      0.70738349   
     45300  -4785.6423     -4824.4899      38.847633      4422.3989      298.44922      8077.9568      1.2443161      0.70738349   
     45400  -4786.3874     -4825.5148      39.127454      3004.5394      300.59896      8124.473       1.2371918      0.70738349   
     45500  -4785.9917     -4826.1878      40.196081      2211.8757      308.80875      8164.2745      1.2311604      0.70738349   
     45600  -4783.6089     -4823.7855      40.17663       3993.2206      308.65932      8191.5011      1.2270683      0.70738349   
     45700  -4783.2234     -4823.2107      39.987255      2805.6795      307.20444      8211.4443      1.2240881      0.70738349   
     45800  -4784.263      -4823.3977      39.134718      5418.2183      300.65477      8222.3453      1.2224653      0.70738349   
     45900  -4785.0483     -4825.3892      40.340899      3790.2736      309.92133      8225.4688      1.2220011      0.70738349   
     46000  -4783.621      -4824.0033      40.382266      4792.4182      310.23913      8211.8021      1.2240348      0.77835408   
     46100  -4783.2452     -4823.1942      39.949019      5007.4183      306.91068      8186.6312      1.2277983      0.77835408   
     46200  -4782.6517     -4822.5543      39.902665      3425.8537      306.55457      8154.3641      1.2326567      0.77835408   
     46300  -4783.2328     -4824.1458      40.913022      5351.8501      314.3167       8125.3209      1.2370627      0.77835408   
     46400  -4782.422      -4822.5059      40.083883      5967.0297      307.94679      8099.1354      1.2410623      0.77835408   
     46500  -4782.2879     -4822.8172      40.529208      5542.6345      311.36802      8084.3443      1.2433329      0.77835408   
     46600  -4783.071      -4824.1592      41.088248      4309.6452      315.66288      8081.6335      1.24375        0.77835408   
     46700  -4783.6414     -4825.4725      41.831124      4979.8337      321.37007      8087.9928      1.2427721      0.77835408   
     46800  -4784.316      -4824.4506      40.134616      6464.4483      308.33655      8103.8845      1.240335       0.77835408   
     46900  -4784.9463     -4826.3008      41.35451       6230.2692      317.70846      8124.8251      1.2371382      0.77835408   
     47000  -4783.9921     -4825.2402      41.248096      3361.1506      316.89092      8148.9173      1.2334806      0.79899375   
     47100  -4784.5118     -4825.4723      40.960473      6182.8874      314.68124      8175.426       1.2294811      0.79899375   
     47200  -4784.1433     -4823.8131      39.669826      4015.7103      304.76577      8203.8115      1.225227       0.79899375   
     47300  -4784.2227     -4823.4253      39.202676      6271.2739      301.17686      8229.4303      1.2214128      0.79899375   
     47400  -4784.1333     -4825.405       41.271702      3720.6509      317.07228      8243.7674      1.2192886      0.79899375   
     47500  -4784.0035     -4824.1812      40.177684      1147.9696      308.66742      8237.6413      1.2201954      0.79899375   
     47600  -4782.1231     -4824.4514      42.328295      3810.3542      325.18961      8215.3634      1.2235042      0.79899375   
     47700  -4781.5435     -4822.9628      41.419267      4879.5475      318.20595      8181.3955      1.228584       0.79899375   
     47800  -4783.7267     -4824.4247      40.698042      2360.1201      312.6651       8143.8153      1.2342534      0.79899375   
     47900  -4783.5049     -4823.8682      40.363338      5765.8414      310.09372      8104.5254      1.2402369      0.79899375   
     48000  -4783.6699     -4825.1567      41.486786      4436.9385      318.72467      8069.2658      1.2456563      0.77122506   
     48100  -4784.2048     -4824.9142      40.709387      1966.4822      312.75226      8041.5469      1.24995        0.77122506   
     48200  -4784.4561     -4825.9429      41.486873      6046.5903      318.72534      8027.6958      1.2521067      0.77122506   
     48300  -4784.2494     -4824.4805      40.231173      5464.647       309.07835      8029.3867      1.251843       0.77122506   
     48400  -4784.4372     -4825.6516      41.21441       4200.0856      316.63212      8050.9782      1.2484858      0.77122506   
     48500  -4785.1159     -4826.7405      41.62458       2210.7735      319.78328      8082.0902      1.2436797      0.77122506   
     48600  -4785.6362     -4823.8071      38.170883      3363.943       293.25005      8115.7162      1.2385268      0.77122506   
     48700  -4785.6928     -4825.5777      39.884937      4366.5174      306.41837      8150.5212      1.2332379      0.77122506   
     48800  -4784.7188     -4825.1275      40.408722      1095.3801      310.44238      8184.5214      1.2281148      0.77122506   
     48900  -4784.8634     -4824.7416      39.878192      2657.6502      306.36656      8215.008       1.2235571      0.77122506   
     49000  -4784.3587     -4824.5938      40.235113      5479.8291      309.10862      8230.0136      1.2213262      0.71090003   
     49100  -4784.7427     -4824.5736      39.830858      4028.1216      306.00291      8225.3031      1.2220257      0.71090003   
     49200  -4785.2546     -4825.4292      40.174592      1496.2824      308.64366      8200.7674      1.2256818      0.71090003   
     49300  -4785.1619     -4824.1338      38.971927      1944.1657      299.40412      8160.6828      1.2317023      0.71090003   
     49400  -4786.1841     -4826.7431      40.559027      1239.8222      311.59711      8115.8761      1.2385024      0.71090003   
     49500  -4785.9377     -4826.021       40.083254      2637.4019      307.94195      8067.3944      1.2459452      0.71090003   
     49600  -4785.6625     -4825.6524      39.989882      3051.1942      307.22462      8026.7485      1.2522545      0.71090003   
     49700  -4786.3507     -4827.6228      41.272051      4438.5965      317.07496      8005.9626      1.2555057      0.71090003   
     49800  -4785.7476     -4826.1031      40.355574      8047.3053      310.03407      8005.8072      1.2555301      0.71090003   
     49900  -4785.3991     -4826.1932      40.794092      5802.2281      313.40301      8027.2198      1.2521809      0.71090003   
     50000  -4785.5216     -4824.7201      39.198572      3400.4266      301.14533      8066.7195      1.2460495      0.70109545   
     50100  -4786.6155     -4825.748       39.132494      2752.5098      300.63768      8111.8386      1.2391188      0.70109545   
     50200  -4785.2903     -4826.1437      40.853417      1896.3306      313.85878      8151.573       1.2330788      0.70109545   
     50300  -4784.6126     -4825.0423      40.429709      3667.0023      310.60362      8183.1699      1.2283176      0.70109545   
     50400  -4782.7986     -4824.1658      41.367227      7178.824       317.80615      8204.994       1.2250505      0.70109545   
     50500  -4784.2783     -4824.1061      39.827829      3569.5329      305.97964      8216.6064      1.2233191      0.70109545   
     50600  -4784.0429     -4823.3938      39.350839      3090.4463      302.31513      8215.6248      1.2234653      0.70109545   
     50700  -4783.373      -4823.2211      39.848118      4433.0966      306.13551      8199.9311      1.2258069      0.70109545   
     50800  -4783.1436     -4822.53        39.386402      4011.0949      302.58835      8174.0932      1.2296816      0.70109545   
     50900  -4784.0947     -4826.202       42.10729       5941.386       323.49173      8147.055       1.2337626      0.70109545   
     51000  -4783.6785     -4824.2706      40.592065      6019.1764      311.85092      8119.6908      1.2379205      0.80766587   
     51100  -4784.3465     -4824.7186      40.372055      2293.2483      310.16069      8093.9275      1.2418609      0.80766587   
     51200  -4783.0537     -4825.104       42.050228      3134.9954      323.05335      8074.8596      1.2447934      0.80766587   
     51300  -4783.7495     -4825.0513      41.301808      3977.6348      317.30357      8069.3516      1.245643       0.80766587   
     51400  -4783.188      -4825.9034      42.715341      2731.1458      328.16312      8074.0479      1.2449185      0.80766587   
     51500  -4784.4516     -4825.0068      40.555144      5137.1118      311.56728      8086.6627      1.2429765      0.80766587   
     51600  -4784.3546     -4824.9203      40.565626      2093.556       311.6478       8102.3127      1.2405756      0.80766587   
     51700  -4786.7048     -4824.7642      38.059421      2773.2868      292.39374      8118.1556      1.2381546      0.80766587   
     51800  -4786.9017     -4825.302       38.400357      3862.7855      295.013        8129.1632      1.236478       0.80766587   
     51900  -4786.4337     -4827.447       41.01337       5057.6176      315.08762      8133.1273      1.2358754      0.80766587   
     52000  -4785.2691     -4826.364       41.094876      4772.7954      315.7138       8128.6563      1.2365551      0.71841586   
     52100  -4784.8307     -4825.0823      40.251567      2957.0474      309.23503      8117.6412      1.2382331      0.71841586   
     52200  -4784.3076     -4824.8999      40.592285      1646.6608      311.85262      8103.203       1.2404393      0.71841586   
     52300  -4784.5917     -4824.5811      39.989478      3323.7616      307.22152      8091.2204      1.2422763      0.71841586   
     52400  -4785.1161     -4824.8931      39.77693       1578.9771      305.5886       8076.8482      1.2444869      0.71841586   
     52500  -4785.3977     -4825.3902      39.992469      4571.9069      307.24449      8063.3811      1.2465654      0.71841586   
     52600  -4785.7293     -4825.9786      40.249326      5492.3516      309.21781      8057.3592      1.247497       0.71841586   
     52700  -4784.0068     -4823.6738      39.66693       6546.2612      304.74352      8060.2252      1.2470535      0.71841586   
     52800  -4785.0007     -4826.8294      41.828677      2514.3204      321.35127      8077.1302      1.2444434      0.71841586   
     52900  -4785.0609     -4825.0722      40.011288      5932.2138      307.38907      8101.6327      1.2406798      0.71841586   
     53000  -4783.3576     -4824.737       41.379483      3360.787       317.90031      8125.744       1.2369983      0.69355955   
     53100  -4784.4217     -4825.9845      41.562806      971.01145      319.3087       8145.3199      1.2340254      0.69355955   
     53200  -4783.1665     -4824.9838      41.81733       5003.2048      321.2641       8160.1714      1.2317795      0.69355955   
     53300  -4783.0773     -4824.5461      41.468827      4298.6963      318.5867       8168.8527      1.2304704      0.69355955   
     53400  -4783.8718     -4825.7063      41.834529      1542.3065      321.39623      8173.8799      1.2297137      0.69355955   
     53500  -4782.9843     -4824.4883      41.504027      4936.1251      318.85713      8169.804       1.2303271      0.69355955   
     53600  -4784.3483     -4824.0576      39.709246      5007.5559      305.06862      8159.8577      1.2318268      0.69355955   
     53700  -4783.5818     -4824.3213      40.739522      3832.8742      312.98377      8146.4427      1.2338553      0.69355955   
     53800  -4785.1375     -4826.045       40.907517      1484.8243      314.2744       8129.1599      1.2364785      0.69355955   
     53900  -4784.8741     -4825.5698      40.695693      4952.6245      312.64705      8105.8674      1.2400316      0.69355955   
     54000  -4784.8787     -4826.1675      41.288873      6057.7902      317.20419      8080.3449      1.2439483      0.70747852   
     54100  -4783.6617     -4824.2505      40.588795      2392.2665      311.8258       8053.8924      1.248034       0.70747852   
     54200  -4784.3881     -4823.8113      39.423116      6526.2479      302.8704       8036.1159      1.2507948      0.70747852   
     54300  -4786.1533     -4826.2637      40.110375      5878.2774      308.15031      8034.1394      1.2511025      0.70747852   
     54400  -4786.9937     -4827.1532      40.159497      5343.3492      308.52769      8045.5106      1.2493342      0.70747852   
     54500  -4786.8662     -4826.2282      39.362044      7439.1634      302.40121      8065.2503      1.2462765      0.70747852   
     54600  -4787.101      -4826.7013      39.600361      5948.3072      304.2321       8091.757       1.242194       0.70747852   
     54700  -4787.071      -4827.211       40.139997      4669.7608      308.37789      8122.022       1.2375652      0.70747852   
     54800  -4788.1014     -4827.883       39.781657      3307.6915      305.62491      8153.1884      1.2328345      0.70747852   
     54900  -4787.7587     -4825.3369      37.578226      2291.6684      288.69693      8179.0922      1.22893        0.70747852   
     55000  -4787.7282     -4826.5645      38.836272     -444.67069      298.36194      8195.3026      1.2264991      0.72967889   
     55100  -4788.2364     -4827.0991      38.862722      3499.3707      298.56514      8192.1002      1.2269786      0.72967889   
     55200  -4787.0298     -4826.3211      39.291265      1094.5058      301.85745      8176.971       1.2292488      0.72967889   
     55300  -4787.4497     -4826.6319      39.182203      4044.742       301.01958      8150.1743      1.2332904      0.72967889   
     55400  -4788.4793     -4826.6878      38.208455      5539.6608      293.5387       8115.0975      1.2386212      0.72967889   
     55500  -4788.728      -4827.2253      38.497292      3947.0647      295.75771      8080.5626      1.2439148      0.72967889   
     55600  -4788.4727     -4827.6773      39.204564     -132.66943      301.19136      8051.745       1.2483669      0.72967889   
[...]
    386300  -4787.3493     -4826.63        39.28076      -1270.7672      301.77675      8062.7738      1.2466593      0.78006212   
    386400  -4787.71       -4825.786       38.076025      1104.6472      292.5213       8070.4601      1.245472       0.78006212   
    386500  -4786.6362     -4827.0482      40.412055      6535.1265      310.46799      8072.6325      1.2451368      0.78006212   
    386600  -4786.3969     -4826.5618      40.16492       2601.0762      308.56936      8072.3909      1.245174       0.78006212   
    386700  -4785.1079     -4825.6126      40.504677      1048.7528      311.17956      8070.3778      1.2454847      0.78006212   
    386800  -4784.9288     -4826.0798      41.15093       5639.8895      316.14443      8068.15        1.2458286      0.78006212   
    386900  -4784.1002     -4823.7282      39.627992      3725.8391      304.44438      8069.1263      1.2456778      0.78006212   
    387000  -4784.4355     -4825.0957      40.660172      2788.1499      312.37416      8074.8098      1.244801       0.74336289   
    387100  -4784.7125     -4824.0432      39.330659      4964.5404      302.1601       8081.2194      1.2438137      0.74336289   
    387200  -4783.9097     -4824.5121      40.602404      2034.6449      311.93036      8087.7788      1.242805       0.74336289   
    387300  -4785.5521     -4826.7517      41.199623      6423.2898      316.51852      8094.5762      1.2417613      0.74336289   
    387400  -4785.8279     -4826.489       40.661109      3670.8467      312.38136      8105.4882      1.2400896      0.74336289   
    387500  -4785.4132     -4825.8105      40.39729       4848.7511      310.35455      8112.2542      1.2390553      0.74336289   
    387600  -4784.7022     -4825.3323      40.630105      5729.2473      312.14317      8115.3476      1.238583       0.74336289   
    387700  -4785.3861     -4824.7703      39.384284      7611.6868      302.57208      8115.2632      1.2385959      0.74336289   
    387800  -4785.1682     -4825.066       39.897837     -233.23341      306.51748      8114.9141      1.2386492      0.74336289   
    387900  -4784.238      -4825.1905      40.952459      4588.408       314.61967      8111.1224      1.2392282      0.74336289   
    388000  -4785.8662     -4825.4309      39.564654      5054.2315      303.95778      8103.1024      1.2404547      0.73357493   
    388100  -4785.6538     -4824.6062      38.952405      6614.7859      299.25414      8099.7181      1.240973       0.73357493   
    388200  -4783.7432     -4825.4721      41.728929      7504.1983      320.58495      8103.0616      1.240461       0.73357493   
    388300  -4784.9471     -4826.585       41.637857      7521.4854      319.88528      8108.4952      1.2396297      0.73357493   
    388400  -4785.1002     -4825.1206      40.020459      1723.0266      307.45953      8111.7158      1.2391376      0.73357493   
    388500  -4785.3945     -4824.9031      39.508632      1619.8993      303.52739      8110.3198      1.2393508      0.73357493   
    388600  -4785.266      -4827.0219      41.755969      3220.7128      320.79269      8104.6612      1.2402161      0.73357493   
    388700  -4784.5531     -4825.6695      41.11641       4860.2346      315.87923      8093.5271      1.2419223      0.73357493   
    388800  -4784.9035     -4824.6017      39.698199      3506.0739      304.98374      8079.4591      1.2440847      0.73357493   
    388900  -4784.7275     -4825.4727      40.745166      6086.6083      313.02713      8066.1458      1.2461381      0.73357493   
    389000  -4784.9009     -4825.856       40.955057      4265.8311      314.63963      8057.6595      1.2474505      0.8008941    
    389100  -4784.657      -4824.7618      40.104879      7545.4657      308.10809      8054.1784      1.2479897      0.8008941    
    389200  -4785.6701     -4825.5362      39.866104      4053.0189      306.27368      8058.7855      1.2472762      0.8008941    
    389300  -4785.3013     -4825.5778      40.276569      6026.8853      309.42711      8064.9002      1.2463306      0.8008941    
    389400  -4786.976      -4827.3951      40.419051      3337.3296      310.52173      8071.755       1.2452722      0.8008941    
    389500  -4786.7285     -4825.2534      38.524941      4644.8761      295.97012      8080.4546      1.2439315      0.8008941    
    389600  -4786.5143     -4825.4014      38.887081      5956.9734      298.75229      8090.5477      1.2423796      0.8008941    
    389700  -4787.0948     -4826.6549      39.560027      5457.3174      303.92223      8096.0321      1.241538       0.8008941    
    389800  -4787.4745     -4826.7049      39.230439      5613.3861      301.39015      8094.9454      1.2417047      0.8008941    
    389900  -4785.3981     -4825.4988      40.100763      2411.7806      308.07647      8086.7028      1.2429703      0.8008941    
    390000  -4785.6501     -4827.6622      42.01205       4485.344       322.76004      8080.7542      1.2438853      0.73559373   
    390100  -4784.9591     -4824.6904      39.731285      5149.7375      305.23793      8075.6032      1.2446787      0.73559373   
    390200  -4783.8911     -4825.6426      41.751501      2634.027       320.75836      8068.7907      1.2457296      0.73559373   
    390300  -4783.7195     -4825.0466      41.327086      5825.819       317.49777      8064.4636      1.246398       0.73559373   
    390400  -4784.453      -4824.2421      39.789082      5248.5974      305.68196      8067.0723      1.245995       0.73559373   
    390500  -4783.8548     -4825.4202      41.565415      1769.254       319.32875      8075.4729      1.2446988      0.73559373   
    390600  -4782.0277     -4823.0577      41.030046      5522.0346      315.21574      8086.4075      1.2430157      0.73559373   
    390700  -4782.7098     -4823.3436      40.63371       5462.358       312.17087      8100.6556      1.2408294      0.73559373   
    390800  -4782.7924     -4823.7091      40.916702      4707.2237      314.34497      8112.9353      1.2389513      0.73559373   
    390900  -4782.4579     -4823.5112      41.053314      7222.3455      315.3945       8127.2047      1.236776       0.73559373   
    391000  -4781.7794     -4823.7249      41.945478      6248.0875      322.2486       8139.9157      1.2348447      0.67334377   
    391100  -4784.3931     -4824.7082      40.315157      1706.6363      309.72357      8146.2439      1.2338854      0.67334377   
    391200  -4783.6148     -4824.5924      40.977601      3830.2142      314.81283      8141.4686      1.2346092      0.67334377   
    391300  -4783.6661     -4825.2342      41.56814       1989.2547      319.34968      8130.7699      1.2362337      0.67334377   
    391400  -4782.7815     -4823.4177      40.636135      260.30751      312.1895       8111.7073      1.2391389      0.67334377   
    391500  -4781.8108     -4825.8906      44.079751      6162.6658      338.64528      8093.9482      1.2418577      0.67334377   
    391600  -4783.2794     -4823.5119      40.232444      4012.3856      309.08811      8080.6301      1.2439044      0.67334377   
    391700  -4782.1123     -4822.8613      40.749         5984.5223      313.05658      8070.4846      1.2454682      0.67334377   
    391800  -4781.2714     -4824.2396      42.968214      4780.455       330.10583      8071.6712      1.2452851      0.67334377   
    391900  -4781.0677     -4823.3034      42.23561       2731.4968      324.47755      8090.5817      1.2423744      0.67334377   
    392000  -4782.7892     -4822.8683      40.079048      2868.0997      307.90964      8121.4238      1.2376563      0.78596758   
    392100  -4784.0866     -4824.5908      40.504145      2169.7501      311.17547      8158.8264      1.2319825      0.78596758   
    392200  -4784.3276     -4827.1678      42.840203      4641.9174      329.12238      8192.5668      1.2269087      0.78596758   
    392300  -4783.6231     -4825.2447      41.621578      5098.1284      319.76022      8213.7326      1.2237471      0.78596758   
    392400  -4784.0004     -4823.7776      39.777191      966.08839      305.5906       8218.3147      1.2230648      0.78596758   
    392500  -4783.2374     -4824.2214      40.984027      1897.3997      314.8622       8204.5344      1.2251191      0.78596758   
    392600  -4783.4635     -4824.3975      40.934023      4566.5892      314.47804      8172.341       1.2299452      0.78596758   
    392700  -4784.2522     -4824.7942      40.542018      8875.387       311.46643      8127.268       1.2367664      0.78596758   
    392800  -4784.2542     -4825.897       41.642883      8547.5111      319.9239       8077.7236      1.244352       0.78596758   
    392900  -4785.387      -4825.454       40.067074      5467.5567      307.81765      8032.2576      1.2513956      0.78596758   
    393000  -4785.7704     -4826.843       41.072553      1763.9873      315.5423       8001.0923      1.2562699      0.74216032   
    393100  -4785.4837     -4824.6738      39.190068      6888.8155      301.08         7983.8659      1.2589805      0.74216032   
    393200  -4784.8077     -4825.4805      40.672858      3555.8871      312.47162      7984.9767      1.2588054      0.74216032   
    393300  -4784.6902     -4824.1234      39.433109      3793.5489      302.94718      8000.1252      1.2564218      0.74216032   
    393400  -4786.4329     -4827.482       41.04903       4195.441       315.36159      8028.279       1.2520157      0.74216032   
    393500  -4785.5162     -4826.3728      40.856591      3326.7473      313.88316      8064.3937      1.2464088      0.74216032   
    393600  -4784.5537     -4824.1574      39.603793      2375.2533      304.25847      8102.1987      1.2405931      0.74216032   
    393700  -4784.0221     -4824.1916      40.169565      4476.5039      308.60504      8146.6734      1.2338204      0.74216032   
    393800  -4784.9973     -4824.9197      39.922461      2817.3166      306.70665      8188.3039      1.2275475      0.74216032   
    393900  -4785.6466     -4826.5082      40.861597      3263.1681      313.92162      8216.817       1.2232878      0.74216032   
    394000  -4787.3797     -4826.1348      38.755132      1406.3652      297.73858      8222.2597      1.222478       0.69646753   
    394100  -4787.0372     -4826.414       39.376795      73.637889      302.51454      8198.6678      1.2259957      0.69646753   
    394200  -4785.5192     -4825.9616      40.442428      3979.0669      310.70133      8152.1359      1.2329936      0.69646753   
    394300  -4785.9284     -4826.3428      40.414393      5503.5678      310.48595      8095.868       1.2415632      0.69646753   
    394400  -4784.2888     -4824.2077      39.918875      7602.8433      306.6791       8039.4501      1.250276       0.69646753   
    394500  -4785.1645     -4826.0706      40.906137      3648.8187      314.2638       7995.7929      1.2571026      0.69646753   
    394600  -4785.8783     -4826.7233      40.844955      3178.654       313.79377      7973.2547      1.260656       0.69646753   
    394700  -4785.3394     -4825.3615      40.022043      4092.3722      307.47169      7972.0736      1.2608428      0.69646753   
    394800  -4784.9954     -4824.0987      39.103257      7858.5171      300.41307      7991.984       1.2577017      0.69646753   
    394900  -4785.057      -4826.7425      41.685551      6280.7695      320.2517       8029.0642      1.2518933      0.69646753   
    395000  -4786.3903     -4825.8948      39.504457      6668.4063      303.49531      8082.6772      1.2435894      0.69430401   
    395100  -4786.709      -4824.7431      38.0341        5941.904       292.19921      8143.1331      1.2343568      0.69430401   
    395200  -4786.6845     -4825.8245      39.140019      2810.8781      300.69549      8195.8633      1.2264152      0.69430401   
    395300  -4787.7587     -4826.8567      39.098051      430.72992      300.37307      8226.8491      1.221796       0.69430401   
    395400  -4787.7448     -4825.1604      37.415514      616.62823      287.44688      8233.7504      1.220772       0.69430401   
    395500  -4785.0184     -4825.8422      40.823812      237.46052      313.63134      8218.5521      1.2230295      0.69430401   
    395600  -4785.9398     -4825.7658      39.82596       4796.3924      305.96528      8185.6395      1.227947       0.69430401   
    395700  -4783.6695     -4824.3323      40.662838      4607.2386      312.39465      8141.5922      1.2345904      0.69430401   
    395800  -4783.2808     -4823.5442      40.263376      3611.6699      309.32575      8095.25        1.241658       0.69430401   
    395900  -4784.0644     -4826.218       42.153527      4025.4199      323.84695      8050.9447      1.248491       0.69430401   
    396000  -4784.7822     -4824.435       39.652774      4513.3727      304.63477      8019.755       1.2533465      0.74577796   
    396100  -4785.0752     -4825.1275      40.0523        5013.0302      307.70415      8007.6386      1.2552429      0.74577796   
    396200  -4783.6348     -4825.2317      41.596945      5819.6922      319.57098      8014.4342      1.2541786      0.74577796   
    396300  -4781.4395     -4824.0699      42.630398      4570.4315      327.51054      8039.9403      1.2501998      0.74577796   
    396400  -4782.6473     -4823.9303      41.282995      2517.7554      317.15904      8078.4314      1.244243       0.74577796   
    396500  -4783.4229     -4823.7409      40.317994      5222.269       309.74536      8120.7694      1.2377561      0.74577796   
    396600  -4783.3725     -4824.3038      40.931305      2995.5439      314.45716      8156.0999      1.2323944      0.74577796   
    396700  -4783.2169     -4824.3252      41.108302      1845.3258      315.81695      8182.5151      1.2284159      0.74577796   
    396800  -4784.2959     -4825.2682      40.972255      4597.3737      314.77176      8193.1969      1.2268144      0.74577796   
    396900  -4781.7352     -4823.5186      41.78344       4464.8743      321.00373      8187.1962      1.2277135      0.74577796   
    397000  -4782.2574     -4823.7912      41.533781      4554.6884      319.08572      8170.397       1.2302379      0.70445695   
    397100  -4782.5466     -4823.3305      40.783971      3844.3546      313.32526      8145.7546      1.2339595      0.70445695   
    397200  -4783.1507     -4824.3292      41.178529      885.42789      316.35647      8116.1636      1.2384585      0.70445695   
    397300  -4784.5188     -4824.9088      40.38996       2172.1803      310.29824      8081.0729      1.2438363      0.70445695   
    397400  -4783.6069     -4824.9174      41.310486      7366.4519      317.37024      8046.7988      1.2491342      0.70445695   
    397500  -4784.046      -4825.5249      41.478918      3431.9685      318.66423      8023.1153      1.2528215      0.70445695   
    397600  -4782.9335     -4825.0233      42.089853      4623.1809      323.35777      8012.9108      1.254417       0.70445695   
    397700  -4783.3611     -4823.0779      39.716811      3524.5395      305.12673      8018.8461      1.2534885      0.70445695   
    397800  -4786.1122     -4825.912       39.799828      1542.73        305.76452      8044.2667      1.2495274      0.70445695   
    397900  -4786.7738     -4826.2611      39.487291      7549.1643      303.36343      8080.7319      1.2438888      0.70445695   
    398000  -4787.1115     -4827.2878      40.176329      3127.5094      308.65701      8120.7238      1.237763       0.78321146   
    398100  -4785.513      -4825.7801      40.267097      1469.8393      309.35434      8157.2431      1.2322217      0.78321146   
    398200  -4785.5088     -4826.9145      41.405635      2627.354       318.10123      8186.1986      1.2278632      0.78321146   
    398300  -4785.0108     -4824.7594      39.748578      1569.4043      305.37079      8197.9479      1.2261034      0.78321146   
    398400  -4785.4706     -4825.5065      40.035946     -1204.6572      307.57851      8191.2844      1.2271008      0.78321146   
    398500  -4785.9419     -4825.5875      39.645587      5062.8249      304.57955      8167.5693      1.2306638      0.78321146   
    398600  -4784.8192     -4825.6041      40.784961      2353.2926      313.33286      8131.2238      1.2361647      0.78321146   
    398700  -4785.4527     -4826.1846      40.731903      1568.9484      312.92524      8087.3785      1.2428665      0.78321146   
    398800  -4785.4835     -4826.0921      40.608594      1150.7928      311.97791      8041.8983      1.2498954      0.78321146   
    398900  -4786.4246     -4827.3404      40.915772      922.35154      314.33782      8000.0832      1.2564284      0.78321146   
    399000  -4786.534      -4826.2459      39.711892      5911.0198      305.08895      7964.7034      1.2620095      0.67800932   
    399100  -4788.0897     -4828.3166      40.226937      8216.1928      309.0458       7944.4498      1.2652269      0.67800932   
    399200  -4788.7422     -4829.5198      40.777603      5236.3311      313.27633      7941.8541      1.2656404      0.67800932   
    399300  -4786.949      -4827.4478      40.498798      4591.9704      311.13439      7960.9862      1.2625988      0.67800932   
    399400  -4787.185      -4826.8563      39.67128       3189.7459      304.77694      8001.5519      1.2561978      0.67800932   
    399500  -4787.2553     -4826.0079      38.752588      2971.555       297.71903      8056.8941      1.2475691      0.67800932   
    399600  -4787.8215     -4828.1946      40.373008      2617.0446      310.16801      8115.4715      1.2385641      0.67800932   
    399700  -4787.2411     -4826.3629      39.121893      2779.8539      300.55624      8165.589       1.2309622      0.67800932   
    399800  -4787.1287     -4826.9701      39.841372      669.24196      306.08368      8202.494       1.2254238      0.67800932   
    399900  -4785.92       -4825.5379      39.617863      2668.0916      304.36656      8220.6997      1.22271        0.67800932   
    400000  -4785.9615     -4826.8848      40.923294      3235.74        314.39561      8215.2093      1.2235272      0.75368547   
    400100  -4785.5294     -4825.2573      39.727889      1901.1415      305.21184      8188.2088      1.2275617      0.75368547   
    400200  -4785.5879     -4825.4608      39.872906      1682.4939      306.32594      8141.9918      1.2345298      0.75368547   
    400300  -4785.932      -4825.1018      39.169772      2095.8113      300.92407      8086.8882      1.2429418      0.75368547   
    400303  -4785.7039     -4824.6083      38.904363      2247.2323      298.88505      8085.2381      1.2431955      0.75368547   
Loop time of 549.247 on 2 procs for 200000 steps with 1008 atoms

Performance: 15.731 ns/day, 1.526 hours/ns, 364.135 timesteps/s, 367.048 katom-step/s
99.0% CPU use with 2 MPI tasks x 1 OpenMP threads

MPI task timing breakdown:
Section |  min time  |  avg time  |  max time  |%varavg| %total
---------------------------------------------------------------
Pair    | 293.67     | 296.36     | 299.06     |  15.6 | 53.96
Neigh   | 7.7277     | 7.8338     | 7.9399     |   3.8 |  1.43
Comm    | 41.415     | 45.445     | 49.475     |  59.8 |  8.27
Output  | 0.30273    | 3.2787     | 6.2546     | 164.4 |  0.60
Modify  | 189.7      | 193.94     | 198.19     |  30.5 | 35.31
Other   |            | 2.381      |            |       |  0.43

Nlocal:            504 ave         506 max         502 min
Histogram: 1 0 0 0 0 0 0 0 0 1
Nghost:         2654.5 ave        2655 max        2654 min
Histogram: 1 0 0 0 0 0 0 0 0 1
Neighs:              0 ave           0 max           0 min
Histogram: 2 0 0 0 0 0 0 0 0 0
FullNghs:        72683 ave       72862 max       72504 min
Histogram: 1 0 0 0 0 0 0 0 0 1

Total # of neighbors = 145366
Ave neighs/atom = 144.2123
Neighbor list builds = 19995
Dangerous builds = 19970

unfix		3
unfix		4
Total wall time: 0:18:13
