ITEM: TIMESTEP
0
ITEM: NUMBER OF ATOMS
2016
ITEM: BOX BOUNDS xy xz yz pp pp pp
-6.8498979999999996e+00 1.8110240684176350e+01 -2.6501799999999998e-01
0.0000000000000000e+00 4.7400016000000001e+01 -6.5848800000000001e+00
0.0000000000000000e+00 1.9351393735915138e+01 9.6884999999999999e-02
ITEM: ATOMS id type x y z f_pace_gamma
160 2 1.21619 1.97016 0.684162 0.501918
161 1 1.13439 1.16179 0.176843 0.44499
162 1 1.20881 2.66625 0.025528 0.498603
247 2 3.95154 1.76967 3.60043 0.486531
604 2 1.80392 3.67344 3.02046 0.361173
605 1 2.68982 3.41418 3.28255 0.44605
606 1 1.59788 3.10829 2.27386 0.355714
832 2 0.906914 0.280979 3.00534 0.332892
834 1 1.11198 0.981206 2.38405 0.337771
4 2 6.22332 0.885908 2.47738 0.371576
5 1 6.46682 0.089906 2.00333 0.389792
6 1 6.79792 1.56295 2.11675 0.4557
248 1 4.67347 1.2393 3.25827 0.381779
349 2 4.36628 1.25133 0.0962313 0.439848
350 1 5.24307 1.1924 0.368274 0.448932
351 1 4.18321 2.19014 0.0578643 0.443172
703 2 7.82463 3.00467 1.77734 0.419749
704 1 8.08268 3.83344 1.37248 0.547117
705 1 7.99678 3.12899 2.71315 0.350841
734 1 10.241 0.718987 1.88426 0.43812
892 2 10.4255 2.30703 0.916175 0.466709
893 1 10.9392 2.85903 1.50844 0.435385
894 1 9.51844 2.41701 1.20987 0.565024
532 2 12.6861 1.65861 3.53648 0.441798
533 1 13.5341 1.75544 3.09772 0.386859
534 1 12.2211 2.47384 3.345 0.506585
766 2 12.8537 0.807212 0.227804 0.321487
767 1 12.1065 1.2948 0.579681 0.354996
111 1 16.3402 3.3457 3.09142 0.332056
457 2 15.3317 1.39411 2.88518 0.402672
458 1 15.652 0.885304 2.13813 0.45446
459 1 15.4859 0.831134 3.6458 0.308259
468 1 0.054553 6.85622 1.90382 0.284945
307 2 2.06808 6.32744 2.1182 0.515768
308 1 2.60369 6.71367 2.814 0.36951
309 1 1.89655 5.43405 2.41687 0.435231
537 1 1.90819 7.05429 0.232035 0.442199
76 2 3.9805 4.08981 0.173644 0.397987
77 1 4.33485 4.84324 0.647756 0.449025
607 2 4.01003 7.94112 3.10173 0.405876
609 1 4.42513 7.33261 2.4882 0.33272
727 2 5.46506 6.10856 1.61855 0.509644
728 1 6.18148 5.9927 0.990635 0.311323
729 1 5.83446 5.8304 2.45922 0.523935
367 2 8.15779 7.89796 3.53731 0.37894
531 1 8.98645 6.33922 3.62791 0.360588
754 2 8.21292 5.43112 0.404433 0.377579
756 1 9.14103 5.65494 0.307689 0.463377
169 2 14.0196 5.40966 2.29278 0.358209
170 1 14.1944 5.30887 1.35461 0.385087
171 1 14.5474 4.78839 2.71669 0.385055
187 2 12.3855 7.90791 1.13579 0.375208
188 1 12.1134 7.1061 0.687822 0.319462
316 2 11.06 5.68789 0.045559 0.625714
317 1 11.4832 5.30136 0.814744 0.371868
652 2 11.7048 4.08554 2.6496 0.475213
653 1 12.4771 4.65235 2.60967 0.373468
654 1 11.0649 4.58346 3.16173 0.611413
109 2 16.5597 4.15329 2.62546 0.377065
110 1 16.9587 4.71338 3.29365 0.349285
466 2 17.3813 7.15687 1.49286 0.342287
691 2 15.1399 7.74431 3.06855 0.318656
692 1 14.6186 6.96007 2.89244 0.310303
693 1 15.93 7.63404 2.5351 0.329237
889 2 17.0945 4.7679 0.000726 0.400029
890 1 17.149 5.7066 0.180201 0.346441
891 1 16.8313 4.37927 0.837306 0.576182
83 1 -0.982373 11.8273 2.83433 0.362682
37 2 2.07429 9.65331 2.35722 0.387255
38 1 2.82463 9.14268 2.66694 0.372951
39 1 1.30846 9.19878 2.7134 0.357357
289 2 0.425614 11.507 3.81331 0.372979
290 1 1.02258 10.9158 3.35154 0.357094
441 1 2.9778 10.1816 0.760165 0.390196
223 2 6.53226 9.12824 1.67038 0.479433
224 1 5.94634 8.93912 0.93436 0.288499
225 1 6.18205 9.93258 2.05506 0.604475
608 1 4.74324 8.39654 3.51998 0.317348
912 1 4.10551 11.3971 3.76338 0.384677
1000 2 4.88789 11.4316 2.17156 0.486349
1002 1 5.66692 11.8052 2.58849 0.590284
368 1 8.62032 8.71144 3.74187 0.370664
369 1 7.55675 8.13313 2.82727 0.320857
550 2 8.70948 9.34269 0.236604 0.389258
551 1 8.0389 9.30701 0.922207 0.33201
552 1 9.50776 9.61402 0.69465 0.334382
976 2 10.7676 10.8205 1.39102 0.366425
977 1 10.6509 10.7036 2.3363 0.310173
978 1 10.6271 11.7562 1.24575 0.427722
189 1 13.2629 8.08931 0.792028 0.427179
217 2 11.194 8.45791 3.61142 0.380731
219 1 11.6228 8.33093 2.76235 0.466244
616 2 13.4534 11.3789 0.576059 0.373745
617 1 12.5728 11.1797 0.901168 0.40517
618 1 13.725 10.5856 0.112729 0.34277
997 2 14.1645 10.3318 3.06612 0.412072
998 1 14.401 9.40745 2.98727 0.400532
999 1 14.0077 10.617 2.16357 0.453299
275 1 15.504 8.94826 0.0802773 0.50173
370 2 17.086 9.95379 0.732077 0.427398
371 1 16.8079 10.6092 1.37386 0.395302
372 1 17.7815 10.3846 0.231402 0.724005
467 1 17.532 8.08556 1.31596 0.387871
124 2 -1.91897 2.4443 6.67728 0.316678
125 1 -1.28588 2.45009 5.95606 0.528559
211 2 0.030172 2.26421 4.74602 0.390111
213 1 -0.083374 1.45505 4.24613 0.406222
212 1 0.43748 2.87196 4.12654 0.287443
249 1 3.48754 1.18709 4.20419 0.377421
982 2 1.60231 1.39237 6.95599 0.485622
983 1 1.16741 1.7149 6.16399 0.468643
984 1 0.931625 0.872814 7.40304 0.514436
256 2 6.23313 1.72707 6.64199 0.381576
257 1 6.77607 2.21695 6.02154 0.349151
258 1 6.25 0.827399 6.31486 0.380518
938 1 4.36044 3.15086 5.22831 0.328418
120 1 10.3312 3.37729 6.56777 0.441292
634 2 7.84478 2.98068 4.55363 0.489978
635 1 8.16075 2.07756 4.51847 0.441936
636 1 8.51867 3.45035 5.04875 0.413542
763 2 9.15455 0.647675 4.95675 0.433589
764 1 9.51014 0.304909 4.13431 0.390756
765 1 9.90099 1.07536 5.38098 0.304253
43 2 14.0293 3.55517 5.07712 0.259965
45 1 13.4393 2.80838 4.96639 0.349277
86 1 12.5351 0.378153 4.63969 0.309318
775 2 11.1853 1.70051 6.60914 0.560336
776 1 11.8609 2.21197 7.05822 0.460264
777 1 11.6552 0.945575 6.25246 0.315548
126 1 15.476 2.95033 6.34768 0.39134
186 1 15.868 0.679043 5.95543 0.315565
53 1 -0.092805 7.55335 4.08246 0.302453
139 2 -0.437288 5.6686 4.56215 0.297096
141 1 -0.987757 5.70226 5.34753 0.609355
553 2 -1.98317 6.13031 6.86494 0.475358
554 1 -1.25087 6.42957 7.40785 0.527466
555 1 -2.46854 5.52596 7.42907 0.483014
103 2 1.90015 5.23139 5.9603 0.432543
104 1 2.66179 4.82209 5.54493 0.45175
105 1 1.81223 4.78008 6.802 0.36504
140 1 0.452751 5.54039 4.89738 0.481176
610 2 3.49339 7.23886 7.1163 0.319789
612 1 2.89505 6.71328 6.58215 0.275758
114 1 5.11563 4.85838 7.02256 0.503611
526 2 6.95911 7.00125 6.13056 0.378508
527 1 6.65053 6.81946 7.02079 0.311063
937 2 4.27868 4.09458 5.36611 0.293486
939 1 4.93728 4.47924 4.78429 0.47274
952 2 6.38164 5.22449 4.12343 0.39482
953 1 6.78756 4.4018 4.39882 0.3848
954 1 6.61558 5.84808 4.81287 0.296065
118 2 9.63885 4.01714 6.39418 0.44366
119 1 9.14713 4.0689 7.21667 0.365249
528 1 7.91483 6.93583 6.18899 0.31435
529 2 9.5399 5.64017 3.97927 0.3289
530 1 9.72263 5.90714 4.88254 0.379695
994 2 9.79321 7.12591 6.32895 0.472207
995 1 10.5192 6.84132 6.88799 0.450196
44 1 13.4654 4.32199 4.96791 0.311051
199 2 12.6167 6.13339 5.15988 0.294886
200 1 12.498 6.0337 6.10691 0.317246
201 1 13.196 6.83577 5.07131 0.336835
218 1 11.1381 7.57896 3.98725 0.347869
239 1 14.7369 7.94579 4.82269 0.315289
240 1 15.0941 7.44815 6.21089 0.482937
52 2 0.277398 8.43357 4.1537 0.368096
54 1 -0.441457 8.96762 4.49659 0.382534
291 1 -0.107924 10.9317 4.36425 0.402121
611 1 3.11689 8.11914 7.09956 0.452985
631 2 1.9402 9.51028 6.14741 0.291684
632 1 1.50649 8.9471 5.50395 0.467087
633 1 2.44354 10.1324 5.61966 0.335894
910 2 3.49436 11.5948 4.47626 0.359812
544 2 5.06068 10.0236 7.26185 0.377305
546 1 5.73761 10.6993 7.32388 0.357144
792 1 7.47304 10.1849 4.53245 0.309214
883 2 5.82698 9.29153 4.64353 0.477884
884 1 6.31914 8.54822 4.99476 0.381946
885 1 5.2439 9.553 5.35927 0.289098
661 2 9.4781 9.82271 6.91495 0.388806
662 1 10.1661 10.3977 7.25454 0.35949
663 1 9.29333 10.1596 6.03591 0.255275
790 2 8.31942 10.6282 4.61707 0.450294
791 1 8.17029 11.3036 5.2805 0.484266
996 1 9.86251 8.08047 6.31444 0.459164
136 2 12.9507 10.1469 6.59196 0.361719
137 1 13.5342 9.50135 6.19008 0.593332
138 1 12.3935 10.3715 5.89828 0.403172
238 2 14.49 8.02986 5.7462 0.315511
619 2 11.7989 11.0524 4.17499 0.440174
620 1 12.7179 11.1225 3.90743 0.300204
621 1 11.5799 10.1298 4.04329 0.417955
241 2 16.3306 10.058 4.87224 0.289545
242 1 15.9071 9.66662 5.63881 0.399944
243 1 15.6201 10.5047 4.40787 0.288745
172 2 -1.37894 2.83874 9.42082 0.427985
173 1 -1.56902 2.48448 8.54982 0.477443
174 1 -2.06579 2.47623 9.98398 0.533989
183 1 0.020378 1.98222 10.3661 0.35789
586 2 -3.11102 1.92762 11.5184 0.454623
626 1 0.091042 0.148931 9.14592 0.393129
181 2 0.625789 1.32608 10.7149 0.403193
182 1 1.49259 1.72917 10.6349 0.340026
670 2 2.29166 3.64043 8.20327 0.33411
671 1 2.29999 3.46861 9.14729 0.347454
672 1 1.87421 2.8675 7.82096 0.405018
741 1 3.53252 1.8061 7.95358 0.3603
921 1 3.75301 0.348143 9.9248 0.375773
1006 2 2.67382 3.08467 10.8692 0.328498
1007 1 2.1244 3.85712 11.0082 0.459642
1008 1 3.55219 3.43692 10.7116 0.323547
739 2 4.14062 1.19063 8.36643 0.424103
740 1 4.96627 1.31271 7.89276 0.336559
898 2 5.26635 3.68067 10.3849 0.398243
916 2 6.25281 1.09004 10.7251 0.538302
918 1 5.81578 1.92147 10.5378 0.545879
79 2 8.76707 1.64503 9.19902 0.519232
80 1 8.05338 1.26166 9.71277 0.368971
81 1 8.47564 2.53831 9.0149 0.584466
152 1 9.01817 0.461051 7.87068 0.348769
422 1 11.0026 2.13997 11.559 0.452
423 1 10.188 2.15996 10.3233 0.42737
142 2 12.6136 0.106335 9.82604 0.441233
143 1 11.9865 0.734714 10.1876 0.387218
421 2 11.0981 2.26774 10.6084 0.422638
679 2 12.916 2.82451 8.2627 0.405108
680 1 12.5939 2.31365 9.00756 0.396554
681 1 13.4863 3.48691 8.656 0.476629
644 1 14.5793 0.06209 9.29691 0.37829
147 1 -2.62812 4.22784 9.1783 0.350693
579 1 -2.9584 7.94685 11.517 0.320607
780 1 0.045986 4.21435 9.79834 0.493314
796 2 0.251248 7.19395 8.78862 0.412859
797 1 -0.172245 7.75258 9.44277 0.303718
778 2 0.577441 4.81945 10.3184 0.254872
779 1 0.493479 5.65934 9.86588 0.715741
798 1 1.04511 7.67118 8.53982 0.354748
112 2 5.29551 5.29024 7.85987 0.472284
113 1 4.58115 5.92131 7.96187 0.305823
300 1 4.18 7.38266 11.5113 0.332483
408 1 6.98007 7.8514 9.42817 0.350502
717 1 7.10286 4.47098 8.09748 0.329781
899 1 5.36142 4.1172 9.53619 0.333194
900 1 5.55826 4.33088 11.0258 0.357166
280 2 10.9517 5.06091 10.0644 0.326391
282 1 10.3618 4.94245 10.812 0.423734
715 2 7.88669 4.29918 8.62376 0.414493
716 1 8.28842 5.15976 8.74666 0.480197
970 2 8.48639 6.9429 8.7186 0.315984
971 1 9.14522 7.37135 9.26853 0.463553
972 1 8.92851 6.80344 7.8784 0.351287
22 2 13.2386 5.62045 11.2562 0.455722
23 1 12.3393 5.4954 10.9456 0.389162
146 1 14.5272 5.31965 9.54712 0.395303
281 1 11.2381 4.17511 9.84044 0.373405
493 2 14.118 7.86219 8.94446 0.319857
538 2 11.8673 6.51437 7.97424 0.396436
539 1 11.6244 5.96647 8.7227 0.425524
540 1 12.641 6.90353 8.22471 0.424016
145 2 14.7919 4.75134 8.8217 0.391354
163 2 -1.23962 8.76814 10.6788 0.384594
164 1 -0.751294 8.71254 11.5031 0.454987
165 1 -1.5538 9.67197 10.6461 0.336691
220 2 -2.2017 9.95245 8.1129 0.237531
221 1 -2.45562 10.871 8.02173 0.309268
222 1 -1.28332 9.98225 8.38996 0.390078
640 2 -1.85069 11.4219 11.0817 0.388312
642 1 -2.76758 11.6703 10.9461 0.33745
49 2 1.98754 9.21765 10.3866 0.475937
50 1 1.35717 9.10942 11.102 0.407087
51 1 2.41091 10.0581 10.5646 0.455746
233 1 3.89169 11.2501 7.97199 0.444741
234 1 3.1487 11.7181 9.20955 0.438316
299 1 3.43778 8.57833 10.9494 0.43663
394 2 0.482971 10.514 8.62663 0.234753
395 1 0.96153 10.0723 9.33074 0.358529
396 1 1.13675 10.6436 7.93619 0.382438
943 2 3.18824 11.3846 10.9157 0.43343
298 2 4.26911 8.3228 11.3547 0.4036
406 2 6.36422 8.58529 9.4461 0.576419
407 1 5.84403 8.44481 10.2402 0.343006
545 1 5.29652 9.38692 7.93844 0.378964
945 1 4.04217 11.5752 11.3099 0.510014
304 2 9.91253 8.55733 10.2957 0.408059
305 1 10.7456 8.74489 9.85791 0.468979
306 1 9.30155 9.20427 9.93936 0.506132
709 2 10.5331 11.5361 10.995 0.542937
710 1 10.4129 11.6155 10.0463 0.332361
711 1 9.68843 11.216 11.3184 0.337393
865 2 8.2276 10.4778 9.28617 0.290911
866 1 8.55836 10.303 8.40253 0.446332
867 1 7.57867 9.78982 9.44139 0.393283
277 2 13.5698 11.4556 10.5145 0.34311
278 1 13.4899 11.0257 11.3682 0.591328
495 1 13.3815 8.45021 9.12067 0.499126
595 2 12.1594 9.62415 9.21444 0.327039
596 1 12.6134 10.2089 9.82365 0.472216
597 1 12.5588 9.80713 8.36133 0.34355
494 1 14.8278 8.44061 8.66001 0.368198
57 1 -4.24285 3.53253 13.9083 0.411122
587 1 -3.6507 2.42103 12.1389 0.561953
323 1 -2.57678 0.184033 13.9782 0.542459
588 1 -2.92029 1.10472 11.9699 0.49117
712 2 0.304147 2.25784 13.8744 0.344524
713 1 -0.217695 2.81889 13.298 0.529326
116 1 3.92522 2.60948 13.5249 0.298229
265 2 2.19172 3.69591 15.4026 0.42901
266 1 3.03237 3.51666 14.9759 0.347819
583 2 2.97832 0.90903 13.1542 0.310177
584 1 2.16238 1.40208 13.2587 0.356001
585 1 3.06548 0.786489 12.2064 0.430706
714 1 0.824389 2.86743 14.4005 0.33251
115 2 4.47741 3.16092 14.082 0.312949
117 1 5.29929 3.24896 13.5944 0.267591
389 1 7.30065 3.8517 14.7688 0.326722
665 1 6.04261 0.514147 13.9965 0.379157
666 1 7.09285 0.09347 12.9851 0.350969
706 2 7.42897 3.34977 13.1853 0.238583
743 1 5.52218 2.11064 15.2861 0.335995
917 1 6.00953 0.88973 11.6314 0.338523
235 2 8.77115 0.91925 12.9083 0.363456
236 1 9.06946 0.472215 12.1139 0.334953
237 1 9.06015 0.354291 13.627 0.453357
548 1 10.3833 1.71049 13.8202 0.322931
707 1 7.89629 2.5217 13.07 0.398353
55 2 13.4678 3.46537 13.0526 0.467656
56 1 12.5983 3.10956 13.247 0.499765
547 2 11.3135 1.9184 13.7091 0.352512
549 1 11.7751 1.15752 14.0639 0.585494
34 2 -4.64685 6.07268 15.1896 0.384715
36 1 -3.7402 6.25787 14.9355 0.488017
577 2 -3.58105 7.85641 12.2416 0.54109
436 2 -2.00325 6.39106 14.1287 0.514718
437 1 -2.53124 6.94485 13.5508 0.497447
438 1 -1.66603 6.9899 14.7971 0.549568
784 2 -0.137436 4.82768 12.8312 0.333829
785 1 -0.081109 5.08499 11.9086 0.30848
786 1 -0.861444 5.34867 13.1834 0.498208
2 1 0.912599 7.68678 12.847 0.506133
456 1 3.66893 5.76944 12.6411 0.498655
730 2 1.99681 6.33633 13.45 0.410076
731 1 2.32044 6.16694 14.3373 0.33323
732 1 1.25701 5.73577 13.3443 0.299121
7 2 5.9962 7.09396 14.3543 0.477305
8 1 5.40234 6.61192 14.9329 0.365521
9 1 5.5421 7.91915 14.1803 0.421753
454 2 4.55011 5.74281 12.2617 0.322999
455 1 5.09176 6.24203 12.8758 0.327633
947 1 7.28445 7.06101 12.5958 0.371199
20 1 10.5471 5.86257 14.8328 0.426635
708 1 7.96059 3.99127 12.7113 0.614475
724 2 9.30812 5.0926 12.0236 0.48512
725 1 8.91297 5.94898 11.8575 0.42397
726 1 9.86115 5.22732 12.7962 0.56483
946 2 7.76393 7.37742 11.8274 0.418147
19 2 11.0585 6.02781 14.0378 0.443676
21 1 11.9726 5.9926 14.3279 0.514542
24 1 13.3782 4.90938 11.8833 0.598956
578 1 13.9606 7.16308 11.9592 0.658181
523 2 -4.45882 10.8184 15.4771 0.35019
525 1 -4.70975 10.6552 14.5654 0.441805
1 2 0.47335 8.53639 12.7977 0.437716
3 1 0.817823 9.02705 13.5463 0.599923
561 1 3.75952 9.76532 14.3506 0.449196
700 2 1.74181 10.0965 14.8786 0.49521
702 1 1.97774 10.9255 15.2964 0.32426
244 2 5.74358 11.5858 12.0669 0.330057
245 1 6.4824 10.9893 12.1992 0.331403
543 1 5.92224 9.88545 15.2072 0.515494
559 2 4.57766 9.64506 13.8636 0.61637
560 1 4.29907 9.34427 12.9962 0.413312
646 2 8.31839 10.4815 12.5759 0.419574
647 1 8.21985 11.3273 13.0142 0.431363
648 1 9.03921 10.0532 13.0418 0.29291
688 2 10.4465 8.93333 13.0153 0.328739
689 1 10.311 8.75917 12.0936 0.290477
690 1 10.6953 8.08063 13.3732 0.549953
948 1 8.03501 8.26492 12.0634 0.329319
637 2 13.1616 10.1703 12.8617 0.370413
638 1 12.2537 9.88521 12.9846 0.39499
639 1 13.653 9.35985 12.7227 0.65709
96 1 -5.6489 3.68884 17.5803 0.390521
517 2 -3.81517 3.53656 15.8966 0.384557
518 1 -3.54465 2.62292 15.8034 0.441346
825 1 -3.34641 0.576493 16.2707 0.325973
74 1 -1.23397 3.26314 17.1127 0.396009
130 2 -0.333292 1.6068 17.0779 0.545407
131 1 -0.067463 0.968114 17.7414 0.309719
132 1 0.143101 1.34615 16.2868 0.358142
823 2 -2.82448 1.08089 15.644 0.588962
824 1 -1.95231 1.12995 16.0414 0.319346
267 1 2.20853 3.16512 16.201 0.386606
622 2 3.21147 1.73509 17.0115 0.357915
623 1 3.30419 0.901515 16.549 0.430429
624 1 2.94758 1.49054 17.901 0.470147
598 2 7.45008 2.21812 17.8106 0.347026
599 1 7.05654 1.81145 18.5851 0.410452
600 1 7.26528 3.15196 17.9115 0.357791
614 1 4.54054 3.17869 17.1478 0.344452
742 2 6.06989 1.38798 15.596 0.319463
744 1 6.64031 1.78278 16.2585 0.338861
768 1 5.65226 0.165364 19.0121 0.545368
122 1 10.5549 2.34863 16.7729 0.511833
397 2 9.6807 0.853189 17.4791 0.307902
398 1 9.73568 0.683245 18.4219 0.353567
399 1 8.83857 1.29768 17.3639 0.422823
121 2 11.1329 3.0188 16.4049 0.447366
123 1 11.3818 2.67749 15.5436 0.367028
35 1 -4.6323 5.16127 15.4824 0.344379
78 1 -3.70108 4.32556 19.308 0.61529
94 2 -5.43649 4.0403 18.4473 0.370857
95 1 -6.28659 4.27151 18.8276 0.374333
535 2 -4.59795 6.98958 18.7592 0.409393
536 1 -4.89046 6.14441 18.4166 0.295236
749 1 -5.44123 7.59921 15.9927 0.393264
73 2 -1.47957 4.18755 17.153 0.342025
75 1 -1.9498 4.2757 17.9849 0.340413
129 1 0.014252 5.10392 16.902 0.527744
519 1 -3.0342 3.98437 16.2276 0.406367
959 1 -2.82343 7.63609 18.9228 0.454203
106 2 3.76203 6.36189 15.7513 0.266933
108 1 3.88643 7.16587 16.257 0.409676
127 2 0.783827 5.66397 17.0182 0.381098
128 1 1.52328 5.12111 16.7389 0.353207
567 1 1.23337 7.53326 16.9542 0.575847
755 1 1.09146 5.22311 18.9429 0.507762
18 1 7.27212 5.609 18.5198 0.348629
107 1 4.04169 5.66247 16.3438 0.404326
318 1 4.36906 4.98924 18.7843 0.340381
358 2 6.82037 6.99799 17.1465 0.353462
359 1 7.11175 6.97362 16.2325 0.448348
360 1 6.09555 7.62536 17.1513 0.406364
388 2 7.05221 4.30425 15.5771 0.400398
603 1 4.15752 7.76785 18.2475 0.429629
613 2 4.83683 4.08904 17.158 0.369059
615 1 5.56277 4.11337 16.5308 0.401328
16 2 7.56945 4.86937 19.0515 0.403692
17 1 8.45434 4.98073 19.1095 0.501787
88 2 10.5043 7.53331 17.81 0.374079
355 2 9.53801 5.36438 16.3182 0.389435
356 1 10.0752 4.58249 16.4518 0.584197
357 1 9.83833 5.97773 16.991 0.312395
390 1 7.87221 4.68086 15.9028 0.447255
439 2 -3.64257 10.2831 19.2685 0.386016
524 1 -4.72423 10.0263 15.9459 0.708526
748 2 -5.44153 8.4083 16.5054 0.424005
750 1 -4.98305 8.1807 17.317 0.426107
907 2 -6.29678 11.3646 18.5733 0.465176
909 1 -5.50223 10.8279 18.5589 0.541567
440 1 -3.01066 9.59978 19.0397 0.378964
562 2 -1.3028 8.18298 16.1242 0.457931
563 1 -0.436564 8.23708 16.5338 0.343337
564 1 -1.62393 9.08496 16.1197 0.510688
925 2 -1.77864 11.3079 16.2122 0.391676
927 1 -2.73354 11.2149 16.2361 0.487681
958 2 -2.07876 8.18813 18.6775 0.392867
960 1 -1.9518 8.02006 17.7413 0.389162
565 2 1.21624 8.48309 17.0715 0.463394
566 1 1.47641 8.61731 17.9853 0.512391
701 1 1.52319 9.51512 15.6089 0.497554
854 1 1.47405 11.1779 19.2013 0.31976
940 2 3.89105 10.9959 17.4632 0.413432
942 1 2.97405 11.2707 17.3978 0.359029
541 2 6.42909 10.1433 15.98 0.436176
542 1 5.76849 10.3129 16.6551 0.3731
601 2 4.42879 8.28051 17.4838 0.351224
602 1 4.17699 9.17901 17.6984 0.289688
795 1 7.20801 11.6562 16.0526 0.382339
941 1 4.37933 11.8103 17.5888 0.428157
89 1 9.8584 7.98062 17.2598 0.322619
274 2 7.83434 8.72156 19.1884 0.30243
276 1 7.87017 8.16986 18.405 0.387056
760 2 8.96822 9.0752 16.1959 0.328003
761 1 9.38619 9.83519 16.5209 0.37559
762 1 8.04571 9.33218 16.2566 0.310818
769 2 10.3251 11.7373 16.1932 0.299871
90 1 11.3383 7.95632 17.5964 0.365946
908 1 11.5187 11.3387 17.6706 0.557765
861 1 -0.201678 14.1421 0.3928 0.435132
651 1 2.06545 14.27 0.197747 0.37927
787 2 1.00975 13.9643 2.77794 0.254594
788 1 0.569905 14.4353 3.4882 0.273851
789 1 0.922322 13.0408 3.01441 0.399314
802 2 3.51038 13.6485 1.66579 0.366253
804 1 2.82731 13.513 2.32607 0.43447
58 2 7.21256 12.9517 3.18678 0.480582
59 1 7.24406 13.7288 3.74613 0.323198
214 2 4.92393 15.5018 3.12533 0.494915
803 1 4.06994 14.3329 2.03608 0.478059
1001 1 4.41339 12.1875 1.82322 0.41356
41 1 7.47039 15.4183 0.101647 0.358601
60 1 7.74906 12.3046 3.64748 0.39439
207 1 9.28796 14.8964 3.82999 0.33488
844 2 10.8919 13.7006 1.0902 0.331849
845 1 9.97119 13.91 0.918842 0.381414
913 2 8.20126 14.1566 0.790625 0.414949
914 1 7.80444 13.8135 1.59382 0.528609
915 1 8.12863 13.4394 0.159286 0.442714
167 1 14.386 14.4701 2.28429 0.308795
168 1 14.4111 14.3902 3.79973 0.321453
676 2 11.3491 13.83 3.82066 0.397707
814 2 14.0916 13.9858 0.436875 0.345049
815 1 13.8594 13.0571 0.432603 0.503656
846 1 10.9993 13.8412 2.03334 0.468166
1004 1 11.7991 15.1139 0.842763 0.424773
1005 1 13.1776 15.7318 0.700653 0.281191
82 2 16.3815 12.0288 2.30729 0.3109
84 1 15.6424 11.8859 2.9025 0.44936
149 1 16.4886 15.2386 3.63303 0.390653
166 2 14.6384 14.9644 3.06637 0.317464
816 1 14.9796 13.9961 0.33769 0.413703
859 2 16.9656 14.0247 0.258481 0.407439
860 1 16.7069 13.3816 0.920579 0.423093
835 2 -0.182092 18.109 1.64369 0.360413
836 1 -0.343134 18.1105 2.58972 0.349276
424 2 3.11197 19.2606 2.26878 0.480024
425 1 3.78675 19.468 1.61884 0.441018
757 2 2.24155 16.7336 1.32224 0.407413
758 1 2.32573 16.0702 2.00878 0.365149
759 1 2.69624 17.4999 1.6745 0.374615
837 1 0.588081 17.5489 1.5316 0.448188
215 1 4.2291 16.1079 3.38815 0.347021
216 1 5.66107 16.0666 2.88636 0.489701
497 1 6.52959 18.7414 3.33058 0.461311
817 2 6.6232 17.237 2.12559 0.553302
819 1 6.19239 17.4061 1.28499 0.341249
874 2 4.66593 19.2956 0.094277 0.2488
253 2 9.51596 17.2478 1.65054 0.370518
254 1 10.1012 17.5638 2.34199 0.397299
255 1 9.89401 17.5918 0.838694 0.506155
818 1 7.53192 17.0338 1.89355 0.318956
520 2 11.9447 17.4492 3.05997 0.416764
521 1 11.7819 16.7769 3.72338 0.27995
522 1 12.1169 16.9584 2.25426 0.431828
809 1 13.8943 17.9525 3.37911 0.377471
969 1 11.2964 19.2992 2.9939 0.398601
1003 2 12.2465 15.9566 0.758723 0.274967
14 1 15.2357 18.9993 1.2953 0.442548
15 1 14.5189 19.4944 0.093752 0.479175
667 2 15.213 16.8254 0.394982 0.359801
668 1 16.0074 16.7332 0.925407 0.361929
808 2 14.7886 17.7292 3.11226 0.354045
810 1 14.7451 16.801 2.88222 0.321975
806 1 0.088617 21.3237 1.87237 0.470989
1041 1 -0.494928 23.6581 2.04842 0.244732
426 1 2.4056 19.8837 2.09075 0.417761
805 2 0.90816 20.826 1.85075 0.758524
807 1 0.630802 19.914 1.76207 0.472059
1078 2 2.49153 23.2899 0.790098 0.330041
1079 1 1.6584 23.3351 1.26431 0.273181
1080 1 3.1403 23.0744 1.46346 0.38268
64 2 4.84891 22.4193 2.29293 0.356507
65 1 5.75544 22.7253 2.36463 0.331444
66 1 4.63019 22.1079 3.17363 0.323987
1089 1 7.06026 23.4979 0.270682 0.494756
295 2 8.48347 20.4946 2.2569 0.533108
296 1 8.02932 20.0673 2.98567 0.386159
297 1 9.41478 20.3397 2.42898 0.388502
336 1 10.5375 21.837 0.225061 0.355412
492 1 7.47153 20.514 0.545987 0.650462
955 2 7.79459 23.1874 1.88963 0.386456
956 1 8.06998 22.2945 2.09835 0.40329
334 2 11.4238 21.4711 0.193943 0.370272
335 1 11.462 20.8722 0.941536 0.393539
838 2 13.9512 21.3042 2.97165 0.445199
839 1 14.1297 20.6573 2.28729 0.438463
840 1 13.433 21.9385 2.55377 0.4693
967 2 11.1234 20.1833 2.66938 0.332927
968 1 11.0222 20.713 3.46228 0.402546
1162 2 12.6494 23.489 1.71424 0.328873
1164 1 12.2657 23.008 0.978659 0.452797
13 2 15.0533 19.7873 0.78191 0.367429
481 2 16.6995 22.101 1.23523 0.639595
482 1 16.2186 21.2924 1.05478 0.544295
483 1 16.3445 22.7341 0.609119 0.451263
720 1 16.1258 21.9841 3.39969 0.403057
148 2 -1.00842 15.5567 4.27011 0.310546
150 1 -1.19323 15.0591 5.06876 0.340288
487 2 -1.23274 13.6174 6.47799 0.507119
488 1 -0.318278 13.3758 6.63988 0.367363
489 1 -1.66955 13.4865 7.32234 0.287752
471 1 1.5664 15.0177 6.00009 0.356496
772 2 1.58926 13.0959 6.14706 0.316469
773 1 2.22016 12.7988 6.80602 0.367134
774 1 1.85118 12.6455 5.34182 0.408629
911 1 3.81182 12.4212 4.8419 0.431394
330 1 4.47684 15.5988 7.72211 0.457317
460 2 6.8272 12.212 6.51927 0.414349
461 1 6.15884 12.6658 6.00225 0.419862
462 1 7.3732 12.9129 6.87852 0.426395
799 2 4.82016 14.0015 5.32737 0.383612
800 1 4.90621 14.4859 4.50415 0.465448
801 1 4.63696 14.6733 5.98599 0.38919
205 2 8.60479 15.0507 4.48599 0.555037
272 1 10.0757 15.5107 7.45371 0.292419
286 2 8.65253 14.0119 7.18673 0.38888
288 1 8.58465 14.4319 6.32709 0.442681
263 1 11.4118 12.3853 7.57345 0.50663
301 2 12.6649 15.7318 5.50802 0.449229
333 1 13.7952 12.8383 5.50203 0.422815
511 2 12.8416 13.1242 7.04317 0.407346
512 1 13.6454 12.9819 7.54782 0.354354
513 1 12.8499 14.059 6.83732 0.342087
677 1 11.3865 12.9112 4.08709 0.436366
678 1 11.9647 14.2741 4.40706 0.288041
331 2 14.5989 12.7726 4.98167 0.404955
332 1 15.3082 12.8494 5.62351 0.492922
337 2 -0.536659 18.1522 4.50469 0.361022
338 1 0.312161 18.3096 4.92382 0.349705
339 1 -0.589012 17.2003 4.41912 0.422477
376 2 -0.874522 16.9304 7.39592 0.332294
377 1 -0.033332 16.8391 6.94305 0.302028
414 1 -1.48981 19.5272 5.11835 0.309961
469 2 1.5649 15.9428 6.24625 0.2923
470 1 2.39814 16.071 6.70477 0.426487
820 2 2.01099 19.2409 5.36801 0.400898
821 1 2.15487 19.0985 6.306 0.439829
886 2 2.7483 16.946 3.99024 0.321465
887 1 2.25483 16.4743 4.66385 0.317454
888 1 2.76827 17.8518 4.29974 0.377878
328 2 4.09515 16.2272 7.10708 0.357935
329 1 4.80278 16.8499 6.93211 0.386303
418 2 6.39204 17.2491 6.23179 0.403867
419 1 6.36454 17.6468 5.35937 0.384127
420 1 6.34156 17.9897 6.83751 0.464128
496 2 6.85907 19.279 4.05296 0.616885
206 1 8.5711 16.0029 4.57762 0.395155
250 2 9.29743 17.8143 4.55497 0.40791
251 1 8.60899 18.48 4.59457 0.415159
252 1 9.96457 18.1188 5.17359 0.383092
271 2 10.5371 16.3494 7.48312 0.425879
327 1 7.56755 16.4928 7.57587 0.47285
202 2 11.1077 19.0521 6.38364 0.395888
203 1 12.0048 19.2203 6.08722 0.474339
204 1 11.1655 18.2273 6.86721 0.401826
302 1 12.0192 15.9549 6.18179 0.461961
303 1 13.361 16.2748 5.71534 0.371224
313 2 13.5112 19.7582 5.2648 0.416631
314 1 14.4003 19.6506 5.6097 0.338587
227 1 14.5364 15.8879 7.46028 0.394385
514 2 14.8075 17.157 6.06929 0.564402
515 1 15.7062 17.1954 6.40371 0.307597
516 1 14.8992 17.2639 5.12008 0.351147
412 2 -1.76755 20.1454 5.79634 0.388714
413 1 -1.68902 21.0048 5.38135 0.373878
753 1 -1.28802 19.811 7.65243 0.590929
361 2 1.36016 21.9818 5.08613 0.414642
362 1 1.12755 22.0216 6.01631 0.32506
363 1 0.600433 22.3518 4.63203 0.35882
401 1 3.29775 22.0176 7.47664 0.360341
698 1 3.8411 20.0847 4.355 0.348365
822 1 1.71633 20.1497 5.30572 0.454057
829 2 1.47459 22.335 7.74054 0.379026
830 1 0.73459 22.9091 7.53547 0.499046
1013 1 2.78203 23.2073 5.03952 0.308295
400 2 4.19083 21.7505 7.24916 0.400018
402 1 4.74972 22.4354 7.61944 0.471202
428 1 7.332 22.9499 4.8811 0.426196
449 1 6.89875 20.331 7.28005 0.289424
498 1 6.13148 19.8663 4.26502 0.375254
697 2 4.40017 20.8145 4.62523 0.372758
699 1 4.18307 20.9542 5.54945 0.29003
993 1 4.89858 20.0207 7.69285 0.374171
427 2 8.11793 22.4131 4.76402 0.501873
429 1 8.09546 21.7939 5.49541 0.453781
448 2 7.76092 20.6503 7.00574 0.378651
502 2 10.8258 21.7343 4.88211 0.355377
503 1 9.96463 22.1538 4.83197 0.504751
504 1 10.6945 20.9884 5.46897 0.35069
1128 1 9.34842 23.1124 7.58916 0.342347
292 2 13.2899 22.0052 7.11517 0.371028
293 1 13.2716 21.4009 6.37121 0.335953
294 1 12.388 22.0106 7.44325 0.349441
315 1 13.6359 20.1391 4.3933 0.428404
1097 1 11.7426 23.4361 5.27964 0.362558
718 2 16.4575 22.3565 4.21914 0.479694
719 1 15.7877 22.9897 4.48267 0.381359
25 2 -1.0884 15.6357 9.83798 0.522467
26 1 -0.673444 14.7862 9.68511 0.468467
61 2 -3.00624 12.934 8.63138 0.321966
319 2 -3.12124 14.8131 11.5505 0.401708
321 1 -2.44898 15.1919 10.9806 0.32589
641 1 -1.34742 12.1741 10.7672 0.263309
973 2 0.229196 13.2649 9.70563 0.367215
232 2 3.31108 11.9427 8.29094 0.434501
682 2 2.57638 14.6069 9.99316 0.315956
683 1 2.59496 15.54 9.78001 0.478598
684 1 3.34926 14.2457 9.55435 0.354691
944 1 2.5752 11.9579 11.3792 0.420817
974 1 0.396516 12.528 9.11645 0.370518
975 1 1.08361 13.689 9.80697 0.380361
175 2 5.21824 14.0445 8.62489 0.463232
176 1 4.78327 13.2002 8.50132 0.403846
177 1 6.0127 13.8371 9.12154 0.26127
447 1 6.98995 12.7293 10.894 0.445214
262 2 10.6615 12.0505 8.06888 0.45534
264 1 10.1107 12.8191 8.22312 0.357319
287 1 8.21574 14.618 7.78747 0.288734
445 2 7.69496 12.9335 10.2759 0.277021
446 1 7.89246 12.0985 9.85032 0.432652
826 2 9.97703 14.6657 10.1754 0.411138
827 1 10.8252 14.3346 10.4778 0.502937
828 1 9.37513 13.9288 10.2889 0.345892
226 2 14.2219 15.4417 8.2489 0.313164
279 1 12.8592 12.0988 10.5031 0.344379
382 2 12.5798 14.0006 10.3696 0.392597
383 1 12.7051 14.5724 9.61029 0.311526
384 1 13.2742 14.2553 10.981 0.41595
62 1 14.5827 12.3296 9.16244 0.386681
63 1 14.8358 13.8039 8.9286 0.404638
570 1 -3.23557 17.7784 10.2287 0.348282
27 1 -1.04368 16.0798 8.98905 0.356037
101 1 -0.441656 18.4657 11.577 0.319728
378 1 -0.802352 17.7582 7.87212 0.419431
751 2 -0.938419 19.4684 8.4775 0.433479
91 2 2.46514 17.3369 10.1428 0.33441
92 1 2.36609 17.8925 9.36765 0.31242
93 1 1.78912 17.6457 10.7495 0.377921
100 2 0.472522 18.7211 11.4364 0.541639
673 2 1.80661 19.2044 8.25477 0.355809
674 1 2.18302 19.7676 8.93334 0.345261
675 1 0.861691 19.2249 8.42151 0.304748
556 2 4.88102 18.4257 10.3823 0.370512
557 1 3.9579 18.1932 10.5033 0.427514
558 1 5.36393 17.6391 10.6391 0.375597
928 2 6.2269 16.1218 11.1115 0.608549
929 1 6.56964 16.061 10.2172 0.313228
991 2 5.35024 19.178 7.74892 0.412964
992 1 5.24568 18.9103 8.66431 0.476195
273 1 10.3977 16.6684 8.37711 0.421132
325 2 7.64875 16.2599 8.5031 0.31449
326 1 8.43329 16.7244 8.80075 0.334831
415 2 9.67418 17.6049 9.98042 0.481424
416 1 10.0437 16.976 10.6024 0.412069
417 1 10.263 18.3594 10.0263 0.351096
932 1 8.7638 18.5948 11.4785 0.368749
228 1 14.0834 16.1441 8.88593 0.528143
354 1 12.8026 17.7341 11.4822 0.432449
568 2 14.1162 17.6339 9.70075 0.379541
569 1 13.9968 18.4517 9.21664 0.356489
386 1 -3.3536 20.6539 9.54821 0.374488
442 2 -1.87677 21.6313 9.86502 0.565529
443 1 -2.06349 22.3169 9.22185 0.412365
444 1 -1.31736 22.057 10.5176 0.424754
752 1 -1.25366 20.0792 9.14579 0.380976
1582 2 0.125955 23.5662 11.0985 0.513566
433 2 2.93871 21.2654 10.0019 0.418321
434 1 3.89455 21.3506 10.0154 0.324283
435 1 2.62796 22.0948 9.63735 0.368486
831 1 1.0744 21.5686 8.15347 0.426038
1583 1 0.673216 22.8492 11.4221 0.610099
901 2 5.72809 21.7512 10.1854 0.305472
902 1 5.7425 22.3218 10.9557 0.309798
903 1 5.94783 22.3281 9.45189 0.454483
980 1 7.36431 20.911 9.93082 0.288065
450 1 8.30943 20.5657 7.78863 0.488699
484 2 10.817 22.0902 8.14104 0.354715
486 1 10.6729 21.2705 8.61521 0.311211
979 2 8.30555 20.8407 9.75701 0.488837
981 1 8.63199 20.2485 10.4366 0.408687
1666 2 8.88259 23.2678 10.9361 0.442111
1667 1 8.05557 23.4741 11.3768 0.359945
1668 1 8.67045 22.5315 10.3607 0.414961
385 2 13.8758 20.4139 9.25263 0.461253