LAMMPS (27 Jun 2024)
KOKKOS mode with Kokkos version 4.3.1 is enabled (src/KOKKOS/kokkos.cpp:72)
  will use up to 1 GPU(s) per node
WARNING: When using a single thread, the Kokkos Serial backend (i.e. Makefile.kokkos_mpi_only) gives better performance than the OpenMP backend (src/KOKKOS/kokkos.cpp:202)
  using 1 OpenMP thread(s) per MPI task
Reading data file ...
  orthogonal box = (0 0 0) to (19.665067 19.665067 19.640133)
  1 by 1 by 1 MPI processor grid
  reading atoms ...
  1296 atoms
  read_data CPU = 0.148 seconds
ACE/AL version: 2023.11.25
Loading /pc2/users/a/acepdw01/work/phase_diagram/pot_dir/interim_potential_ladder_step_1.yaml
Total number of basis functions
	H: 23 (r=1) 664 (r>1)
	O: 23 (r=1) 664 (r>1)
Mapping LAMMPS atom type #1(H) -> ACE species type #0
Mapping LAMMPS atom type #2(O) -> ACE species type #1
Loading ASI /pc2/users/a/acepdw01/work/phase_diagram/pot_dir/interim_potential_ladder_step_1.asi
LINEAR ASI is loaded

CITE-CITE-CITE-CITE-CITE-CITE-CITE-CITE-CITE-CITE-CITE-CITE-CITE

Your simulation uses code contributions which should be cited:
- Type Label Framework: https://doi.org/10.1021/acs.jpcb.3c08419
The log file lists these citations in BibTeX format.

CITE-CITE-CITE-CITE-CITE-CITE-CITE-CITE-CITE-CITE-CITE-CITE-CITE

Switching to 'neigh_modify every 1 delay 0 check yes' setting during minimization
Neighbor list info ...
  update: every = 1 steps, delay = 0 steps, check = yes
  max neighbors/atom: 2000, page size: 100000
  master list distance cutoff = 6.5
  ghost atom cutoff = 6.5
  binsize = 6.5, bins = 4 4 4
  1 neighbor lists, perpetual/occasional/extra = 1 0 0
  (1) pair pace/extrapolation/kk, perpetual
      attributes: full, newton on, kokkos_device
      pair build: full/bin/kk/device
      stencil: full/bin/3d
      bin: kk/device
Setting up cg/kk style minimization ...
  Unit style    : metal
  Current step  : 0
WARNING: Fix with atom-based arrays not compatible with sending data in Kokkos communication, switching to classic exchange/border communication (src/KOKKOS/comm_kokkos.cpp:754)
WARNING: Fix with atom-based arrays not compatible with Kokkos sorting on device, switching to classic host sorting (src/KOKKOS/atom_kokkos.cpp:216)
Per MPI rank memory allocation (min/avg/max) = 1123 | 1123 | 1123 Mbytes
   Step         TotEng         PotEng         KinEng         Press           Temp          Volume        Density     c_max_pace_gamma
         0  -6250.4972     -6250.4972      0              21939.986      0              7595.1311      1.7015372      0.62320149   
        33  -6250.6452     -6250.6452      0              22350.057      0              7595.1311      1.7015372      0.62320149   
Loop time of 0.25436 on 1 procs for 33 steps with 1296 atoms

99.6% CPU use with 1 MPI tasks x 1 OpenMP threads

Minimization stats:
  Stopping criterion = force tolerance
  Energy initial, next-to-last, final = 
     -6250.49717465847  -6250.64523648355  -6250.64523648875
  Force two-norm initial, final = 0.82052426 0.0003006328
  Force max component initial, final = 0.040662504 1.1270972e-05
  Final line search alpha, max atom move = 1 1.1270972e-05
  Iterations, force evaluations = 33 66

MPI task timing breakdown:
Section |  min time  |  avg time  |  max time  |%varavg| %total
---------------------------------------------------------------
Pair    | 0.22821    | 0.22821    | 0.22821    |   0.0 | 89.72
Neigh   | 0          | 0          | 0          |   0.0 |  0.00
Comm    | 0.0017591  | 0.0017591  | 0.0017591  |   0.0 |  0.69
Output  | 0          | 0          | 0          |   0.0 |  0.00
Modify  | 0.014328   | 0.014328   | 0.014328   |   0.0 |  5.63
Other   |            | 0.01007    |            |       |  3.96

Nlocal:           1296 ave        1296 max        1296 min
Histogram: 1 0 0 0 0 0 0 0 0 0
Nghost:           4514 ave        4514 max        4514 min
Histogram: 1 0 0 0 0 0 0 0 0 0
Neighs:              0 ave           0 max           0 min
Histogram: 1 0 0 0 0 0 0 0 0 0
FullNghs:       251424 ave      251424 max      251424 min
Histogram: 1 0 0 0 0 0 0 0 0 0

Total # of neighbors = 251424
Ave neighs/atom = 194
Neighbor list builds = 0
Dangerous builds = 0
Setting up Verlet run ...
  Unit style    : metal
  Current step  : 33
  Time step     : 0.0005
WARNING: Fix with atom-based arrays not compatible with Kokkos sorting on device, switching to classic host sorting (src/KOKKOS/atom_kokkos.cpp:216)
Per MPI rank memory allocation (min/avg/max) = 1123 | 1123 | 1123 Mbytes
   Step         TotEng         PotEng         KinEng         Press           Temp          Volume        Density     c_max_pace_gamma
        33  -6183.6885     -6250.6452      66.956755      31766.312      400            7595.1311      1.7015372      0.62320149   
       100  -6174.7991     -6202.3303      27.531271      39144.938      164.47196      7620.503       1.695872       0.62320149   
       200  -6166.8208     -6207.8166      40.995818      30789.081      244.90923      7774.6241      1.6622537      0.62320149   
       300  -6158.3418     -6206.0956      47.753799      24630.943      285.28144      8002.5991      1.6149001      0.62320149   
       400  -6153.2391     -6202.2489      49.009845      19866.885      292.78507      8201.0547      1.5758215      0.62320149   
       500  -6146.9067     -6202.2593      55.352555      16627.478      330.67645      8346.0064      1.5484529      0.62320149   
       600  -6143.4285     -6196.1589      52.730392      15265.027      315.01163      8452.5293      1.5289386      0.62320149   
       700  -6137.2702     -6196.2457      58.97559       13528.497      352.32048      8534.6959      1.5142189      0.62320149   
       800  -6133.3323     -6190.5438      57.211466      19227.234      341.78159      8594.7738      1.5036344      0.62320149   
       900  -6129.8265     -6190.7543      60.927738      15034.631      363.98262      8638.3208      1.4960544      0.62320149   
      1000  -6127.6461     -6188.3722      60.726073      15617.325      362.77787      8667.0542      1.4910946      0.80476944   
      1100  -6126.3578     -6188.8646      62.506873      12551.691      373.41638      8680.7151      1.4887481      0.80476944   
      1200  -6124.2032     -6188.4319      64.22874       10490.898      383.70282      8680.3853      1.4888046      0.80476944   
      1300  -6125.8819     -6187.1104      61.228589      16357.255      365.7799       8667.6897      1.4909853      0.80476944   
      1400  -6125.9289     -6190.3222      64.393342      16695.845      384.68616      8648.9139      1.494222       0.80476944   
      1500  -6124.1304     -6186.6987      62.568241      16535.634      373.78299      8626.7633      1.4980587      0.80476944   
      1600  -6120.5884     -6184.3229      63.734537      16792.068      380.75045      8609.4907      1.5010642      0.80476944   
      1700  -6119.7021     -6185.2516      65.549542      18257.354      391.5933       8603.0085      1.5021952      0.80476944   
      1800  -6119.7625     -6185.479       65.716487      17233.951      392.59063      8607.9605      1.501331       0.80476944   
      1900  -6119.5293     -6185.2405      65.71116       15850.235      392.55881      8623.5467      1.4986175      0.80476944   
      2000  -6121.5746     -6185.0922      63.517529      15296.713      379.45405      8642.6848      1.495299       0.7939942    
      2100  -6120.6373     -6186.0424      65.40515       16395.674      390.7307       8661.6762      1.4920204      0.7939942    
      2200  -6120.3318     -6185.1802      64.848379      12082.964      387.40455      8678.8585      1.4890666      0.7939942    
      2300  -6119.6331     -6184.4506      64.817503      13036.807      387.22009      8692.238       1.4867745      0.7939942    
      2400  -6121.3322     -6184.5453      63.213099      13812.13       377.63538      8700.8565      1.4853018      0.7939942    
      2500  -6119.1078     -6187.503       68.395169      11124.262      408.59309      8708.1328      1.4840607      0.7939942    
      2600  -6117.6066     -6183.0779      65.471391      13528.192      391.12642      8712.2191      1.4833647      0.7939942    
      2700  -6118.6168     -6184.5079      65.891024      15950.182      393.63331      8717.4458      1.4824753      0.7939942    
      2800  -6120.1841     -6186.2577      66.073633      14378.561      394.72423      8720.2857      1.4819925      0.7939942    
      2900  -6119.8319     -6185.3512      65.519302      11191.837      391.41265      8718.9561      1.4822185      0.7939942    
      3000  -6118.0703     -6183.338       65.267721      14604.798      389.9097       8711.9341      1.4834132      0.77648663   
      3100  -6117.9151     -6184.6091      66.693983      16435.781      398.4302       8703.1217      1.4849152      0.77648663   
      3200  -6118.8439     -6184.6264      65.782495      17461.864      392.98497      8692.4751      1.486734       0.77648663   
      3300  -6116.1222     -6183.3445      67.222293      17909.891      401.58632      8684.7459      1.4880571      0.77648663   
      3400  -6114.386      -6181.406       67.019911      17102.875      400.3773       8682.1968      1.488494       0.77648663   
      3500  -6113.9486     -6180.5475      66.598899      17276.662      397.86217      8690.8695      1.4870086      0.77648663   
      3600  -6114.4028     -6182.6281      68.225332      15836.498      407.57848      8710.3613      1.483681       0.77648663   
      3700  -6112.3586     -6181.7818      69.423258      11245.971      414.7349       8734.7752      1.4795341      0.77648663   
      3800  -6111.0202     -6179.2143      68.194048      10271.662      407.39159      8760.6343      1.4751669      0.77648663   
      3900  -6110.8722     -6180.3641      69.491959      7993.2476      415.14532      8789.4152      1.4703365      0.77648663   
      4000  -6115.3532     -6181.2702      65.917         11149.353      393.7885       8814.3038      1.4661848      0.79452051   
      4100  -6116.5041     -6182.874       66.369904      12899.523      396.49415      8825.4303      1.4643363      0.79452051   
      4200  -6114.3546     -6180.5017      66.147163      13384.606      395.16349      8818.4822      1.46549        0.79452051   
      4300  -6115.7116     -6183.165       67.453413      11872.601      402.96703      8798.4828      1.4688212      0.79452051   
      4400  -6114.2559     -6182.3774      68.121485      14772.586      406.9581       8767.3671      1.4740341      0.79452051   
      4500  -6113.8108     -6181.3973      67.586485      16893.927      403.76201      8733.718       1.4797132      0.79452051   
      4600  -6114.6789     -6184.4894      69.810557      13741.232      417.04863      8702.2854      1.4850579      0.79452051   
      4700  -6114.7507     -6180.5186      65.767861      18468.19       392.89754      8675.6438      1.4896183      0.79452051   
      4800  -6116.2575     -6182.8974      66.639923      18040.671      398.10724      8662.7352      1.491838       0.79452051   
      4900  -6115.2409     -6183.0786      67.837683      15525.673      405.26267      8665.6499      1.4913363      0.79452051   
      5000  -6115.1341     -6182.1819      67.047768      19197.567      400.54371      8685.9955      1.487843       0.90438688   
      5100  -6116.0763     -6181.446       65.369701      19401.671      390.51893      8720.7725      1.4819098      0.90438688   
      5200  -6116.2421     -6184.3942      68.152115      17017.778      407.14109      8766.4618      1.4741863      0.90438688   
      5300  -6115.5826     -6182.2106      66.627951      14331.13       398.03572      8811.6912      1.4666195      0.90438688   
      5400  -6116.0985     -6179.4816      63.383104      11765.689      378.65099      8850.2934      1.4602225      0.90438688   
      5500  -6115.7118     -6183.1912      67.479396      13352.813      403.12226      8879.0005      1.4555014      0.90438688   
      5600  -6113.563      -6182.7076      69.144625      13857.04       413.07034      8889.7422      1.4537427      0.90438688   
      5700  -6109.7966     -6178.2342      68.437554      15756.524      408.8463       8881.5597      1.455082       0.90438688   
      5800  -6110.765      -6180.5897      69.824682      16693.32       417.13301      8859.0799      1.4587743      0.90438688   
      5900  -6112.8679     -6182.5332      69.665351      16761.727      416.18117      8824.3157      1.4645212      0.90438688   
      6000  -6113.9993     -6181.8732      67.873839      14522.898      405.47866      8777.5999      1.4723157      0.7696742    
      6100  -6113.4415     -6183.1041      69.662539      15528.593      416.16436      8723.2265      1.4814929      0.7696742    
      6200  -6114.9602     -6182.3832      67.423002      16463.98       402.78536      8672.8559      1.4900972      0.7696742    
      6300  -6114.008      -6182.854       68.846013      14475.586      411.28643      8637.8873      1.4961295      0.7696742    
      6400  -6114.4435     -6180.6653      66.221834      17982.193      395.60958      8624.1969      1.4985045      0.7696742    
      6500  -6116.2059     -6184.3641      68.158178      16883.852      407.1773       8637.0632      1.4962722      0.7696742    
      6600  -6114.5602     -6182.8155      68.255291      13925.981      407.75746      8673.9738      1.4899051      0.7696742    
      6700  -6115.6164     -6181.9148      66.298387      15595.553      396.0669       8732.3533      1.4799445      0.7696742    
      6800  -6118.6617     -6182.0992      63.437427      12504.783      378.97552      8802.5118      1.4681489      0.7696742    
      6900  -6119.3634     -6184.0387      64.675245      10523.831      386.37025      8864.2493      1.4579236      0.7696742    
      7000  -6117.8713     -6183.0299      65.158622      13639.687      389.25794      8902.5225      1.4516557      0.78388028   
      7100  -6119.6279     -6182.7536      63.125714      15290.907      377.11334      8915.6621      1.4495163      0.78388028   
      7200  -6117.941      -6182.5719      64.630956      14015.041      386.10566      8903.6961      1.4514644      0.78388028   
      7300  -6120.2197     -6183.6921      63.472404      13783.918      379.18447      8866.8603      1.4574943      0.78388028   
      7400  -6121.1163     -6185.9859      64.869578      13049.836      387.53119      8809.45        1.4669926      0.78388028   
      7500  -6119.8729     -6184.0553      64.18243       15599.271      383.42617      8742.2101      1.4782758      0.78388028   
      7600  -6119.6254     -6185.3568      65.731386      16946.528      392.67964      8681.2913      1.4886493      0.78388028   
      7700  -6120.1053     -6184.4241      64.318865      17696.647      384.24123      8635.2036      1.4965945      0.78388028   
      7800  -6120.0556     -6185.7052      65.649644      16247.418      392.19131      8610.9355      1.5008123      0.78388028   
      7900  -6118.3388     -6183.6566      65.317812      18444.782      390.20895      8609.3078      1.501096       0.78388028   
      8000  -6118.0981     -6182.774       64.675855      18899.528      386.37389      8634.7134      1.4966794      0.79948529   
      8100  -6119.5261     -6183.4871      63.960923      15331.441      382.10288      8684.6199      1.4880787      0.79948529   
      8200  -6120.3562     -6183.4443      63.088174      15222.957      376.88907      8748.5459      1.4772052      0.79948529   
      8300  -6119.2484     -6185.7091      66.460726      11031.429      397.03672      8813.5635      1.4663079      0.79948529   
      8400  -6117.8363     -6182.8872      65.050997      13244.895      388.61499      8867.7246      1.4573522      0.79948529   
      8500  -6115.3626     -6182.1505      66.787947      10893.078      398.99154      8902.9625      1.451584       0.79948529   
      8600  -6114.9306     -6180.8717      65.941089      11648.985      393.9324       8917.679       1.4491885      0.79948529   
      8700  -6115.7368     -6181.538       65.801182      12639.749      393.0966       8914.2666      1.4497433      0.79948529   
      8800  -6115.2705     -6180.9784      65.707875      11421.592      392.53918      8891.9875      1.4533756      0.79948529   
      8900  -6115.0551     -6180.7979      65.742773      18241.246      392.74767      8853.7341      1.4596551      0.79948529   
      9000  -6116.1588     -6181.5556      65.396724      17517.365      390.68037      8807.2797      1.4673541      0.74687362   
      9100  -6116.702      -6184.4297      67.727702      16995.526      404.60564      8760.7515      1.4751472      0.74687362   
      9200  -6115.5186     -6181.1092      65.590628      20564.624      391.83875      8719.5356      1.48212        0.74687362   
      9300  -6114.6685     -6182.9398      68.27127       17360.367      407.85292      8692.2901      1.4867656      0.74687362   
      9400  -6113.3413     -6183.7957      70.45438       17210.119      420.89483      8681.0566      1.4886895      0.74687362   
      9500  -6113.9217     -6181.2229      67.301177      20575.465      402.05758      8688.3497      1.4874399      0.74687362   
      9600  -6113.1884     -6182.0209      68.832441      19575.367      411.20536      8713.9271      1.4830739      0.74687362   
      9700  -6114.6438     -6181.7613      67.117514      14604.803      400.96038      8749.7903      1.4769952      0.74687362   
      9800  -6114.4489     -6179.8371      65.388212      14303.162      390.62952      8790.0174      1.4702358      0.74687362   
      9900  -6115.4423     -6182.4381      66.995731      17039.219      400.23284      8829.3408      1.4636877      0.74687362   
     10000  -6114.7388     -6183.2351      68.496329      17726.256      409.19742      8859.151       1.4587626      0.79032631   
     10100  -6111.8798     -6179.3735      67.493733      14167.643      403.20791      8874.9592      1.4561642      0.79032631   
     10200  -6110.456      -6179.7168      69.26074       8293.2784      413.76402      8880.4981      1.455256       0.79032631   
     10300  -6112.0854     -6180.4933      68.407885      6374.4369      408.66905      8874.8178      1.4561874      0.79032631   
     10400  -6110.0805     -6179.6287      69.548201      10380.428      415.48131      8858.0699      1.4589406      0.79032631   
     10500  -6107.7817     -6176.4365      68.654834      13468.904      410.14433      8839.4422      1.4620151      0.79032631   
     10600  -6109.4688     -6179.7889      70.320111      12998.303      420.0927       8824.1392      1.4645505      0.79032631   
     10700  -6108.8912     -6178.8299      69.938701      12678.017      417.81416      8810.8956      1.4667519      0.79032631   
     10800  -6112.8411     -6180.75        67.90897       15085.15       405.68854      8802.9033      1.4680836      0.79032631   
     10900  -6112.5527     -6181.0575      68.504807      10739.428      409.24807      8797.7728      1.4689397      0.79032631   
     11000  -6115.9217     -6180.7917      64.869921      13238.176      387.53324      8789.7711      1.470277       0.73805577   
     11100  -6116.753      -6181.7618      65.008769      17692.43       388.36272      8783.4632      1.4713329      0.73805577   
     11200  -6116.0814     -6183.6304      67.549047      14141.984      403.53836      8776.3709      1.4725218      0.73805577   
     11300  -6116.4484     -6184.3718      67.92343       10536.149      405.77492      8767.2371      1.4740559      0.73805577   
     11400  -6116.1697     -6181.8752      65.705556      14041.674      392.52533      8755.5289      1.4760271      0.73805577   
     11500  -6115.1335     -6181.9609      66.827374      18927.445      399.22708      8747.7871      1.4773334      0.73805577   
     11600  -6113.539      -6181.8747      68.335666      16379.795      408.23762      8745.3147      1.477751       0.73805577   
     11700  -6112.2177     -6179.6653      67.447599      14430.211      402.9323       8749.6571      1.4770176      0.73805577   
     11800  -6113.2955     -6182.4301      69.13462       17185.936      413.01057      8764.6007      1.4744993      0.73805577   
     11900  -6113.9787     -6183.0653      69.08659       16831.468      412.72364      8787.7138      1.4706212      0.73805577   
     12000  -6113.0212     -6182.3149      69.293708      15888.879      413.96097      8813.6253      1.4662976      0.79191781   
     12100  -6115.1901     -6180.2968      65.10672       12720.677      388.94788      8839.4512      1.4620136      0.79191781   
     12200  -6115.2545     -6180.5723      65.317877      8468.0328      390.20933      8858.6207      1.4588499      0.79191781   
     12300  -6116.4441     -6183.8828      67.438766      9949.311       402.87954      8863.3926      1.4580645      0.79191781   
     12400  -6116.9865     -6179.5993      62.612775      10296.902      374.04904      8848.1794      1.4605714      0.79191781   
     12500  -6116.2124     -6181.8694      65.656988      9041.5691      392.23519      8815.9877      1.4659047      0.79191781   
     12600  -6119.0616     -6184.0486      64.986992      11589.562      388.23263      8774.7889      1.4727873      0.79191781   
     12700  -6118.1015     -6184.846       66.744553      17151.794      398.7323       8723.6922      1.4814138      0.79191781   
     12800  -6116.7502     -6182.8215      66.071238      19663.27       394.70992      8671.3301      1.4903594      0.79191781   
     12900  -6118.1247     -6186.0001      67.875424      18688.589      405.48813      8631.9001      1.4971672      0.79191781   
     13000  -6118.5911     -6185.6211      67.030024      15645.396      400.43771      8610.4361      1.5008993      0.86583638   
     13100  -6119.0829     -6184.5436      65.460704      13265.16       391.06258      8610.6819      1.5008565      0.86583638   
     13200  -6116.1657     -6183.2562      67.090434      12026.809      400.7986       8634.4121      1.4967317      0.86583638   
     13300  -6118.6421     -6185.3911      66.748939      13567.946      398.7585       8678.648       1.4891027      0.86583638   
     13400  -6119.0143     -6184.8566      65.842323      13764.811      393.34238      8737.4485      1.4790814      0.86583638   
     13500  -6118.7268     -6182.9102      64.183422      15034.051      383.4321       8801.7759      1.4682716      0.86583638   
     13600  -6120.3446     -6182.2412      61.896672      10719.708      369.77104      8861.6352      1.4583536      0.86583638   
     13700  -6117.4638     -6184.4005      66.936621      8538.8058      399.87972      8906.6926      1.4509761      0.86583638   
     13800  -6120.4297     -6184.4267      63.996995      11801.015      382.31838      8925.9639      1.4478434      0.86583638   
     13900  -6118.7604     -6184.8472      66.086752      16309.543      394.80259      8914.8219      1.4496529      0.86583638   
     14000  -6117.8929     -6184.9937      67.100801      12771.464      400.86053      8875.2964      1.4561089      0.77999783   
     14100  -6118.4087     -6184.4177      66.009067      13084.117      394.33851      8814.5767      1.4661394      0.77999783   
     14200  -6117.1422     -6182.5571      65.414896      12639.845      390.78893      8745.7584      1.4776761      0.77999783   
     14300  -6115.8137     -6183.6032      67.789503      14237.959      404.97484      8685.2642      1.4879683      0.77999783   
     14400  -6116.8953     -6180.7451      63.849788      17878.242      381.43896      8647.7861      1.4944169      0.77999783   
     14500  -6115.0765     -6182.3335      67.256962      17690.423      401.79344      8636.7507      1.4963264      0.77999783   
     14600  -6114.903      -6183.5868      68.68387       19634.839      410.31779      8651.4878      1.4937775      0.77999783   
     14700  -6116.783      -6183.7136      66.930643      16770.254      399.84401      8688.1883      1.4874675      0.77999783   
     14800  -6118.0692     -6181.9471      63.877929      17015.113      381.60707      8739.6789      1.478704       0.77999783   
     14900  -6116.1819     -6182.4824      66.300436      14911.533      396.07915      8796.4594      1.469159       0.77999783   
     15000  -6117.3543     -6183.3581      66.003838      12208.947      394.30727      8847.2363      1.4607271      0.82387315   
     15100  -6116.7129     -6182.6659      65.953004      12206.295      394.00359      8880.4852      1.4552581      0.82387315   
     15200  -6116.9235     -6181.8646      64.941143      9583.9162      387.95872      8892.8004      1.4532428      0.82387315   
     15300  -6117.6517     -6182.9534      65.301749      10229.075      390.11298      8885.3007      1.4544694      0.82387315   
     15400  -6116.0682     -6182.6151      66.546883      11035.514      397.55142      8860.4878      1.4585425      0.82387315   
     15500  -6114.7197     -6181.9395      67.219838      14077.604      401.57166      8829.3747      1.4636821      0.82387315   
     15600  -6112.7838     -6182.7642      69.980363      15861.331      418.06305      8796.0417      1.4692288      0.82387315   
     15700  -6114.1235     -6182.6116      68.488095      17714.753      409.14823      8767.1684      1.4740675      0.82387315   
     15800  -6117.0671     -6182.8745      65.807419      14380.522      393.13386      8747.8139      1.4773289      0.82387315   
     15900  -6116.1602     -6183.2607      67.100468      18523.44       400.85854      8733.4339      1.4797613      0.82387315   
     16000  -6115.9375     -6183.3456      67.408133      18059.688      402.69653      8727.7185      1.4807304      0.73881385   
     16100  -6115.6958     -6184.7264      69.030654      15277.506      412.38948      8735.2267      1.4794576      0.73881385   
     16200  -6114.343      -6182.7438      68.400772      16275.809      408.62656      8753.4621      1.4763756      0.73881385   
     16300  -6115.2167     -6181.3131      66.096354      17482.416      394.85996      8777.5849      1.4723182      0.73881385   
     16400  -6113.5832     -6181.2586      67.67537       14935.037      404.29301      8801.2341      1.468362       0.73881385   
     16500  -6113.3705     -6181.8594      68.488882      14599.955      409.15294      8824.3645      1.4645132      0.73881385   
     16600  -6111.937      -6181.1153      69.178256      14901.17       413.27126      8845.1358      1.461074       0.73881385   
     16700  -6111.3126     -6179.791       68.478387      20275.153      409.09024      8862.9855      1.4581315      0.73881385   
     16800  -6113.9387     -6181.5569      67.618161      17142.501      403.95124      8880.4573      1.4552627      0.73881385   
     16900  -6116.823      -6183.5023      66.679318      12550.738      398.34259      8888.2472      1.4539872      0.73881385   
     17000  -6116.2277     -6182.2141      65.986417      9916.4         394.2032       8876.7532      1.4558699      0.72685516   
     17100  -6111.7997     -6179.839       68.039284      13542.779      406.46704      8848.9446      1.4604451      0.72685516   
     17200  -6112.9589     -6182.5034      69.544472      11593.302      415.45903      8816.7265      1.4657819      0.72685516   
     17300  -6115.9557     -6180.2263      64.270646      16444.206      383.95317      8785.6922      1.4709596      0.72685516   
     17400  -6114.7869     -6182.0752      67.288367      14769.062      401.98105      8760.1127      1.4752547      0.72685516   
     17500  -6114.571      -6181.5718      67.000816      16342.899      400.26322      8744.3709      1.4779105      0.72685516   
     17600  -6113.1843     -6179.3453      66.161046      13347.978      395.24643      8740.3093      1.4785973      0.72685516   
     17700  -6113.2797     -6180.3568      67.07708       14402.199      400.71882      8751.3202      1.4767369      0.72685516   
     17800  -6115.5309     -6181.3953      65.864423      16550.351      393.4744       8776.9723      1.472421       0.72685516   
     17900  -6113.1281     -6181.4333      68.305166      16575.301      408.05541      8810.6495      1.4667929      0.72685516   
     18000  -6113.1848     -6179.7923      66.607543      13312.78       397.9138       8845.7269      1.4609764      0.77116859   
     18100  -6113.4478     -6181.0451      67.597268      14664.373      403.82643      8877.7003      1.4557146      0.77116859   
     18200  -6114.1484     -6182.22        68.071554      11759.541      406.65982      8903.2201      1.451542       0.77116859   
     18300  -6114.0368     -6180.2017      66.164861      9509.342       395.26922      8916.9851      1.4493013      0.77116859   
     18400  -6113.8425     -6181.3104      67.467944      8046.4893      403.05384      8917.7285      1.4491805      0.77116859   
     18500  -6112.5771     -6180.0756      67.498504      13359.011      403.23641      8901.5245      1.4518185      0.77116859   
     18600  -6109.1591     -6178.7093      69.550271      15172.532      415.49368      8873.2072      1.4564517      0.77116859   
     18700  -6107.8126     -6177.4944      69.681869      17096.19       416.27984      8839.7042      1.4619718      0.77116859   
     18800  -6108.9924     -6178.5861      69.59376       17331.921      415.75348      8812.8023      1.4664346      0.77116859   
     18900  -6109.0673     -6178.5715      69.504118      13448.387      415.21796      8797.9434      1.4689112      0.77116859   
     19000  -6111.7785     -6181.0269      69.248386      15002.756      413.69021      8794.9627      1.4694091      0.83720333   
     19100  -6110.3808     -6180.4351      70.054319      17936.423      418.50486      8800.7991      1.4684346      0.83720333   
     19200  -6110.2109     -6178.5491      68.338194      17531.691      408.25272      8818.4949      1.4654879      0.83720333   
     19300  -6111.7382     -6178.9269      67.188664      11808.71       401.38542      8844.8259      1.4611252      0.83720333   
     19400  -6114.3686     -6181.7558      67.387199      12867.489      402.57147      8872.3531      1.4565919      0.83720333   
     19500  -6115.1791     -6182.4         67.220892      13463.846      401.57795      8892.5122      1.4532899      0.83720333   
     19600  -6113.1941     -6181.5256      68.331438      12664.226      408.21236      8901.2093      1.4518699      0.83720333   
     19700  -6112.6508     -6180.0129      67.362175      16451.49       402.42198      8896.4087      1.4526533      0.83720333   
     19800  -6111.0713     -6177.3479      66.276595      15308.136      395.93672      8882.7005      1.4548952      0.83720333   
     19900  -6108.9302     -6178.5974      69.667117      15026.177      416.19172      8864.3572      1.4579058      0.83720333   
     20000  -6110.7058     -6179.9343      69.228518      17105.391      413.57152      8849.9161      1.4602848      0.75825603   
     20100  -6111.8344     -6179.355       67.520577      15086.285      403.36828      8838.2463      1.4622129      0.75825603   
     20200  -6112.3641     -6181.4252      69.061124      16969.699      412.57151      8831.4666      1.4633354      0.75825603   
     20300  -6110.9622     -6180.137       69.174769      16243.252      413.25043      8832.0257      1.4632428      0.75825603   
     20400  -6113.3537     -6179.8013      66.447642      16736.119      396.95855      8839.6863      1.4619747      0.75825603   
     20500  -6116.1465     -6182.427       66.280476      15097.657      395.95991      8846.214       1.4608959      0.75825603   
     20600  -6115.896      -6182.6053      66.709325      15616.274      398.52185      8849.7774      1.4603077      0.75825603   
     20700  -6115.328      -6182.7799      67.451905      9541.7158      402.95803      8847.0494      1.460758       0.75825603   
     20800  -6115.3775     -6181.7323      66.354861      11445.767      396.40428      8840.6528      1.4618149      0.75825603   
     20900  -6116.0657     -6183.1917      67.126018      11858.013      401.01118      8831.37        1.4633514      0.75825603   
     21000  -6114.029      -6181.5039      67.474811      12297.702      403.09487      8816.5065      1.4658184      0.91307346   
     21100  -6112.5528     -6182.3869      69.834143      14206.194      417.18953      8802.3074      1.468183       0.91307346   
     21200  -6114.1263     -6179.3611      65.234879      18833.057      389.7135       8794.2038      1.4695359      0.91307346   
     21300  -6115.4845     -6182.3755      66.890966      14916.659      399.60698      8795.1596      1.4693762      0.91307346   
     21400  -6117.8192     -6185.7485      67.929291      13130.735      405.80994      8799.8335      1.4685957      0.91307346   
     21500  -6117.5073     -6182.6988      65.191468      11990.691      389.45416      8804.4386      1.4678276      0.91307346   
     21600  -6116.3171     -6184.3199      68.00285       14521.253      406.24938      8809.2981      1.4670179      0.91307346   
     21700  -6113.8769     -6180.6753      66.798444      14082.345      399.05425      8816.5467      1.4658118      0.91307346   
     21800  -6114.9829     -6181.8509      66.867923      14744.949      399.46932      8830.0548      1.4635694      0.91307346   
     21900  -6115.4552     -6181.5412      66.086004      17205.119      394.79813      8838.5022      1.4621706      0.91307346   
     22000  -6114.9605     -6183.0726      68.112107      14352.856      406.90208      8840.4821      1.4618431      0.71701282   
     22100  -6114.5862     -6181.9786      67.392401      14157.946      402.60255      8837.1224      1.4623989      0.71701282   
     22200  -6113.6085     -6180.1044      66.495868      12322.889      397.24666      8832.9411      1.4630911      0.71701282   
     22300  -6114.719      -6181.7986      67.079588      12918.261      400.7338       8829.2221      1.4637074      0.71701282   
     22400  -6116.3935     -6183.8483      67.454823      14944.635      402.97546      8823.0428      1.4647325      0.71701282   
     22500  -6116.619      -6182.2795      65.660476      18614.9        392.25602      8811.4815      1.4666544      0.71701282   
     22600  -6114.6804     -6179.5411      64.860662      14448.531      387.47793      8798.5883      1.4688036      0.71701282   
     22700  -6115.1445     -6180.5031      65.358564      15871.768      390.4524       8791.7363      1.4699483      0.71701282   
     22800  -6114.1611     -6181.7897      67.628585      17930.983      404.01352      8791.3476      1.4700133      0.71701282   
     22900  -6113.3293     -6179.8245      66.495214      19957.557      397.24275      8800.1679      1.4685399      0.71701282   
     23000  -6114.7606     -6183.4049      68.644303      17488.203      410.08142      8817.6922      1.4656213      0.70909503   
     23100  -6115.678      -6182.1186      66.440619      13065.826      396.9166       8834.8459      1.4627757      0.70909503   
     23200  -6115.915      -6182.0036      66.088629      13231.683      394.81381      8851.7087      1.4599891      0.70909503   
     23300  -6117.3387     -6182.6286      65.289861      15401.914      390.04197      8860.3218      1.4585698      0.70909503   
     23400  -6117.2908     -6184.7368      67.446046      13595.015      402.92303      8857.4138      1.4590487      0.70909503   
     23500  -6114.0495     -6178.2153      64.165829      14689.967      383.32699      8846.2031      1.4608977      0.70909503   
     23600  -6113.5976     -6180.6496      67.051998      10395.291      400.56898      8834.5332      1.4628275      0.70909503   
     23700  -6113.5787     -6183.3435      69.764832      17844.422      416.77546      8821.8233      1.464935       0.70909503   
     23800  -6115.6694     -6180.8942      65.224788      17334.055      389.65322      8804.902       1.4677503      0.70909503   
     23900  -6115.7883     -6182.1064      66.3181        15877.579      396.18467      8784.7689      1.4711142      0.70909503   
     24000  -6115.2397     -6182.7116      67.471869      12899.107      403.0773       8765.2444      1.474391       0.93768811   
     24100  -6115.9078     -6183.7237      67.815908      16946.016      405.13259      8752.5627      1.4765273      0.93768811   
     24200  -6114.276      -6181.9547      67.678687      18357.938      404.31282      8748.7607      1.477169       0.93768811   
     24300  -6115.0505     -6183.6464      68.595941      14936.711      409.7925       8755.0777      1.4761032      0.93768811   
     24400  -6116.0372     -6181.9315      65.894294      21090.953      393.65285      8767.1395      1.4740724      0.93768811   
     24500  -6114.9395     -6181.8231      66.88358       20449.239      399.56285      8787.459       1.4706638      0.93768811   
     24600  -6118.4304     -6183.2922      64.861833      17808.446      387.48492      8813.2095      1.4663668      0.93768811   
     24700  -6116.7813     -6184.0655      67.2842        12215.912      401.95616      8833.8509      1.4629405      0.93768811   
     24800  -6116.1469     -6182.1276      65.980668      12963.561      394.16885      8844.4276      1.461191       0.93768811   
     24900  -6116.5956     -6181.0376      64.441985      9427.5933      384.97675      8848.6471      1.4604942      0.93768811   
     25000  -6115.6661     -6181.0114      65.345363      11355.474      390.37353      8844.4054      1.4611947      0.9603394    
     25100  -6115.5837     -6183.3494      67.765665      15526.878      404.83243      8832.5033      1.4631637      0.9603394    
     25200  -6113.4643     -6182.7787      69.314393      13393.084      414.08454      8816.2475      1.4658615      0.9603394    
     25300  -6113.8899     -6180.8466      66.956653      16688.634      399.99939      8800.1137      1.468549       0.9603394    
     25400  -6112.3372     -6180.7255      68.388363      16009.547      408.55243      8790.6666      1.4701272      0.9603394    
     25500  -6115.2998     -6180.7153      65.415489      13369.055      390.79247      8789.2254      1.4703682      0.9603394    
     25600  -6116.2504     -6181.5868      65.336344      18212.041      390.31965      8791.6939      1.4699554      0.9603394    
     25700  -6116.4076     -6183.0802      66.672593      18446.305      398.30242      8793.6643      1.469626       0.9603394    
     25800  -6116.358      -6182.7599      66.401928      15693.159      396.68546      8794.7407      1.4694462      0.9603394    
     25900  -6115.242      -6180.2892      65.047269      12378.257      388.59272      8797.8663      1.4689241      0.9603394    
     26000  -6116.4468     -6183.6944      67.247562      13949.931      401.73728      8802.9347      1.4680784      0.75757652   
     26100  -6116.1577     -6182.4086      66.25093       13511.462      395.7834       8808.7454      1.4671099      0.75757652   
     26200  -6114.3251     -6179.2122      64.887092      14292.964      387.63582      8815.2733      1.4660235      0.75757652   
     26300  -6114.0395     -6182.7776      68.73813       13740.639      410.64194      8824.5074      1.4644894      0.75757652   
     26400  -6115.7185     -6180.5996      64.88105       13625.211      387.59973      8832.2724      1.4632019      0.75757652   
     26500  -6116.5129     -6181.1704      64.657527      10392.892      386.2644       8839.1232      1.4620679      0.75757652   
     26600  -6114.3739     -6181.3093      66.935344      13708.929      399.87209      8842.1968      1.4615596      0.75757652   
     26700  -6115.9177     -6181.6546      65.736879      12374.094      392.71245      8841.0791      1.4617444      0.75757652   
     26800  -6117.5723     -6182.2165      64.644193      13778.37       386.18474      8834.6621      1.4628061      0.75757652   
     26900  -6117.6259     -6184.9592      67.333295      13544.516      402.24945      8822.7799      1.4647762      0.75757652   
     27000  -6118.1473     -6184.6523      66.504956      14997.475      397.30095      8806.0401      1.4675607      0.75237861   
     27100  -6117.5762     -6182.8112      65.235053      13239.284      389.71454      8785.3821      1.4710115      0.75237861   
     27200  -6115.7955     -6182.8547      67.059218      15265.782      400.61211      8767.0303      1.4740907      0.75237861   
     27300  -6115.8031     -6182.7242      66.921093      14970.973      399.78695      8756.5016      1.4758631      0.75237861   
     27400  -6116.8265     -6182.7693      65.942776      16751.099      393.94248      8757.5172      1.475692       0.75237861   
     27500  -6115.6231     -6181.5465      65.923449      19895.342      393.82702      8766.6637      1.4741523      0.75237861   
     27600  -6114.6329     -6181.5724      66.939482      17732.345      399.89681      8786.6732      1.4707953      0.75237861   
     27700  -6113.2059     -6180.4795      67.273615      20795.144      401.89292      8814.3449      1.4661779      0.75237861   
     27800  -6114.5041     -6180.3816      65.877547      15987.23       393.5528       8847.6559      1.4606578      0.75237861   
     27900  -6114.1938     -6182.0987      67.90487       14244.489      405.66404      8878.6882      1.4555526      0.75237861   
     28000  -6114.8868     -6182.379       67.492202      12605.955      403.19876      8899.4314      1.45216        0.70940931   
     28100  -6113.9438     -6180.4919      66.548126      16523.674      397.55885      8904.7483      1.4512929      0.70940931   
     28200  -6114.4534     -6183.1074      68.653999      16995.995      410.13934      8895.663       1.4527751      0.70940931   
     28300  -6114.6325     -6182.9591      68.326546      11264.931      408.18314      8873.5326      1.4563983      0.70940931   
     28400  -6111.1257     -6180.8956      69.769882      12131.139      416.80564      8843.0695      1.4614154      0.70940931   
     28500  -6110.7306     -6178.9409      68.210291      17308.331      407.48863      8810.0838      1.4668871      0.70940931   
     28600  -6110.5322     -6179.7651      69.232996      16353.844      413.59827      8784.4164      1.4711732      0.70940931   
     28700  -6110.9794     -6180.7024      69.72303       13730.368      416.52574      8769.0792      1.4737463      0.70940931   
     28800  -6112.1534     -6177.1594      65.006083      13417.139      388.34667      8763.703       1.4746504      0.70940931   
     28900  -6112.9281     -6183.2029      70.274823      15982.654      419.82216      8772.0822      1.4732418      0.70940931   
     29000  -6113.1339     -6182.2075      69.073619      14311.995      412.64615      8792.2711      1.4698589      0.8634728    
     29100  -6113.1155     -6180.2991      67.18363       12737.142      401.35535      8816.3889      1.465838       0.8634728    
     29200  -6112.0417     -6178.8726      66.830856      13404.618      399.24788      8843.1673      1.4613992      0.8634728    
     29300  -6112.8451     -6182.737       69.891944      15382.41       417.53484      8871.4133      1.4567462      0.8634728    
     29400  -6114.178      -6180.7824      66.604375      14454.532      397.89488      8891.395       1.4534725      0.8634728    
     29500  -6113.5626     -6182.5452      68.982556      12628.065      412.10214      8899.2065      1.4521967      0.8634728    
     29600  -6111.2167     -6177.9284      66.711651      11717.324      398.53575      8896.5678      1.4526274      0.8634728    
     29700  -6110.7659     -6180.1162      69.350354      12793.289      414.29937      8885.3307      1.4544645      0.8634728    
     29800  -6112.4465     -6179.4426      66.996141      17410.831      400.23529      8866.1721      1.4576074      0.8634728    
     29900  -6111.6718     -6182.8315      71.159686      15505.187      425.10833      8844.4857      1.4611814      0.8634728    
     30000  -6110.7553     -6180.4196      69.664296      14135.689      416.17486      8819.4135      1.4653353      0.74793098   
     30100  -6114.3979     -6179.9721      65.57422       13574.729      391.74073      8795.709       1.4692844      0.74793098   
     30200  -6115.5026     -6181.8956      66.39299       12674.081      396.63206      8774.3451      1.4728618      0.74793098   
     30300  -6116.9905     -6182.6649      65.674449      15466.292      392.3395       8754.4062      1.4762164      0.74793098   
     30400  -6114.613      -6182.9957      68.382642      15843.956      408.51825      8741.0361      1.4784744      0.74793098   
     30500  -6116.3113     -6184.3421      68.030745      15739.228      406.41602      8737.9801      1.4789915      0.74793098   
     30600  -6118.9426     -6184.1424      65.199742      15263.032      389.50359      8744.0123      1.4779712      0.74793098   
     30700  -6119.4556     -6184.9556      65.500044      15042.192      391.2976       8756.1087      1.4759294      0.74793098   
     30800  -6119.0473     -6185.5121      66.464867      14010.581      397.06146      8771.1388      1.4734002      0.74793098   
     30900  -6119.0661     -6184.9958      65.929611      13140.741      393.86384      8786.4856      1.4708267      0.74793098   
     31000  -6118.7371     -6183.0443      64.307228      14778.849      384.17171      8800.8545      1.4684253      0.84842475   
     31100  -6114.3837     -6180.7274      66.343775      11675.3        396.33805      8811.6856      1.4666204      0.84842475   
     31200  -6114.5497     -6181.6235      67.073832      11274.788      400.69942      8822.6336      1.4648005      0.84842475   
     31300  -6113.541      -6182.2404      68.699479      13460.508      410.41104      8831.0316      1.4634075      0.84842475   
     31400  -6114.1262     -6180.5951      66.468983      18655.022      397.08605      8836.6189      1.4624822      0.84842475   
     31500  -6114.7732     -6182.5671      67.793957      13859.153      405.00145      8836.5362      1.4624959      0.84842475   
     31600  -6113.8875     -6179.5974      65.709959      15387.925      392.55163      8829.4112      1.4636761      0.84842475   
     31700  -6117.2809     -6184.9944      67.713473      13270.365      404.52064      8815.393       1.4660036      0.84842475   
     31800  -6116.5905     -6182.1202      65.529686      15848.404      391.47468      8792.0069      1.4699031      0.84842475   
     31900  -6117.1719     -6182.021       64.849098      18108.777      387.40885      8765.6289      1.4743264      0.84842475   
     32000  -6117.7051     -6182.5418      64.836757      11948.347      387.33512      8744.934       1.4778154      0.80469697   
     32100  -6114.0389     -6179.3262      65.28737       13197.769      390.02708      8728.1931      1.4806499      0.80469697   
     32200  -6114.7951     -6181.8171      67.021979      15827.6        400.38965      8722.2591      1.4816572      0.80469697   
     32300  -6117.7282     -6183.7123      65.984085      14424.344      394.18927      8724.8242      1.4812216      0.80469697   
     32400  -6120.3554     -6184.1425      63.787041      13697.872      381.06411      8730.8176      1.4802048      0.80469697   
     32500  -6120.3549     -6184.0771      63.722256      15096.731      380.67709      8739.3895      1.4787529      0.80469697   
     32600  -6119.5377     -6184.723       65.185329      12429.555      389.41749      8749.3427      1.4770707      0.80469697   
     32700  -6118.7551     -6182.1933      63.43825       10672.991      378.98043      8758.1578      1.475584       0.80469697   
     32800  -6120.9682     -6184.7716      63.80336       13693.176      381.1616       8765.0654      1.4744212      0.80469697   
     32900  -6119.1777     -6183.6181      64.440473      11288.608      384.96772      8766.5877      1.4741651      0.80469697   
     33000  -6117.3459     -6182.5663      65.220409      10871.076      389.62706      8760.3947      1.4752073      0.73755551   
     33100  -6119.7126     -6185.6151      65.902511      8470.4693      393.70194      8754.4844      1.4762032      0.73755551   
     33200  -6120.879      -6183.867       62.98801       12672.769      376.2907       8746.7476      1.4775089      0.73755551   
     33300  -6119.434      -6184.6616      65.227597      13716.073      389.67         8738.1675      1.4789597      0.73755551   
     33400  -6119.6328     -6184.8188      65.185968      12385.68       389.42131      8729.7925      1.4803786      0.73755551   
     33500  -6118.9836     -6184.8836      65.900032      13617.378      393.68713      8724.6143      1.4812572      0.73755551   
     33600  -6117.4639     -6184.0952      66.631365      17852.047      398.05612      8723.4209      1.4814599      0.73755551   
     33700  -6116.2763     -6184.6112      68.334862      16271.259      408.23282      8729.5893      1.480413       0.73755551   
     33800  -6116.6127     -6183.7777      67.164961      15715.517      401.24382      8743.2791      1.4780951      0.73755551   
     33900  -6117.0633     -6182.6059      65.542635      20051.435      391.55204      8761.8979      1.4749542      0.73755551   
     34000  -6116.3745     -6183.1716      66.797103      15406.362      399.04624      8782.9014      1.471427       0.90186558   
     34100  -6115.3189     -6182.4434      67.124498      10760.506      401.0021       8803.6838      1.4679534      0.90186558   
     34200  -6115.5794     -6180.1086      64.529262      12946.173      385.49814      8823.1587      1.4647133      0.90186558   
     34300  -6117.3164     -6182.1495      64.833141      12617.455      387.31352      8840.4159      1.4618541      0.90186558   
     34400  -6116.5203     -6181.5961      65.07579       9139.5843      388.7631       8848.1285      1.4605798      0.90186558   
     34500  -6115.9314     -6182.1038      66.172404      12839.58       395.31428      8845.0396      1.4610899      0.90186558   
     34600  -6115.3106     -6180.4318      65.121165      16063.705      389.03418      8832.3052      1.4631965      0.90186558   
     34700  -6113.0178     -6181.0045      67.986646      13099.789      406.15257      8814.9264      1.4660812      0.90186558   
     34800  -6114.1065     -6182.4493      68.342844      16382.161      408.2805       8799.1026      1.4687177      0.90186558   
     34900  -6115.9944     -6182.9164      66.922053      15258.431      399.79269      8787.4206      1.4706702      0.90186558   
     35000  -6116.7389     -6182.7233      65.984343      12865.848      394.1908       8781.2315      1.4717068      0.78434715   
     35100  -6118.2113     -6181.8209      63.609666      17940.716      380.00447      8775.743       1.4726272      0.78434715   
     35200  -6117.5228     -6182.4703      64.947537      13970.124      387.99692      8770.689       1.4734758      0.78434715   
     35300  -6115.6907     -6182.2385      66.547869      15768.339      397.55731      8769.4242      1.4736883      0.78434715   
     35400  -6115.3202     -6184.4392      69.119046      19334.659      412.91754      8773.2817      1.4730403      0.78434715   
     35500  -6115.8905     -6183.4252      67.534712      18944.774      403.45272      8777.4664      1.4723381      0.78434715   
     35600  -6117.6234     -6182.2923      64.668896      18418.006      386.33232      8784.7186      1.4711226      0.78434715   
     35700  -6116.4986     -6180.8103      64.311655      17708.93       384.19816      8795.7515      1.4692773      0.78434715   
     35800  -6115.7025     -6182.086       66.383499      18132.369      396.57536      8807.9783      1.4672377      0.78434715   
     35900  -6115.9512     -6181.7988      65.847618      16123.728      393.37401      8820.3438      1.4651807      0.78434715   
     36000  -6116.8688     -6183.882       67.013171      13815.915      400.33703      8833.7596      1.4629556      0.77156788   
     36100  -6116.8385     -6183.3834      66.544957      8421.2722      397.53992      8845.3859      1.4610327      0.77156788   
     36200  -6115.8149     -6182.1564      66.341541      12098.143      396.32471      8854.0261      1.4596069      0.77156788   
     36300  -6114.3893     -6183.5162      69.126851      10130.618      412.96417      8857.3714      1.4590557      0.77156788   
     36400  -6115.6616     -6181.4702      65.808628      13272.468      393.14108      8852.0326      1.4599356      0.77156788   
     36500  -6115.3731     -6180.7891      65.415936      14262.842      390.79514      8840.9991      1.4617576      0.77156788   
     36600  -6114.5557     -6181.6792      67.123537      16148.2        400.99635      8826.9179      1.4640895      0.77156788   
     36700  -6113.5647     -6181.0522      67.487506      16373.418      403.17071      8811.4884      1.4666532      0.77156788   
     36800  -6113.386      -6181.3964      68.010381      14039.066      406.29437      8800.7424      1.4684441      0.77156788   
     36900  -6113.3518     -6181.0439      67.692096      17060.209      404.39293      8797.4561      1.4689926      0.77156788   
     37000  -6113.6065     -6182.1266      68.520077      14878.991      409.33929      8797.8304      1.4689301      0.73474423   
     37100  -6112.4368     -6179.1173      66.680494      14059.387      398.34962      8804.097       1.4678845      0.73474423   
     37200  -6113.7382     -6182.9707      69.232461      14166.492      413.59508      8815.6849      1.4659551      0.73474423   
     37300  -6114.6901     -6182.2291      67.539021      15635.194      403.47846      8827.0492      1.4640677      0.73474423   
     37400  -6114.4497     -6180.233       65.78331       15425.129      392.98984      8835.0567      1.4627408      0.73474423   
     37500  -6115.8686     -6180.4202      64.551549      12904.572      385.63129      8841.484       1.4616775      0.73474423   
     37600  -6114.7447     -6180.0858      65.341077      15441.412      390.34793      8843.3012      1.4613771      0.73474423   
     37700  -6114.7273     -6180.5025      65.775236      12070.059      392.9416       8839.6813      1.4619756      0.73474423   
     37800  -6114.1826     -6181.6326      67.450016      14737.653      402.94675      8830.3165      1.463526       0.73474423   
     37900  -6114.3375     -6182.5492      68.211608      12958.753      407.4965       8815.2083      1.4660343      0.73474423   
     38000  -6111.4807     -6178.5493      67.068607      16836.684      400.66821      8796.7442      1.4691115      0.70921969   
     38100  -6113.167      -6181.4741      68.307084      20189.934      408.06687      8786.4749      1.4708285      0.70921969   
     38200  -6115.5652     -6183.2212      67.655999      15903.909      404.17729      8782.4101      1.4715093      0.70921969   
     38300  -6114.9777     -6182.9167      67.939006      16951.911      405.86797      8780.6315      1.4718073      0.70921969   
     38400  -6113.4206     -6180.6293      67.208678      17111.407      401.50499      8783.1714      1.4713817      0.70921969   
     38500  -6115.0145     -6183.2158      68.201335      14484.341      407.43513      8792.7055      1.4697863      0.70921969   
     38600  -6113.1474     -6181.3374      68.190036      8938.8015      407.36763      8802.9692      1.4680726      0.70921969   
     38700  -6113.706      -6182.3416      68.635607      13139.357      410.02947      8815.1504      1.466044       0.70921969   
     38800  -6112.9753     -6180.8024      67.82707       16853.217      405.19927      8824.7633      1.464447       0.70921969   
     38900  -6112.6381     -6182.563       69.924864      15417.6        417.7315       8832.3495      1.4631891      0.70921969   
     39000  -6111.8385     -6179.4552      67.61668       16172.369      403.9424       8834.8021      1.4627829      0.75629791   
     39100  -6112.5413     -6179.4307      66.889408      15371.12       399.59767      8834.2572      1.4628732      0.75629791   
     39200  -6114.0915     -6181.5161      67.424671      13659.513      402.79533      8829.6042      1.4636441      0.75629791   
     39300  -6113.3974     -6180.1725      66.775107      14655.484      398.91484      8818.7442      1.4654465      0.75629791   
     39400  -6113.2113     -6182.558       69.346704      12818.662      414.27757      8804.8071      1.4677662      0.75629791   
     39500  -6112.0822     -6181.0799      68.997733      12966.98       412.19281      8786.1924      1.4708758      0.75629791   
     39600  -6112.987      -6179.7105      66.723515      15992.054      398.60662      8772.0357      1.4732496      0.75629791   
     39700  -6114.9277     -6181.3942      66.466579      14288.571      397.07169      8764.8434      1.4744585      0.75629791   
     39800  -6115.126      -6182.8327      67.706719      17583.569      404.48029      8760.1784      1.4752437      0.75629791   
     39900  -6115.6        -6180.8479      65.247892      18873.816      389.79125      8759.1495      1.475417       0.75629791   
     40000  -6115.3337     -6182.3543      67.020589      16002.548      400.38134      8766.7582      1.4741365      0.88832571   
     40100  -6117.0942     -6183.3412      66.246972      14884.487      395.75975      8774.3268      1.4728649      0.88832571   
     40200  -6116.2212     -6183.344       67.122734      13505.084      400.99156      8783.6078      1.4713086      0.88832571   
     40300  -6115.7837     -6182.3649      66.581139      12351.781      397.75607      8795.6224      1.4692989      0.88832571   
     40400  -6117.7045     -6183.189       65.484467      14342.427      391.20454      8807.7647      1.4672733      0.88832571   
     40500  -6114.8645     -6183.066       68.201542      12109.245      407.43637      8818.5754      1.4654746      0.88832571   
     40600  -6113.9224     -6181.6697      67.74738       12019.454      404.7232       8827.9923      1.4639113      0.88832571   
     40700  -6115.1091     -6181.0557      65.946635      15297.164      393.96554      8834.1195      1.462896       0.88832571   
     40800  -6113.0201     -6182.234       69.213939      15849.296      413.48443      8836.3464      1.4625273      0.88832571   
     40900  -6113.0886     -6179.3295      66.240919      11065.422      395.72359      8832.9016      1.4630977      0.88832571   
     41000  -6113.3468     -6181.9344      68.587552      8324.0795      409.74239      8829.4496      1.4636697      0.73655564   
     41100  -6113.5059     -6182.3272      68.821212      14331.143      411.13827      8825.9625      1.464248       0.73655564   
     41200  -6110.7053     -6179.7998      69.094495      16969.938      412.77087      8821.1329      1.4650497      0.73655564   
     41300  -6112.1056     -6180.1473      68.041641      15119.967      406.48111      8821.5348      1.4649829      0.73655564   
     41400  -6113.1163     -6181.1797      68.063341      16729.697      406.61075      8824.6177      1.4644711      0.73655564   
     41500  -6113.1091     -6180.8694      67.760299      17832.624      404.80037      8829.2754      1.4636986      0.73655564   
     41600  -6113.193      -6181.192       67.99899       14686.01       406.22632      8833.1198      1.4630615      0.73655564   
     41700  -6113.9111     -6180.3326      66.421422      16400.268      396.80192      8836.5167      1.4624991      0.73655564   
     41800  -6113.6092     -6180.6426      67.03334       11317.277      400.45752      8837.5656      1.4623255      0.73655564   
     41900  -6112.1249     -6180.1076      67.9827        14184.288      406.129        8836.3464      1.4625273      0.73655564   
     42000  -6113.9494     -6181.3985      67.449098      16226.8        402.94126      8836.1566      1.4625587      0.81357295   
     42100  -6114.8166     -6182.5531      67.736506      13766.907      404.65823      8833.302       1.4630314      0.81357295   
     42200  -6117.2353     -6182.2542      65.018892      12937.078      388.42319      8825.9649      1.4642476      0.81357295   
     42300  -6117.3241     -6183.3921      66.068004      13838.197      394.69059      8814.1175      1.4662157      0.81357295   
     42400  -6115.7097     -6182.0612      66.351583      16223.433      396.3847       8796.7311      1.4691137      0.81357295   
     42500  -6116.9447     -6183.1885      66.243806      16387.372      395.74084      8780.8007      1.471779       0.81357295   
     42600  -6116.9749     -6183.9621      66.987197      12997.615      400.18186      8768.1552      1.4739016      0.81357295   
     42700  -6116.8523     -6182.7044      65.852109      12218.44       393.40084      8762.448       1.4748616      0.81357295   
     42800  -6118.8961     -6184.6412      65.745031      13757.638      392.76115      8766.3616      1.4742032      0.81357295   
     42900  -6118.658      -6183.1533      64.495289      14236.613      385.29519      8774.0239      1.4729157      0.81357295   
     43000  -6117.3171     -6184.7426      67.425475      14885.54       402.80014      8783.6756      1.4712973      0.74598772   
     43100  -6118.5928     -6182.748       64.155244      16676.954      383.26376      8796.5936      1.4691366      0.74598772   
     43200  -6117.1933     -6183.3604      66.167075      15427.502      395.28245      8811.9235      1.4665808      0.74598772   
     43300  -6118.3447     -6184.4623      66.11768       12928.117      394.98736      8824.6049      1.4644733      0.74598772   
     43400  -6117.2488     -6183.9194      66.670569      17434.813      398.29032      8833.1669      1.4630537      0.74598772   
     43500  -6116.4758     -6180.9345      64.458766      15084.626      385.077        8835.2681      1.4627058      0.74598772   
     43600  -6116.2379     -6182.2405      66.002617      14769.228      394.29998      8834.4828      1.4628358      0.74598772   
     43700  -6115.8346     -6181.7962      65.961602      10681.402      394.05495      8834.8677      1.4627721      0.74598772   
     43800  -6116.9329     -6182.939       66.006069      12589.705      394.3206       8838.029       1.4622489      0.74598772   
     43900  -6116.7985     -6181.5652      64.766649      14494.434      386.91629      8837.1813      1.4623891      0.74598772   
     44000  -6117.9191     -6185.1585      67.239407      12944.861      401.68857      8832.2977      1.4631977      0.77527549   
     44100  -6115.6493     -6181.0664      65.417116      10961.947      390.80219      8824.5688      1.4644792      0.77527549   
     44200  -6117.1963     -6182.1146      64.918305      12881.915      387.82229      8822.6462      1.4647984      0.77527549   
     44300  -6116.7671     -6181.4976      64.730435      15403.053      386.69995      8824.0939      1.4645581      0.77527549   
     44400  -6117.1543     -6184.05        66.895697      15921.723      399.63524      8829.4163      1.4636752      0.77527549   
     44500  -6116.5188     -6183.1145      66.595696      19805.706      397.84303      8836.0014      1.4625844      0.77527549   
     44600  -6116.1386     -6183.6878      67.54919       19306.482      403.53921      8844.2683      1.4612173      0.77527549   
     44700  -6116.3025     -6182.1301      65.827604      16245.585      393.25445      8855.6299      1.4593426      0.77527549   
     44800  -6115.2693     -6183.2239      67.954651      14369.514      405.96144      8867.796       1.4573405      0.77527549   
     44900  -6113.8992     -6178.9159      65.016674      13716.15       388.40994      8879.9743      1.4553418      0.77527549   
     45000  -6115.108      -6181.185       66.076986      11897.336      394.74425      8891.7966      1.4534068      0.80510294   
     45100  -6113.4927     -6180.8159      67.323111      14314.772      402.18861      8896.4187      1.4526517      0.80510294   
     45200  -6112.4689     -6179.3935      66.92458       12166.759      399.80779      8896.8101      1.4525878      0.80510294   
     45300  -6112.6881     -6180.6696      67.981458      14010.61       406.12158      8897.0983      1.4525408      0.80510294   
     45400  -6114.8931     -6181.4796      66.586507      14935.234      397.78813      8894.4005      1.4529813      0.80510294   
     45500  -6115.2184     -6181.9601      66.741743      16277.181      398.71551      8884.6749      1.4545718      0.80510294   
     45600  -6113.6732     -6180.8326      67.159403      15197.747      401.21062      8869.4573      1.4570675      0.80510294   
     45700  -6113.6167     -6181.5697      67.952963      17394.397      405.95135      8851.9842      1.4599436      0.80510294   
     45800  -6111.9762     -6182.1603      70.184029      19117.307      419.27975      8836.788       1.4624542      0.80510294   
     45900  -6112.0052     -6180.2407      68.235468      15214.199      407.63904      8829.2618      1.4637008      0.80510294   
     46000  -6110.1209     -6178.1039      67.983021      14007.22       406.13092      8833.7293      1.4629606      0.8607636    
     46100  -6110.2677     -6180.4384      70.170664      10727.281      419.19991      8853.1884      1.459745       0.8607636    
     46200  -6112.4161     -6181.2967      68.880633      10052.739      411.49325      8881.7329      1.4550536      0.8607636    
     46300  -6114.4742     -6181.044       66.569797      12569.719      397.68831      8912.7127      1.449996       0.8607636    
     46400  -6113.5254     -6180.5343      67.008859      10441.228      400.31127      8937.382       1.4459937      0.8607636    
     46500  -6115.1533     -6180.8513      65.698006      14800.19       392.48023      8947.2987      1.444391       0.8607636    
     46600  -6112.3693     -6180.3016      67.932295      8895.8981      405.82788      8942.114       1.4452285      0.8607636    
     46700  -6111.504      -6177.0834      65.579424      10847.906      391.77182      8924.6719      1.448053       0.8607636    
     46800  -6112.2191     -6179.5997      67.380608      11332.922      402.5321       8899.5339      1.4521432      0.8607636    
     46900  -6109.764      -6178.3466      68.58256       11939.712      409.71257      8869.5544      1.4570515      0.8607636    
     47000  -6111.5872     -6179.2945      67.707282      13206.756      404.48365      8840.0964      1.4619069      0.75940131   
     47100  -6111.2559     -6181.2981      70.042157      14104.262      418.43221      8817.0829      1.4657226      0.75940131   
     47200  -6113.1337     -6182.8391      69.705421      14091.079      416.42054      8799.2694      1.4686899      0.75940131   
     47300  -6115.0693     -6179.6065      64.537204      14439.223      385.54559      8786.9882      1.4707426      0.75940131   
     47400  -6114.5836     -6182.0605      67.476923      14571.559      403.10749      8782.1894      1.4715462      0.75940131   
     47500  -6114.5205     -6180.6543      66.133749      13796.187      395.08336      8781.678       1.471632       0.75940131   
     47600  -6113.6076     -6181.4143      67.806645      12001.579      405.07725      8787.9357      1.470584       0.75940131   
     47700  -6113.4324     -6178.8314      65.399079      12632.009      390.69443      8801.8225      1.4682639      0.75940131   
     47800  -6113.3332     -6181.4758      68.142574      14353.123      407.08409      8821.0591      1.4650619      0.75940131   
     47900  -6115.8007     -6182.351       66.550213      11326.909      397.57132      8839.8734      1.4619438      0.75940131   
     48000  -6117.2355     -6183.5409      66.305394      12745.082      396.10877      8849.9533      1.4602787      0.79431494   
     48100  -6118.3453     -6184.4346      66.089283      14144.609      394.81772      8847.3882      1.460702       0.79431494   
     48200  -6118.1066     -6183.306       65.199433      12482.705      389.50175      8834.3996      1.4628496      0.79431494   
     48300  -6115.7489     -6182.6205      66.871606      9246.5842      399.49132      8815.5865      1.4659714      0.79431494   
     48400  -6115.1101     -6181.4934      66.383259      13909.332      396.57393      8794.5736      1.4694741      0.79431494   
     48500  -6112.9081     -6178.9708      66.062727      15332.337      394.65907      8779.8108      1.4719449      0.79431494   
     48600  -6116.1678     -6181.479       65.311265      14256.549      390.16983      8772.7975      1.4731216      0.79431494   
     48700  -6115.5665     -6181.7552      66.188649      14020.732      395.41133      8771.0346      1.4734177      0.79431494   
     48800  -6114.4119     -6183.2858      68.873883      12747.308      411.45293      8775.6031      1.4726507      0.79431494   
     48900  -6113.76       -6181.1065      67.346502      13163.306      402.32835      8787.9659      1.470579       0.79431494   
     49000  -6114.3372     -6182.636       68.298829      12566.594      408.01756      8806.5195      1.4674808      0.72703567   
     49100  -6115.0157     -6181.3997      66.384028      14399.609      396.57853      8829.7389      1.4636217      0.72703567   
     49200  -6115.2439     -6180.6456      65.401681      18345.21       390.70998      8853.4609      1.4597001      0.72703567   
     49300  -6115.8779     -6181.7367      65.85889       16728.426      393.44135      8875.9912      1.4559949      0.72703567   
     49400  -6117.1436     -6184.0184      66.874786      14599.023      399.51032      8889.4838      1.453785       0.72703567   
     49500  -6116.8301     -6183.1236      66.293458      12574.535      396.03746      8888.4676      1.4539512      0.72703567   
     49600  -6114.8492     -6181.9474      67.098217      11236.18       400.84509      8874.0919      1.4563065      0.72703567   
     49700  -6114.376      -6180.8999      66.523911      13545.47       397.41418      8853.2201      1.4597398      0.72703567   
     49800  -6115.7061     -6182.83        67.12398       15011.532      400.999        8829.6181      1.4636418      0.72703567   
     49900  -6116.3049     -6181.5631      65.258213      17724.13       389.8529       8803.9514      1.4679088      0.72703567   
     50000  -6117.8016     -6184.0637      66.262088      15936.332      395.85006      8777.478       1.4723361      0.76583954   
     50100  -6119.624      -6186.3184      66.694431      18522.083      398.43288      8752.0138      1.4766199      0.76583954   
     50200  -6118.0641     -6183.6666      65.602449      18660.336      391.90937      8732.3244      1.4799494      0.76583954   
     50300  -6116.8676     -6183.7469      66.879271      15642.009      399.53711      8726.2485      1.4809798      0.76583954   
     50400  -6117.8643     -6182.8234      64.959121      14944.703      388.06613      8731.6653      1.4800611      0.76583954   
     50500  -6117.5425     -6183.6781      66.135577      13562.166      395.09428      8749.8145      1.4769911      0.76583954   
     50600  -6114.9749     -6178.9371      63.962188      14614.586      382.11044      8779.9723      1.4719178      0.76583954   
     50700  -6113.0037     -6181.0141      68.010433      16536.731      406.29467      8822.7313      1.4647843      0.76583954   
     50800  -6113.0904     -6181.8851      68.794697      14063.51       410.97988      8873.1417      1.4564625      0.76583954   
     50900  -6113.8785     -6180.8172      66.938697      13358.895      399.89212      8921.4371      1.448578       0.76583954   
     51000  -6112.4789     -6179.8361      67.357142      15659.785      402.39191      8956.8407      1.4428523      0.85561396   
     51100  -6110.3602     -6179.8076      69.447398      13573.764      414.87912      8973.8493      1.4401175      0.85561396   
     51200  -6112.5039     -6179.0504      66.546463      12077.85       397.54891      8974.2637      1.4400511      0.85561396   
     51300  -6110.7052     -6178.6986      67.993403      12857.295      406.19294      8959.6114      1.4424061      0.85561396   
     51400  -6112.9586     -6180.0569      67.098323      16678.633      400.84573      8930.4345      1.4471186      0.85561396   
     51500  -6112.4053     -6182.7851      70.379723      10293.17       420.44883      8891.2388      1.453498       0.85561396   
     51600  -6110.5304     -6178.6641      68.13366       13716.34       407.03083      8845.4287      1.4610256      0.85561396   
     51700  -6115.8902     -6182.1032      66.212975      20730.504      395.55666      8805.366       1.467673       0.85561396   
     51800  -6115.3487     -6181.4076      66.058932      18952.191      394.6364       8770.6628      1.4734802      0.85561396   
     51900  -6112.8377     -6180.5301      67.692391      13135.665      404.39469      8744.5412      1.4778818      0.85561396   
     52000  -6114.1191     -6180.2592      66.140106      20320.319      395.12134      8735.9272      1.479339       0.75569185   
     52100  -6114.8497     -6181.7659      66.9162        22785.008      399.75773      8746.7122      1.4775149      0.75569185   
     52200  -6115.7261     -6182.9893      67.263165      19848.617      401.83049      8772.64        1.4731481      0.75569185   
     52300  -6115.9062     -6183.5785      67.672321      12995.645      404.27479      8808.702       1.4671172      0.75569185   
     52400  -6115.129      -6182.8057      67.676712      11428.827      404.30103      8846.7611      1.4608056      0.75569185   
     52500  -6116.5819     -6181.1667      64.584799      9463.1774      385.82992      8881.9674      1.4550152      0.75569185   
     52600  -6114.9347     -6178.7355      63.80083       13401.239      381.14649      8906.0651      1.4510783      0.75569185   
     52700  -6116.9078     -6181.7669      64.859051      9397.4582      387.46831      8920.8447      1.4486742      0.75569185   
     52800  -6117.2872     -6182.2265      64.939306      9596.4268      387.94775      8920.4545      1.4487376      0.75569185   
     52900  -6116.4321     -6182.3925      65.960347      12848.003      394.04745      8902.3159      1.4516894      0.75569185   
     53000  -6117.0587     -6182.4945      65.435763      13556.563      390.91358      8870.4312      1.4569075      0.75966273   
     53100  -6115.8455     -6183.6775      67.832018      13835.041      405.22883      8832.095       1.4632313      0.75966273   
     53200  -6114.7708     -6180.59        65.819205      15746.128      393.20427      8793.9906      1.4695715      0.75966273   
     53300  -6114.5206     -6182.3809      67.86033       14784.583      405.39796      8766.8952      1.4741134      0.75966273   
     53400  -6114.4099     -6179.9529      65.543097      18397.019      391.5548       8751.6118      1.4766877      0.75966273   
     53500  -6113.4237     -6179.3685      65.944855      16127.847      393.9549       8753.2786      1.4764066      0.75966273   
     53600  -6113.8914     -6179.8839      65.992547      15601.395      394.23982      8772.6729      1.4731426      0.75966273   
     53700  -6113.7593     -6179.9003      66.141         13162.668      395.12667      8801.7076      1.468283       0.75966273   
     53800  -6116.3498     -6182.4861      66.136219      10947.383      395.09811      8833.2711      1.4630365      0.75966273   
     53900  -6113.7735     -6180.1789      66.405406      16300.566      396.70624      8859.3831      1.4587243      0.75966273   
     54000  -6114.9097     -6181.1391      66.229326      17019.525      395.65433      8880.0672      1.4553266      0.76374317   
     54100  -6114.814      -6182.3753      67.561348      15496.876      403.61184      8891.3603      1.4534781      0.76374317   
     54200  -6111.8778     -6180.4464      68.568586      13635.787      409.62909      8890.7232      1.4535823      0.76374317   
     54300  -6112.9359     -6180.6057      67.669801      12044.514      404.25974      8882.4165      1.4549417      0.76374317   
     54400  -6113.5396     -6181.641       68.101393      16231.839      406.83807      8868.2154      1.4572715      0.76374317   
     54500  -6114.5967     -6182.59        67.993308      17443.881      406.19237      8850.1072      1.4602533      0.76374317   
     54600  -6114.7118     -6182.0037      67.291923      21447.012      402.0023       8829.1313      1.4637225      0.76374317   
     54700  -6116.0134     -6182.5258      66.512439      16037.68       397.34565      8813.3553      1.4663425      0.76374317   
     54800  -6115.7664     -6181.1926      65.426215      14002.238      390.85654      8803.1116      1.4680489      0.76374317   
     54900  -6113.5146     -6181.2754      67.76078       13705.125      404.80325      8796.8598      1.4690922      0.76374317   
     55000  -6113.677      -6180.4142      66.737267      15791.338      398.68878      8794.8195      1.469433       0.76264115   
     55100  -6113.3932     -6179.03        65.636836      17459.722      392.1148       8800.1851      1.4685371      0.76264115   
     55200  -6110.4156     -6178.5251      68.109437      12891.577      406.88613      8815.2475      1.4660278      0.76264115   
     55300  -6113.6166     -6180.363       66.746406      13273.957      398.74337      8837.7508      1.4622949      0.76264115   
     55400  -6112.7548     -6178.8812      66.126331      9803.8566      395.03904      8861.8139      1.4583242      0.76264115   
     55500  -6112.5574     -6179.147       66.589666      11295.463      397.80701      8880.9907      1.4551753      0.76264115   
     55600  -6114.9608     -6181.7802      66.819421      12237.176      399.17957      8889.9984      1.4537008      0.76264115   
     55700  -6114.1019     -6179.8406      65.738789      12834.162      392.72386      8884.9823      1.4545215      0.76264115   
     55800  -6112.5316     -6181.4912      68.959667      13290.265      411.96541      8871.7423      1.4566922      0.76264115   
     55900  -6112.7474     -6180.1857      67.438357      15749.923      402.87709      8854.7969      1.4594799      0.76264115   
     56000  -6113.2654     -6182.3491      69.083662      17081.106      412.70615      8837.3431      1.4623624      0.76545331   
     56100  -6113.4969     -6179.9196      66.422703      16046.94       396.80957      8816.3613      1.4658426      0.76545331   
     56200  -6113.6253     -6180.4373      66.812029      12987.518      399.1354       8796.2608      1.4691922      0.76545331   
     56300  -6112.798      -6182.2749      69.476873      14930.913      415.05519      8781.1116      1.4717269      0.76545331   
     56400  -6111.9484     -6178.8736      66.925181      17200.3        399.81137      8772.8429      1.473114       0.76545331   
     56500  -6110.6901     -6181.8622      71.172051      20120.069      425.1822       8775.8972      1.4726013      0.76545331   
     56600  -6112.1153     -6177.2546      65.139281      16716.234      389.1424       8790.6465      1.4701305      0.76545331   
     56700  -6113.1521     -6180.845       67.692867      15277.308      404.39754      8817.2147      1.4657007      0.76545331   
     56800  -6111.0646     -6179.4672      68.402596      12917.681      408.63746      8847.4392      1.4606936      0.76545331   
     56900  -6112.0363     -6178.8364      66.800126      16206.823      399.0643       8880.431       1.455267       0.76545331   
     57000  -6113.7188     -6181.9144      68.195585      8991.1622      407.40077      8909.6677      1.4504916      0.79383293   
[...]
   2186000  -6117.1356     -6185.2284      68.092782      10772.338      406.78663      8825.2897      1.4643596      0.77801646   
   2186100  -6119.5105     -6185.5787      66.06817       10733.733      394.69159      8847.9153      1.460615       0.77801646   
   2186200  -6121.1301     -6184.0052      62.875119      12136.282      375.61628      8860.7979      1.4584914      0.77801646   
   2186300  -6121.183      -6187.0577      65.87469       10246.229      393.53574      8863.705       1.4580131      0.77801646   
   2186400  -6120.2301     -6184.9584      64.728343      11746.01       386.68746      8853.0803      1.4597629      0.77801646   
   2186500  -6116.5332     -6184.0736      67.540461      13538.349      403.48706      8834.8349      1.4627775      0.77801646   
   2186600  -6114.2833     -6182.0464      67.763147      17241.96       404.81739      8814.7911      1.4661037      0.77801646   
   2186700  -6116.1345     -6184.6356      68.50111       17083.262      409.22599      8798.7009      1.4687848      0.77801646   
   2186800  -6117.369      -6183.5993      66.230301      13425.069      395.66016      8782.5897      1.4714792      0.77801646   
   2186900  -6118.0633     -6185.4697      67.406448      15532.237      402.68647      8771.6954      1.4733067      0.77801646   
   2187000  -6119.0497     -6183.727       64.677273      18419.843      386.38236      8766.9842      1.4740985      0.841682     
   2187100  -6119.9296     -6183.7105      63.780954      19003.229      381.02775      8770.0844      1.4735774      0.841682     
   2187200  -6120.15       -6188.9148      68.764852      13846.467      410.80158      8780.2628      1.4718692      0.841682     
   2187300  -6120.1388     -6186.1121      65.973293      14084.071      394.12479      8789.3207      1.4703523      0.841682     
   2187400  -6119.0843     -6185.6219      66.537567      12273.302      397.49577      8797.924       1.4689145      0.841682     
   2187500  -6119.4672     -6184.7691      65.301933      13149.086      390.11409      8805.2223      1.4676969      0.841682     
   2187600  -6119.336      -6185.1703      65.834325      17125.259      393.2946       8811.4421      1.4666609      0.841682     
   2187700  -6119.6651     -6187.4327      67.767558      14483.725      404.84374      8815.7963      1.4659365      0.841682     
   2187800  -6120.3923     -6186.1902      65.797933      14609.56       393.07719      8811.389       1.4666698      0.841682     
   2187900  -6119.213      -6184.7018      65.48878       11359.682      391.23031      8801.4309      1.4683292      0.841682     
   2188000  -6120.4931     -6184.7412      64.248138      11913.023      383.81871      8789.5787      1.4703091      0.74637756   
   2188100  -6119.8793     -6187.0861      67.206866      12853.132      401.49416      8777.873       1.4722699      0.74637756   
   2188200  -6120.7441     -6184.5955      63.851376      13899.885      381.44845      8765.915       1.4742783      0.74637756   
   2188300  -6120.8847     -6186.6558      65.77106       15374.477      392.91665      8756.8229      1.475809       0.74637756   
   2188400  -6119.3157     -6184.437       65.121362      14843.494      389.03535      8748.6115      1.4771942      0.74637756   
   2188500  -6119.5667     -6185.3466      65.779922      14398.475      392.96959      8744.4214      1.477902       0.74637756   
   2188600  -6119.4407     -6185.5044      66.063681      14477.839      394.66477      8750.971       1.4767959      0.74637756   
   2188700  -6119.5347     -6187.9419      68.407152      12896.497      408.66468      8766.3624      1.474203       0.74637756   
   2188800  -6117.5971     -6183.7166      66.119492      12694.277      394.99819      8785.6071      1.4709738      0.74637756   
   2188900  -6115.487      -6181.6025      66.1155        14508.822      394.97434      8810.3686      1.4668396      0.74637756   
   2189000  -6113.0675     -6181.2228      68.155257      12593.89       407.15986      8841.7212      1.4616382      0.71410117   
   2189100  -6113.4871     -6181.7854      68.29829       12087.556      408.01433      8875.6168      1.4560563      0.71410117   
   2189200  -6114.5322     -6182.6276      68.095406      11022.073      406.8023       8904.2936      1.451367       0.71410117   
   2189300  -6117.2577     -6182.4466      65.188859      12516.378      389.43858      8921.3071      1.4485991      0.71410117   
   2189400  -6117.7571     -6183.6039      65.846824      12213.418      393.36927      8923.2432      1.4482849      0.71410117   
   2189500  -6115.8936     -6182.8537      66.96011       12933.031      400.02004      8906.9089      1.4509408      0.71410117   
   2189600  -6113.6148     -6178.1515      64.536726      10447.038      385.54273      8881.0425      1.4551668      0.71410117   
   2189700  -6114.0706     -6181.4453      67.374703      12643.751      402.49682      8853.5832      1.4596799      0.71410117   
   2189800  -6114.4297     -6184.0021      69.572459      13401.027      415.62623      8829.1546      1.4637186      0.71410117   
   2189900  -6113.8211     -6181.4029      67.581805      16755.405      403.73405      8805.7056      1.4676164      0.71410117   
   2190000  -6113.016      -6183.5981      70.58206       14537.915      421.65759      8791.3258      1.4700169      0.76776299   
   2190100  -6113.5651     -6181.3901      67.825055      15291.467      405.18723      8788.6771      1.47046        0.76776299   
   2190200  -6115.2089     -6182.4091      67.200207      14368.5        401.45438      8796.8995      1.4690855      0.76776299   
   2190300  -6115.4546     -6183.2998      67.845185      12618.747      405.30748      8811.2734      1.466689       0.76776299   
   2190400  -6118.5544     -6186.9736      68.419206      15738.517      408.73669      8826.4718      1.4641635      0.76776299   
   2190500  -6119.7183     -6185.1775      65.459192      13791.346      391.05355      8834.3866      1.4628517      0.76776299   
   2190600  -6118.6692     -6185.9522      67.283039      13314.151      401.94922      8837.1136      1.4624003      0.76776299   
   2190700  -6118.8934     -6186.5038      67.610386      13823.186      403.9048       8832.4199      1.4631775      0.76776299   
   2190800  -6120.7296     -6184.415       63.68537       18091.876      380.45673      8822.5714      1.4648108      0.76776299   
   2190900  -6120.2074     -6185.278       65.070559      17968.922      388.73185      8808.9575      1.4670746      0.76776299   
   2191000  -6118.3241     -6184.9294      66.605299      14664.088      397.9004       8795.6985      1.4692861      0.81294006   
   2191100  -6117.3185     -6186.0342      68.715682      10807.238      410.50784      8789.5244      1.4703182      0.81294006   
   2191200  -6116.9829     -6183.6618      66.678867      15741.245      398.3399       8784.6256      1.4711381      0.81294006   
   2191300  -6117.5166     -6183.9351      66.418436      14426.462      396.78408      8787.1386      1.4707174      0.81294006   
   2191400  -6119.4796     -6185.5143      66.034779      17606.27       394.49211      8798.152       1.4688764      0.81294006   
   2191500  -6119.9105     -6186.0816      66.171099      16265.427      395.30649      8811.895       1.4665856      0.81294006   
   2191600  -6118.2538     -6184.3655      66.111686      14491.966      394.95155      8820.1417      1.4652143      0.81294006   
   2191700  -6117.0232     -6184.8873      67.864122      13625.979      405.42062      8824.1403      1.4645504      0.81294006   
   2191800  -6114.6269     -6183.5705      68.94362       13705.645      411.86954      8825.4589      1.4643316      0.81294006   
   2191900  -6112.8003     -6182.2213      69.421013      17718.993      414.72149      8828.1809      1.46388        0.81294006   
   2192000  -6113.3554     -6181.7767      68.421279      11350.363      408.74907      8835.9663      1.4625902      0.85169439   
   2192100  -6114.1336     -6179.0435      64.909872      11922.246      387.77191      8846.7195      1.4608124      0.85169439   
   2192200  -6113.9403     -6182.426       68.4857        10517.27       409.13392      8861.5379      1.4583696      0.85169439   
   2192300  -6114.4582     -6182.9646      68.506403      11562.295      409.2576       8872.6569      1.4565421      0.85169439   
   2192400  -6114.4904     -6181.1107      66.62034       13817.682      397.99026      8877.7771      1.455702       0.85169439   
   2192500  -6113.7531     -6181.8521      68.099023      14593.21       406.82391      8879.1839      1.4554714      0.85169439   
   2192600  -6115.8429     -6184.3118      68.468857      13972.662      409.0333       8877.1572      1.4558037      0.85169439   
   2192700  -6117.2069     -6183.6536      66.446731      14374.494      396.95311      8865.8934      1.4576532      0.85169439   
   2192800  -6117.7675     -6184.9699      67.202445      12395.029      401.46776      8851.07        1.4600944      0.85169439   
   2192900  -6119.5867     -6186.3237      66.737007      15248.938      398.68723      8835.9178      1.4625982      0.85169439   
   2193000  -6119.5499     -6186.1343      66.584304      18641.921      397.77498      8817.5716      1.4656414      0.74757861   
   2193100  -6118.6589     -6183.7416      65.08273       18913.583      388.80456      8798.567       1.4688071      0.74757861   
   2193200  -6119.9024     -6184.9418      65.039379      17223.432      388.54559      8786.4234      1.4708371      0.74757861   
   2193300  -6118.0315     -6186.0342      68.002747      18418.407      406.24876      8782.2893      1.4715295      0.74757861   
   2193400  -6115.8931     -6184.7338      68.840731      15603.07       411.25488      8783.5424      1.4713196      0.74757861   
   2193500  -6117.9229     -6184.3245      66.401605      17370.979      396.68353      8789.9007      1.4702553      0.74757861   
   2193600  -6117.466      -6183.8315      66.36546       16830.475      396.4676       8800.0487      1.4685598      0.74757861   
   2193700  -6118.0889     -6183.7319      65.643004      18140.147      392.15164      8813.2655      1.4663575      0.74757861   
   2193800  -6119.5286     -6187.1177      67.589109      16580.428      403.77769      8829.755       1.4636191      0.74757861   
   2193900  -6119.328      -6184.8087      65.48068       15271.855      391.18192      8843.352       1.4613687      0.74757861   
   2194000  -6119.5278     -6185.1216      65.593779      14182.363      391.85758      8850.5866      1.4601742      0.79313482   
   2194100  -6121.0814     -6185.9762      64.89482       13439.176      387.68199      8851.2335      1.4600674      0.79313482   
   2194200  -6118.5091     -6184.7862      66.277025      15333.551      395.93929      8841.5097      1.4616732      0.79313482   
   2194300  -6119.5846     -6184.3934      64.808822      17225.138      387.16824      8821.3065      1.4650208      0.79313482   
   2194400  -6117.5421     -6185.9829      68.440812      16716.221      408.86576      8800.2579      1.4685249      0.79313482   
   2194500  -6117.1723     -6182.734       65.561694      17880.409      391.6659       8786.5566      1.4708148      0.79313482   
   2194600  -6116.3759     -6185.4641      69.088271      16317.188      412.73368      8782.1699      1.4715495      0.79313482   
   2194700  -6115.7571     -6184.0131      68.256084      15506.817      407.7622       8784.4024      1.4711755      0.79313482   
   2194800  -6118.1305     -6184.0047      65.874264      16492.952      393.53319      8792.1514      1.4698789      0.79313482   
   2194900  -6117.6732     -6185.4287      67.755433      13148.149      404.7713       8802.952       1.4680755      0.79313482   
   2195000  -6116.5619     -6184.3506      67.788703      14761.2        404.97006      8814.0715      1.4662234      0.82223677   
   2195100  -6116.3481     -6183.2536      66.905503      15760.72       399.69382      8827.7584      1.4639501      0.82223677   
   2195200  -6116.7593     -6183.5161      66.756858      13711.047      398.80581      8842.3841      1.4615287      0.82223677   
   2195300  -6116.6564     -6185.3086      68.652135      10454.83       410.12821      8851.7074      1.4599893      0.82223677   
   2195400  -6117.7249     -6184.7889      67.064068      13642.618      400.64109      8854.266       1.4595674      0.82223677   
   2195500  -6116.3097     -6184.9627      68.652956      14090.2        410.13311      8852.2157      1.4599054      0.82223677   
   2195600  -6117.0615     -6183.2751      66.213599      12895.427      395.56038      8845.7323      1.4609755      0.82223677   
   2195700  -6116.9646     -6184.3351      67.370435      14286.096      402.47133      8837.7865      1.462289       0.82223677   
   2195800  -6120.0707     -6186.4127      66.341975      12442.346      396.3273       8824.056       1.4645644      0.82223677   
   2195900  -6116.6331     -6186.4765      69.843408      15101.007      417.24488      8804.2723      1.4678553      0.82223677   
   2196000  -6117.6011     -6185.666       68.064893      20353.333      406.62002      8783.9814      1.471246       0.77425223   
   2196100  -6119.3222     -6187.2455      67.923325      16445.039      405.77429      8766.9093      1.4741111      0.77425223   
   2196200  -6121.8135     -6187.4296      65.616151      15883.742      391.99123      8750.1962      1.4769266      0.77425223   
   2196300  -6123.0788     -6187.6091      64.530252      17541.964      385.50406      8732.8507      1.4798602      0.77425223   
   2196400  -6122.1952     -6187.8656      65.670404      20097.546      392.31533      8719.3124      1.4821579      0.77425223   
   2196500  -6123.0608     -6187.682       64.621251      18787.082      386.04769      8712.5893      1.4833016      0.77425223   
   2196600  -6121.6114     -6188.0457      66.434383      17728.85       396.87935      8715.0615      1.4828809      0.77425223   
   2196700  -6122.4181     -6186.7453      64.327182      16172.916      384.29092      8726.2819      1.4809741      0.77425223   
   2196800  -6121.214      -6185.1218      63.907805      16307.911      381.78556      8742.1157      1.4782918      0.77425223   
   2196900  -6119.6356     -6185.8297      66.194089      13788.011      395.44383      8762.2285      1.4748985      0.77425223   
   2197000  -6118.8451     -6186.5068      67.661751      13890.399      404.21165      8785.225       1.4710378      0.80825966   
   2197100  -6119.008      -6184.0403      65.032325      10031.848      388.50345      8807.7704      1.4672723      0.80825966   
   2197200  -6118.1455     -6183.9878      65.842312      12962.353      393.34231      8826.8498      1.4641008      0.80825966   
   2197300  -6117.4316     -6184.6839      67.252251      15119.492      401.7653       8840.7285      1.4618024      0.80825966   
   2197400  -6116.1217     -6185.2211      69.099378      18699.586      412.80004      8847.7029      1.4606501      0.80825966   
   2197500  -6115.4222     -6182.0277      66.605494      15957.945      397.90156      8844.5971      1.461163       0.80825966   
   2197600  -6112.9923     -6182.7373      69.745052      13539.661      416.6573       8835.0801      1.4627369      0.80825966   
   2197700  -6111.9208     -6181.6946      69.773855      14020.117      416.82937      8821.9774      1.4649094      0.80825966   
   2197800  -6111.7561     -6181.5948      69.838713      13867.65       417.21683      8809.3725      1.4670055      0.80825966   
   2197900  -6114.4605     -6183.8285      69.367998      13656.597      414.40478      8798.7212      1.4687814      0.80825966   
   2198000  -6114.8592     -6185.2707      70.411539      13697.586      420.6389       8790.6531      1.4701294      0.79885303   
   2198100  -6114.4815     -6184.5376      70.056087      14886.637      418.51543      8782.4933      1.4714953      0.79885303   
   2198200  -6118.0596     -6182.1087      64.049074      11352.592      382.6295       8778.8         1.4721144      0.79885303   
   2198300  -6119.4664     -6186.302       66.835608      11461.776      399.27627      8777.9873      1.4722507      0.79885303   
   2198400  -6118.4459     -6186.1923      67.746417      13744.068      404.71745      8777.832       1.4722767      0.79885303   
   2198500  -6119.7752     -6184.9674      65.192225      14167.196      389.45869      8778.3711      1.4721863      0.79885303   
   2198600  -6120.183      -6187.4993      67.316322      15817.543      402.14805      8777.488       1.4723344      0.79885303   
   2198700  -6118.8783     -6185.7295      66.851235      15265.481      399.36962      8772.6089      1.4731533      0.79885303   
   2198800  -6117.5017     -6182.9112      65.409522      10255.341      390.75682      8768.0654      1.4739167      0.79885303   
   2198900  -6119.8657     -6187.4187      67.553003      12228.765      403.56199      8768.9968      1.4737601      0.79885303   
   2199000  -6119.4122     -6185.4736      66.061436      12762.057      394.65136      8775.1041      1.4727344      0.76682491   
   2199100  -6118.8492     -6186.5202      67.671007      14761.906      404.26694      8783.9459      1.471252       0.76682491   
   2199200  -6117.9781     -6183.6609      65.682781      10584.331      392.38927      8795.9836      1.4692385      0.76682491   
   2199300  -6115.6364     -6182.4599      66.823465      12892.831      399.20372      8810.7841      1.4667705      0.76682491   
   2199400  -6117.968      -6183.3671      65.399133      14810.342      390.69476      8824.7603      1.4644475      0.76682491   
   2199500  -6120.0064     -6185.78        65.77356       17209.804      392.93159      8831.6158      1.4633107      0.76682491   
   2199600  -6120.1215     -6186.1286      66.007007      14623.547      394.3262       8828.428       1.4638391      0.76682491   
   2199700  -6119.124      -6184.4363      65.312268      14539.147      390.17582      8814.3694      1.4661738      0.76682491   
   2199800  -6118.4845     -6182.9917      64.507217      14797.638      385.36645      8796.8404      1.4690954      0.76682491   
   2199900  -6116.0631     -6185.5834      69.520239      16323.994      415.31427      8777.7113      1.472297       0.76682491   
   2200000  -6117.11       -6184.9076      67.797599      16222.161      405.02321      8760.5255      1.4751852      0.7967172    
   2200033  -6116.6161     -6183.8763      67.26014       16576.9        401.81242      8756.136       1.4759248      0.7967172    
Loop time of 8521.15 on 1 procs for 2000000 steps with 1296 atoms

Performance: 10.139 ns/day, 2.367 hours/ns, 234.710 timesteps/s, 304.184 katom-step/s
99.8% CPU use with 1 MPI tasks x 1 OpenMP threads

MPI task timing breakdown:
Section |  min time  |  avg time  |  max time  |%varavg| %total
---------------------------------------------------------------
Pair    | 6487.1     | 6487.1     | 6487.1     |   0.0 | 76.13
Neigh   | 87.208     | 87.208     | 87.208     |   0.0 |  1.02
Comm    | 88.113     | 88.113     | 88.113     |   0.0 |  1.03
Output  | 5.4979     | 5.4979     | 5.4979     |   0.0 |  0.06
Modify  | 1808.7     | 1808.7     | 1808.7     |   0.0 | 21.23
Other   |            | 44.54      |            |       |  0.52

Nlocal:           1296 ave        1296 max        1296 min
Histogram: 1 0 0 0 0 0 0 0 0 0
Nghost:           4288 ave        4288 max        4288 min
Histogram: 1 0 0 0 0 0 0 0 0 0
Neighs:              0 ave           0 max           0 min
Histogram: 1 0 0 0 0 0 0 0 0 0
FullNghs:       222522 ave      222522 max      222522 min
Histogram: 1 0 0 0 0 0 0 0 0 0

Total # of neighbors = 222522
Ave neighs/atom = 171.69907
Neighbor list builds = 200000
Dangerous builds = 200000
Total wall time: 2:36:14
