LAMMPS (7 Feb 2024 - Update 1)
KOKKOS mode with Kokkos version 4.2.0 is enabled (src/KOKKOS/kokkos.cpp:72)
  will use up to 2 GPU(s) per node
  using 1 OpenMP thread(s) per MPI task
Reading data file ...
  orthogonal box = (0 0 0) to (18.207572 23.629178 22.213196)
  1 by 2 by 1 MPI processor grid
  reading atoms ...
  864 atoms
  read_data CPU = 0.011 seconds
ACE/AL version: 2023.11.25
Loading /home/cicn/cicn607503/pd/pot_dir/interim_potential_ladder_step_5.yaml
Total number of basis functions
	H: 24 (r=1) 863 (r>1)
	O: 24 (r=1) 863 (r>1)
Mapping LAMMPS atom type #1(H) -> ACE species type #0
Mapping LAMMPS atom type #2(O) -> ACE species type #1
Loading ASI /home/cicn/cicn607503/pd/pot_dir/interim_potential_ladder_step_5.asi
LINEAR ASI is loaded
Switching to 'neigh_modify every 1 delay 0 check yes' setting during minimization
Neighbor list info ...
  update: every = 1 steps, delay = 0 steps, check = yes
  max neighbors/atom: 2000, page size: 100000
  master list distance cutoff = 6.5
  ghost atom cutoff = 6.5
  binsize = 6.5, bins = 3 4 4
  1 neighbor lists, perpetual/occasional/extra = 1 0 0
  (1) pair pace/extrapolation/kk, perpetual
      attributes: full, newton on, kokkos_device
      pair build: full/bin/kk/device
      stencil: full/bin/3d
      bin: kk/device
Setting up cg/kk style minimization ...
  Unit style    : metal
  Current step  : 0
WARNING: Fix with atom-based arrays not compatible with sending data in Kokkos communication, switching to classic exchange/border communication (src/KOKKOS/comm_kokkos.cpp:666)
WARNING: Fix with atom-based arrays not compatible with Kokkos sorting on device, switching to classic host sorting (src/KOKKOS/atom_kokkos.cpp:218)
Per MPI rank memory allocation (min/avg/max) = 449.3 | 453 | 456.7 Mbytes
   Step         TotEng         PotEng         KinEng         Press           Temp          Volume        Density     c_max_pace_gamma
         0  -4180.7249     -4180.7249      0              931.57303      0              9556.7825      0.90151666     0.51848271   
       100  -4182.8568     -4182.8568      0             -5818.1351      0              9556.7825      0.90151666     0.51848271   
       191  -4182.8571     -4182.8571      0             -5809.5218      0              9556.7825      0.90151666     0.51848271   
Loop time of 0.667641 on 2 procs for 191 steps with 864 atoms

99.7% CPU use with 2 MPI tasks x 1 OpenMP threads

Minimization stats:
  Stopping criterion = force tolerance
  Energy initial, next-to-last, final = 
      -4180.7249004513  -4182.85708343912  -4182.85708344366
  Force two-norm initial, final = 6.5563152 0.00040677855
  Force max component initial, final = 0.28078875 3.622429e-05
  Final line search alpha, max atom move = 1 3.622429e-05
  Iterations, force evaluations = 191 382

MPI task timing breakdown:
Section |  min time  |  avg time  |  max time  |%varavg| %total
---------------------------------------------------------------
Pair    | 0.4608     | 0.46144    | 0.46207    |   0.1 | 69.11
Neigh   | 0          | 0          | 0          |   0.0 |  0.00
Comm    | 0.067587   | 0.068581   | 0.069574   |   0.4 | 10.27
Output  | 0.00015432 | 0.00015483 | 0.00015533 |   0.0 |  0.02
Modify  | 0.08842    | 0.089514   | 0.090609   |   0.4 | 13.41
Other   |            | 0.04796    |            |       |  7.18

Nlocal:            432 ave         436 max         428 min
Histogram: 1 0 0 0 0 0 0 0 0 1
Nghost:           2169 ave        2174 max        2164 min
Histogram: 1 0 0 0 0 0 0 0 0 1
Neighs:              0 ave           0 max           0 min
Histogram: 2 0 0 0 0 0 0 0 0 0
FullNghs:        45636 ave       46083 max       45189 min
Histogram: 1 0 0 0 0 0 0 0 0 1

Total # of neighbors = 91272
Ave neighs/atom = 105.63889
Neighbor list builds = 0
Dangerous builds = 0
Setting up Verlet run ...
  Unit style    : metal
  Current step  : 191
  Time step     : 0.0005
WARNING: Fix with atom-based arrays not compatible with sending data in Kokkos communication, switching to classic exchange/border communication (src/KOKKOS/comm_kokkos.cpp:666)
WARNING: Fix with atom-based arrays not compatible with Kokkos sorting on device, switching to classic host sorting (src/KOKKOS/atom_kokkos.cpp:218)
Per MPI rank memory allocation (min/avg/max) = 453.3 | 454.9 | 456.4 Mbytes
   Step         TotEng         PotEng         KinEng         Press           Temp          Volume        Density     c_max_pace_gamma
       191  -4148.8339     -4182.8571      34.023209     -2006.9041      305            9556.7825      0.90151666     0.51848271   
       200  -4148.6078     -4172.931       24.323207     -9866.9961      218.04463      9556.5223      0.9015412      0.51848271   
       300  -4140.873      -4162.4421      21.569144     -2670.5474      193.35592      9521.6881      0.90483941     0.51848271   
       400  -4134.2654     -4156.3083      22.042871     -2986.7818      197.60264      9444.291       0.91225467     0.51848271   
       500  -4128.7562     -4154.4094      25.653214      630.04195      229.96744      9335.3103      0.92290436     0.51848271   
       600  -4124.6036     -4153.2932      28.689583      4110.8044      257.18688      9229.203       0.9335149      0.51848271   
       700  -4122.6827     -4152.1513      29.468557      3644.3088      264.16996      9159.0571      0.94066436     0.51848271   
       800  -4120.7599     -4151.6576      30.897665      3566.8421      276.98116      9141.834       0.94243656     0.51848271   
       900  -4118.6013     -4149.5917      30.990367      4283.5981      277.81218      9178.0435      0.93871843     0.51848271   
      1000  -4117.6606     -4148.4802      30.819621      3338.0466      276.28154      9258.9127      0.93051947     0.81411109   
      1100  -4116.2006     -4148.4734      32.272815      1652.234       289.30865      9367.8574      0.91969788     0.81411109   
      1200  -4114.5587     -4147.8706      33.311873     -672.08052      298.62325      9478.1147      0.90899919     0.81411109   
      1300  -4114.7276     -4147.0099      32.28233      -493.53153      289.39394      9569.7594      0.90029417     0.81411109   
      1400  -4115.3292     -4148.3691      33.039931     -2980.5003      296.18543      9630.8699      0.89458156     0.81411109   
      1500  -4114.509      -4147.3506      32.841604     -736.58797      294.40754      9657.2142      0.89214119     0.81411109   
      1600  -4114.5745     -4147.0554      32.480922     -1854.5761      291.17421      9654.618       0.8923811      0.81411109   
      1700  -4113.6844     -4146.6314      32.946991     -2643.8812      295.35228      9627.7111      0.89487506     0.81411109   
      1800  -4112.6894     -4146.3706      33.681213     -214.45231      301.93419      9584.5355      0.89890623     0.81411109   
      1900  -4112.8824     -4145.8326      32.950204      225.7636       295.38108      9532.5132      0.90381187     0.81411109   
      2000  -4111.2093     -4145.3698      34.160471      2273.6731      306.23048      9479.1336      0.90890148     0.79160638   
      2100  -4111.6367     -4147.6314      35.994704      2148.2494      322.6734       9441.8301      0.91249244     0.79160638   
      2200  -4110.0052     -4144.6858      34.680566      2656.9309      310.89286      9428.7588      0.91375745     0.79160638   
      2300  -4111.1146     -4144.569       33.454377      1202.6528      299.90072      9438.8373      0.91278177     0.79160638   
      2400  -4110.3106     -4143.929       33.618337      1514.644       301.37054      9464.6775      0.91028971     0.79160638   
      2500  -4109.8597     -4144.5585      34.698831      1808.6674      311.0566       9497.7055      0.90712421     0.79160638   
      2600  -4111.6422     -4145.602       33.959779      215.86725      304.43138      9538.119       0.90328068     0.79160638   
      2700  -4111.4988     -4147.5076      36.008857     -227.15609      322.80028      9579.6273      0.89936678     0.79160638   
      2800  -4112.6124     -4146.086       33.473524      279.92586      300.07237      9612.2474      0.8963147      0.79160638   
      2900  -4112.3922     -4144.3836      31.991412     -473.03729      286.78602      9631.2476      0.89454647     0.79160638   
      3000  -4112.723      -4146.8648      34.141731      447.43668      306.06249      9635.338       0.89416672     0.72919224   
      3100  -4111.4757     -4145.3062      33.830495      1199.7647      303.27242      9622.6622      0.89534459     0.72919224   
      3200  -4111.3705     -4146.2633      34.892849     -2030.3847      312.79586      9597.9147      0.89765317     0.72919224   
      3300  -4112.3701     -4146.0388      33.668673      3705.0207      301.82177      9562.9795      0.90093245     0.72919224   
      3400  -4112.3796     -4145.0339      32.654356      2587.0124      292.72896      9521.5033      0.90485697     0.72919224   
      3500  -4110.8913     -4146.5251      35.633751      167.7809       319.43766      9477.9756      0.90901253     0.72919224   
      3600  -4110.8464     -4146.4947      35.648274      996.12267      319.56784      9441.5375      0.91252072     0.72919224   
      3700  -4111.3317     -4145.6371      34.305392      751.98782      307.52962      9426.4166      0.91398449     0.72919224   
      3800  -4111.0967     -4145.3226      34.225899      2738.8554      306.81701      9433.6427      0.91328439     0.72919224   
      3900  -4112.3078     -4146.61        34.302132      2849.8372      307.5004       9457.2722      0.9110025      0.72919224   
      4000  -4112.0519     -4146.33        34.278116      745.8564       307.28511      9492.2782      0.90764287     0.68649069   
      4100  -4112.0474     -4146.2575      34.210145      1355.2574      306.67578      9533.5182      0.90371659     0.68649069   
      4200  -4112.9186     -4146.5268      33.608237      49.514523      301.28         9578.4279      0.8994794      0.68649069   
      4300  -4113.5593     -4147.1312      33.571828      252.26165      300.95361      9617.8886      0.89578897     0.68649069   
      4400  -4112.5867     -4145.8964      33.309627      996.2796       298.60312      9640.9632      0.89364501     0.68649069   
      4500  -4111.1099     -4145.397       34.287118     -1734.4335      307.36581      9645.495       0.89322514     0.68649069   
      4600  -4111.3242     -4144.65        33.32573      -841.26001      298.74747      9632.0997      0.89446734     0.68649069   
      4700  -4111.3226     -4145.5769      34.254315     -134.67635      307.07174      9601.4567      0.89732203     0.68649069   
      4800  -4111.2568     -4145.331       34.074187      2734.9854      305.45699      9553.4501      0.90183112     0.68649069   
      4900  -4112.076      -4147.0001      34.924117      2941.4394      313.07616      9500.6574      0.90684236     0.68649069   
      5000  -4112.6371     -4146.8221      34.185006      1621.6544      306.45042      9449.344       0.91176684     0.70934104   
      5100  -4111.7204     -4145.6798      33.959366      207.23655      304.42768      9408.0558      0.91576822     0.70934104   
      5200  -4110.6918     -4145.4968      34.805077      4550.1395      312.00903      9385.5099      0.91796808     0.70934104   
      5300  -4111.8194     -4145.5136      33.694286      3067.9222      302.05138      9385.2881      0.91798978     0.70934104   
      5400  -4110.4794     -4144.3409      33.861544      1887.186       303.55076      9411.1827      0.91546396     0.70934104   
      5500  -4110.2358     -4144.8333      34.597534      1893.1542      310.14852      9460.8335      0.91065957     0.70934104   
      5600  -4111.3508     -4144.5245      33.173676      307.31527      297.38439      9527.2966      0.90430674     0.70934104   
      5700  -4111.3139     -4145.1519      33.838014      1622.1349      303.33982      9599.7434      0.89748217     0.70934104   
      5800  -4109.0945     -4144.7228      35.628258      2890.1889      319.38841      9663.2743      0.89158171     0.70934104   
      5900  -4110.4946     -4144.2058      33.711245      368.09164      302.20341      9708.1037      0.88746462     0.70934104   
      6000  -4109.7873     -4144.7257      34.938371     -380.26745      313.20395      9724.5927      0.88595984     0.71121683   
      6100  -4110.0338     -4144.1697      34.135929     -462.99397      306.01047      9706.8881      0.88757576     0.71121683   
      6200  -4111.0573     -4145.5508      34.493419     -72.782614      309.21518      9658.6995      0.892004       0.71121683   
      6300  -4110.72       -4146.1472      35.427203     -958.27173      317.58606      9586.5         0.89872202     0.71121683   
      6400  -4112.3318     -4146.3955      34.063769      289.75187      305.3636       9504.7037      0.90645631     0.71121683   
      6500  -4112.2904     -4146.1501      33.859664     -1436.6706      303.53391      9426.7583      0.91395136     0.71121683   
      6600  -4112.7373     -4145.406       32.668784      3799.8899      292.8583       9364.1955      0.92005753     0.71121683   
      6700  -4112.3996     -4145.8451      33.445512      3908.285       299.82125      9329.4937      0.92347976     0.71121683   
      6800  -4112.8799     -4146.7899      33.910088      2862.9907      303.98593      9330.3899      0.92339106     0.71121683   
      6900  -4113.3381     -4147.1311      33.792921      3206.2091      302.93559      9370.075       0.91948021     0.71121683   
      7000  -4115.1594     -4148.4387      33.279296      1705.3757      298.33122      9443.8082      0.91230131     0.66137478   
      7100  -4115.9707     -4148.54        32.569341      1005.6786      291.96684      9529.4175      0.90410548     0.66137478   
      7200  -4114.5612     -4145.9932      31.432003     -764.00523      281.77122      9606.1518      0.89688345     0.66137478   
      7300  -4113.5201     -4146.6086      33.088443     -2785.313       296.62032      9662.779       0.89162741     0.66137478   
      7400  -4113.2885     -4145.2949      32.00642      -186.98791      286.92056      9688.1228      0.88929494     0.66137478   
      7500  -4112.1867     -4145.6921      33.50539       448.97711      300.35803      9681.7933      0.88987632     0.66137478   
      7600  -4111.7459     -4147.0672      35.321305     -417.25586      316.63674      9648.7122      0.89292731     0.66137478   
      7700  -4113.554      -4146.9639      33.409864      2442.3453      299.50169      9594.5435      0.89796858     0.66137478   
      7800  -4111.6204     -4145.0825      33.462158      799.86116      299.97048      9524.2256      0.90459833     0.66137478   
      7900  -4111.5077     -4146.0292      34.521515     -382.88406      309.46705      9455.2763      0.9111948      0.66137478   
      8000  -4112.1648     -4145.7346      33.569806     -100.3593       300.93548      9403.6963      0.91619278     0.80915148   
      8100  -4111.8398     -4145.3494      33.509634      3583.4605      300.39607      9375.6542      0.91893306     0.80915148   
      8200  -4112.119      -4146.4247      34.305734      2287.6935      307.53268      9377.2861      0.91877314     0.80915148   
      8300  -4111.4523     -4145.6901      34.237804      3358.7114      306.92373      9403.3265      0.91622881     0.80915148   
      8400  -4111.8164     -4145.8442      34.027723     -100.07566      305.04047      9447.1305      0.91198048     0.80915148   
      8500  -4111.2779     -4146.406       35.128142      623.72524      314.90513      9499.3993      0.90696246     0.80915148   
      8600  -4110.8938     -4146.7324      35.838669     -29.337508      321.27464      9552.7956      0.90189291     0.80915148   
      8700  -4110.9563     -4144.665       33.70866       835.80131      302.18023      9599.1084      0.89754154     0.80915148   
      8800  -4112.1031     -4145.6296      33.526536      226.8288       300.54759      9632.9088      0.89439221     0.80915148   
      8900  -4113.0329     -4146.3885      33.355576     -1610.6457      299.01503      9643.1469      0.89344263     0.80915148   
      9000  -4112.545      -4145.4725      32.927538     -25.765992      295.17789      9627.6136      0.89488413     0.72484586   
      9100  -4111.4195     -4146.4953      35.075716     -194.72437      314.43516      9592.6358      0.89814716     0.72484586   
      9200  -4112.338      -4145.4291      33.091084     -509.61561      296.64399      9547.0845      0.90243242     0.72484586   
      9300  -4112.2894     -4144.7955      32.506106      399.05407      291.39998      9501.5864      0.9067537      0.72484586   
      9400  -4111.6149     -4146.3874      34.77248       2170.0252      311.71681      9463.3954      0.91041304     0.72484586   
      9500  -4112.5429     -4145.3599      32.817001      228.99507      294.18699      9432.1844      0.91342559     0.72484586   
      9600  -4112.7181     -4146.5032      33.785125     -551.05268      302.8657       9410.3406      0.91554588     0.72484586   
      9700  -4111.9982     -4145.543       33.544778      2627.3784      300.71112      9401.3326      0.91642313     0.72484586   
      9800  -4110.9661     -4145.2129      34.246778      4299.4555      307.00418      9409.8804      0.91559066     0.72484586   
      9900  -4110.2338     -4145.3639      35.130125      2093.7655      314.92291      9432.3497      0.91340958     0.72484586   
     10000  -4110.7453     -4145.0429      34.297634     -510.46955      307.46008      9465.2627      0.91023344     0.69100762   
     10100  -4111.3088     -4144.674       33.365201     -1135.5189      299.1013       9499.9895      0.90690612     0.69100762   
     10200  -4110.8376     -4144.554       33.716432      3344.4976      302.2499       9533.2172      0.90374513     0.69100762   
     10300  -4110.6348     -4144.9343      34.299475      2008.7422      307.47658      9561.677       0.90105518     0.69100762   
     10400  -4111.8514     -4145.8329      33.981504     -990.2096       304.62614      9584.8669      0.89887515     0.69100762   
     10500  -4111.927      -4145.0802      33.153189     -552.49799      297.20073      9597.3987      0.89770144     0.69100762   
     10600  -4113.225      -4146.7588      33.533791      1669.1824      300.61263      9594.8615      0.89793882     0.69100762   
     10700  -4114.5882     -4147.2366      32.648394      1669.3176      292.67551      9574.8996      0.89981086     0.69100762   
     10800  -4114.0651     -4147.7875      33.722359     -1522.1644      302.30304      9538.1455      0.90327817     0.69100762   
     10900  -4112.5354     -4145.4696      32.934229     -1779.3736      295.23788      9491.0356      0.9077617      0.69100762   
     11000  -4111.3526     -4144.8694      33.516815      1347.6996      300.46045      9445.4443      0.91214329     0.75388862   
     11100  -4112.8181     -4146.4728      33.6547        3075.6664      301.69651      9414.0345      0.91518664     0.75388862   
     11200  -4112.8714     -4147.198       34.326617      1791.562       307.71989      9401.992       0.91635885     0.75388862   
     11300  -4113.8517     -4147.5853      33.733548      3104.8698      302.40334      9408.3892      0.91573578     0.75388862   
     11400  -4113.9881     -4146.1081      32.120008      2155.8706      287.93882      9434.2097      0.91322949     0.75388862   
     11500  -4114.2619     -4147.8328      33.570948      3878.552       300.94572      9474.1873      0.909376       0.75388862   
     11600  -4114.9993     -4148.1969      33.197616     -1715.1894      297.599        9517.7912      0.90520987     0.75388862   
     11700  -4114.3485     -4148.2942      33.945695     -718.13601      304.30513      9554.3968      0.90174176     0.75388862   
     11800  -4114.4267     -4147.4567      33.030018      1908.4514      296.09657      9583.0044      0.89904984     0.75388862   
     11900  -4113.123      -4144.7036      31.580637      370.12819      283.10364      9598.8901      0.89756196     0.75388862   
     12000  -4112.8392     -4144.8291      31.989835     -813.5608       286.77188      9597.3039      0.8977103      0.7916887    
     12100  -4111.9443     -4144.6884      32.744097     -1759.7918      293.53344      9575.6599      0.89973941     0.7916887    
     12200  -4112.8437     -4145.8913      33.047591     -462.33524      296.2541       9538.0429      0.90328789     0.7916887    
     12300  -4114.0196     -4146.3642      32.344648      363.7579       289.9526       9488.0866      0.90804384     0.7916887    
     12400  -4115.1027     -4147.8194      32.716706      3632.9491      293.28789      9432.9822      0.91334834     0.7916887    
     12500  -4113.5176     -4147.7813      34.263736      2628.5959      307.15619      9381.6849      0.91834235     0.7916887    
     12600  -4112.8008     -4147.1569      34.35603      -1179.5733      307.98356      9346.7589      0.92177392     0.7916887    
     12700  -4113.4988     -4147.476       33.977238      3972.6309      304.5879       9338.3721      0.92260177     0.7916887    
     12800  -4115.2468     -4147.0683      31.821551      2048.1997      285.2633       9356.9478      0.92077019     0.7916887    
     12900  -4115.1916     -4147.4862      32.294572      1593.0345      289.50369      9397.5448      0.9167925      0.7916887    
     13000  -4114.3782     -4147.6756      33.297372      4161.7601      298.49326      9453.0131      0.91141296     0.72512308   
     13100  -4116.3711     -4149.5608      33.189676      801.80595      297.52781      9518.8649      0.90510777     0.72512308   
     13200  -4115.1934     -4147.3934      32.199993     -645.45429      288.65583      9581.291       0.89921062     0.72512308   
     13300  -4115.2183     -4148.3364      33.118146     -2461.5235      296.88659      9628.6508      0.89478773     0.72512308   
     13400  -4114.5839     -4147.5391      32.955202     -555.68601      295.42588      9648.0081      0.89299247     0.72512308   
     13500  -4114.0468     -4146.6744      32.627598      2120.5195      292.48909      9634.3578      0.8942577      0.72512308   
     13600  -4114.1009     -4146.9307      32.829733     -1148.753       294.30112      9588.0199      0.89857955     0.72512308   
     13700  -4113.0493     -4146.903       33.853697      1191.3177      303.48041      9517.5515      0.90523267     0.72512308   
     13800  -4113.1921     -4146.3935      33.201344      2292.0584      297.63242      9444.1128      0.91227188     0.72512308   
     13900  -4112.8718     -4146.8599      33.988043      217.19271      304.68476      9384.9337      0.91802445     0.72512308   
     14000  -4113.8684     -4147.4599      33.59149       2286.5492      301.12987      9350.3441      0.92142048     0.75818707   
     14100  -4114.0961     -4147.0335      32.93736       363.36896      295.26594      9345.015       0.92194593     0.75818707   
     14200  -4113.2035     -4146.3126      33.109118      2739.0028      296.80566      9366.022       0.91987811     0.75818707   
     14300  -4112.6428     -4145.2961      32.653341      608.73831      292.71986      9409.0618      0.91567031     0.75818707   
     14400  -4110.63       -4145.0346      34.404626      1678.0317      308.4192       9466.4855      0.91011586     0.75818707   
     14500  -4110.906      -4145.8823      34.976288     -82.42099       313.54384      9531.6896      0.90388997     0.75818707   
     14600  -4110.6947     -4144.2721      33.577403      1868.6336      301.00359      9592.8736      0.89812489     0.75818707   
     14700  -4111.114      -4145.5927      34.478643      1655.6245      309.08272      9644.9018      0.89328007     0.75818707   
     14800  -4111.1937     -4145.4302      34.236491     -1381.2307      306.91196      9674.5679      0.89054092     0.75818707   
     14900  -4111.5235     -4145.3283      33.804789      305.15321      303.04198      9675.0958      0.89049233     0.75818707   
     15000  -4110.7789     -4145.8933      35.114385      1631.0192      314.78181      9651.4021      0.89267844     0.7729197    
     15100  -4110.7285     -4147.0399      36.311479      1555.0924      325.51313      9603.9225      0.89709164     0.7729197    
     15200  -4111.8403     -4146.9966      35.156304      401.36198      315.1576       9544.9468      0.90263453     0.7729197    
     15300  -4110.5754     -4144.1968      33.62134       1466.52        301.39746      9490.6008      0.90780329     0.7729197    
     15400  -4110.9053     -4145.042       34.136632      1395.66        306.01678      9449.783       0.91172449     0.7729197    
     15500  -4111.0926     -4145.118       34.025344      1240.8737      305.01914      9427.724       0.91385774     0.7729197    
     15600  -4111.2801     -4144.9768      33.696737      821.30372      302.07335      9425.181       0.91410431     0.7729197    
     15700  -4111.8217     -4144.9754      33.153737     -1013.8682      297.20565      9437.1512      0.91294485     0.7729197    
     15800  -4111.5973     -4146.3859      34.788539      416.79774      311.86078      9462.1432      0.91053352     0.7729197    
     15900  -4111.6767     -4145.0211      33.34437       4811.0451      298.91456      9492.1588      0.90765428     0.7729197    
     16000  -4111.6506     -4146.2275      34.57683      -116.12147      309.96292      9522.727       0.90474069     0.70319735   
     16100  -4111.5498     -4145.8343      34.284546      321.45772      307.34275      9548.6095      0.90228829     0.70319735   
     16200  -4112.2737     -4146.528       34.254345      1281.3836      307.07201      9568.721       0.90039187     0.70319735   
     16300  -4111.5253     -4145.9105      34.385219      588.77472      308.24523      9582.2864      0.89911721     0.70319735   
     16400  -4110.8315     -4144.4742      33.642684     -1042.8243      301.58879      9585.6077      0.89880567     0.70319735   
     16500  -4109.6467     -4144.1246      34.477884      988.09363      309.07592      9586.5797      0.89871454     0.70319735   
     16600  -4110.6716     -4144.4768      33.805235      2028.4017      303.04598      9589.301       0.8984595      0.70319735   
     16700  -4111.5736     -4144.9389      33.365337     -1427.8255      299.10253      9588.2433      0.89855861     0.70319735   
     16800  -4111.2459     -4145.0049      33.759002      688.37401      302.63152      9582.0515      0.89913925     0.70319735   
     16900  -4111.3087     -4145.0806      33.77191       3853.3701      302.74724      9572.9122      0.89999766     0.70319735   
     17000  -4111.3235     -4146.4554      35.13187       890.19557      314.93856      9563.9028      0.90084548     0.70939201   
     17100  -4111.7511     -4145.3769      33.625738      433.24428      301.43689      9552.1508      0.90195379     0.70939201   
     17200  -4111.4756     -4145.0994      33.623815      2120.7019      301.41964      9541.8789      0.90292474     0.70939201   
     17300  -4110.168      -4144.5671      34.39901       1931.1642      308.36885      9531.6794      0.90389094     0.70939201   
     17400  -4109.1023     -4144.4133      35.310983      1987.0042      316.54421      9526.8249      0.90435152     0.70939201   
     17500  -4109.0118     -4144.1118      35.09993       2561.5798      314.65223      9531.2348      0.9039331      0.70939201   
     17600  -4109.3978     -4145.1092      35.711444      3130.6189      320.13413      9547.2858      0.9024134      0.70939201   
     17700  -4110.3        -4144.7895      34.4895        2340.2893      309.18005      9570.502       0.90022431     0.70939201   
     17800  -4110.292      -4145.0283      34.736284      4489.4711      311.39234      9594.8974      0.89793546     0.70939201   
     17900  -4110.1336     -4145.8716      35.738013      936.78332      320.37231      9619.0163      0.89568396     0.70939201   
     18000  -4111.4051     -4146.7311      35.325915      649.62411      316.67807      9636.1497      0.8940914      0.82939738   
     18100  -4110.8296     -4143.3639      32.534298      629.81721      291.6527       9635.3391      0.89416662     0.82939738   
     18200  -4111.408      -4144.0793      32.671297     -18.671536      292.88082      9612.4108      0.89629946     0.82939738   
     18300  -4112.1687     -4144.8332      32.66443      -1241.1723      292.81926      9570.4772      0.90022664     0.82939738   
     18400  -4112.183      -4144.6526      32.469589      2229.145       291.07262      9521.1103      0.90489432     0.82939738   
     18500  -4112.1242     -4146.5699      34.445632      2396.9092      308.7868       9476.2826      0.90917493     0.82939738   
     18600  -4112.4319     -4147.3262      34.894369      495.76365      312.80949      9444.3103      0.91225281     0.82939738   
     18700  -4111.2707     -4146.6938      35.423177      3413.3804      317.54997      9429.907       0.91364619     0.82939738   
     18800  -4111.2396     -4145.6002      34.360646      3545.6919      308.02494      9434.7058      0.91318148     0.82939738   
     18900  -4110.7462     -4144.8013      34.055062     -24.900305      305.28554      9460.279       0.91071295     0.82939738   
     19000  -4109.9441     -4146.1042      36.160075     -754.14367      324.15587      9502.91        0.9066274      0.74172191   
     19100  -4110.8213     -4145.6639      34.842591      514.46593      312.34532      9556.8939      0.90150615     0.74172191   
     19200  -4111.1976     -4145.1601      33.962502      3645.2912      304.45579      9611.4476      0.89638928     0.74172191   
     19300  -4111.0148     -4145.6107      34.595988     -1039.0751      310.13466      9661.8362      0.89171441     0.74172191   
     19400  -4112.1413     -4146.8181      34.676761      588.48736      310.85874      9699.8359      0.88822107     0.74172191   
     19500  -4113.4045     -4147.2557      33.85115      -1088.1013      303.45758      9714.8407      0.88684919     0.74172191   
     19600  -4112.5721     -4146.9786      34.406572     -1125.7704      308.43665      9699.102       0.88828827     0.74172191   
     19700  -4112.8778     -4145.9503      33.072576      267.38362      296.47808      9653.3729      0.8924962      0.74172191   
     19800  -4112.5843     -4146.0523      33.468009     -706.47567      300.02292      9590.7596      0.89832286     0.74172191   
     19900  -4111.5482     -4144.9311      33.382893      1289.5856      299.25991      9520.6533      0.90493775     0.74172191   
     20000  -4111.6128     -4146.6241      35.011315      1220.3711      313.85785      9458.9698      0.910839       0.69822679   
     20100  -4111.4254     -4145.1604      33.735084      1859.2151      302.41711      9417.0825      0.91489042     0.69822679   
     20200  -4110.4904     -4146.4301      35.939678      4289.3548      322.18013      9403.5506      0.91620697     0.69822679   
     20300  -4110.4605     -4145.8697      35.409197      2580.1716      317.42464      9420.8411      0.91452541     0.69822679   
     20400  -4110.7477     -4144.1121      33.364387     -620.97001      299.09401      9467.3621      0.91003159     0.69822679   
     20500  -4109.9226     -4143.7993      33.876724      724.73954      303.68684      9532.3897      0.90382358     0.69822679   
     20600  -4109.8697     -4143.4274      33.55778      -341.75263      300.82768      9601.3924      0.89732803     0.69822679   
     20700  -4110.0867     -4144.3984      34.311666      1131.9474      307.58587      9661.9497      0.89170394     0.69822679   
     20800  -4110.3976     -4144.1156      33.717985      1090.8202      302.26383      9701.2922      0.88808773     0.69822679   
     20900  -4109.8536     -4145.1839      35.330336     -959.83373      316.7177       9716.9039      0.88666088     0.69822679   
     21000  -4110.1464     -4144.432       34.285591      1853.4694      307.35212      9707.4038      0.88752861     0.71309905   
     21100  -4109.9917     -4143.6686      33.676912      2055.7109      301.89563      9674.3777      0.89055843     0.71309905   
     21200  -4110.4837     -4144.3831      33.899403      2521.9005      303.89015      9624.6602      0.89515873     0.71309905   
     21300  -4109.4742     -4145.3934      35.919179      5263.2221      321.99636      9566.8587      0.90056714     0.71309905   
     21400  -4112.4795     -4145.5714      33.091918      421.82728      296.65147      9512.0648      0.90575483     0.71309905   
     21500  -4110.7814     -4144.4959      33.714464      3052.8872      302.23226      9466.9779      0.91006852     0.71309905   
     21600  -4111.9471     -4146.1205      34.173379      1434.5731      306.34619      9446.1952      0.91207078     0.71309905   
     21700  -4112.0592     -4146.3378      34.27859       2505.372       307.28936      9445.8432      0.91210477     0.71309905   
     21800  -4111.5491     -4144.9023      33.353156      2995.6292      298.99333      9459.8092      0.91075818     0.71309905   
     21900  -4110.1303     -4144.5544      34.424132      2262.1628      308.59406      9483.0178      0.90852921     0.71309905   
     22000  -4110.7801     -4145.2991      34.518987      50.40787       309.44439      9520.2793      0.9049733      0.75759847   
     22100  -4111.1003     -4145.4135      34.313185     -992.30749      307.59948      9567.2204      0.9005331      0.75759847   
     22200  -4110.1296     -4144.4012      34.271588     -1306.9653      307.22659      9608.1843      0.89669373     0.75759847   
     22300  -4110.3267     -4144.1183      33.791527      2759.351       302.92309      9638.0265      0.89391729     0.75759847   
     22400  -4113.0131     -4147.2434      34.230346     -368.5032       306.85687      9651.0587      0.8927102      0.75759847   
     22500  -4112.6232     -4145.2507      32.627484     -717.48881      292.48806      9643.2231      0.89343558     0.75759847   
     22600  -4114.2264     -4147.1504      32.923971      3345.5639      295.14592      9618.6615      0.89571699     0.75759847   
     22700  -4113.9201     -4146.9317      33.011617     -258.9037       295.93161      9580.2326      0.89930996     0.75759847   
     22800  -4113.4079     -4145.8162      32.408259      1433.8252      290.52283      9536.3913      0.90344432     0.75759847   
     22900  -4112.1326     -4143.924       31.791352     -486.11826      284.99259      9496.8382      0.90720705     0.75759847   
     23000  -4111.4801     -4146.023       34.542822      730.4851       309.65805      9467.5053      0.91001783     0.79487044   
     23100  -4112.36       -4146.4062      34.046125      1073.8355      305.20543      9454.9852      0.91122285     0.79487044   
     23200  -4112.3559     -4146.1193      33.763445      4635.9796      302.67135      9458.8717      0.91084845     0.79487044   
     23300  -4110.8408     -4143.9599      33.119135      145.48783      296.89545      9478.0479      0.9090056      0.79487044   
     23400  -4110.9773     -4145.9911      35.013784      21.155204      313.87998      9510.0619      0.90594558     0.79487044   
     23500  -4111.1429     -4145.3712      34.228292     -385.21055      306.83846      9546.4727      0.90249026     0.79487044   
     23600  -4111.325      -4145.414       34.089055      54.264009      305.59028      9583.4886      0.89900442     0.79487044   
     23700  -4112.5532     -4145.2646      32.711437      1338.7675      293.24066      9610.2714      0.89649898     0.79487044   
     23800  -4112.48       -4145.9096      33.429572      911.4361       299.67836      9622.1388      0.8953933      0.79487044   
     23900  -4113.8318     -4146.6112      32.779352      359.26243      293.84948      9616.0998      0.89595561     0.79487044   
     24000  -4114.0967     -4147.3144      33.217689     -1580.3527      297.77894      9591.9657      0.89820991     0.68886042   
     24100  -4113.8234     -4147.2979      33.4745       -898.45686      300.08111      9552.3369      0.90193622     0.68886042   
     24200  -4112.8285     -4147.0201      34.19162       3651.1634      306.50972      9503.8735      0.90653549     0.68886042   
     24300  -4113.9349     -4147.3702      33.435351      805.94852      299.73016      9460.8524      0.91065775     0.68886042   
     24400  -4114.0873     -4146.5588      32.471502     -332.06527      291.08977      9434.4988      0.91320151     0.68886042   
     24500  -4113.9557     -4146.3785      32.422811      2885.7661      290.65328      9426.4288      0.91398331     0.68886042   
     24600  -4112.752      -4146.1814      33.429398      1656.1717      299.6768       9433.722       0.91327671     0.68886042   
     24700  -4111.3862     -4146.3076      34.921375      1941.1028      313.05158      9456.6213      0.9110652      0.68886042   
     24800  -4111.057      -4144.9865      33.92951       2441.9464      304.16003      9494.1467      0.90746423     0.68886042   
     24900  -4110.9522     -4144.3746      33.422397      1345.3237      299.61404      9539.3673      0.90316248     0.68886042   
     25000  -4110.851      -4145.7166      34.865632     -1776.3919      312.55187      9584.5387      0.89890592     0.66961364   
     25100  -4113.2522     -4145.4958      32.243567      1147.2974      289.04646      9620.6524      0.89553164     0.66961364   
     25200  -4113.9484     -4146.1364      32.187952     -930.1189       288.5479       9641.8767      0.89356033     0.66961364   
     25300  -4112.4766     -4146.8016      34.325005      1514.4007      307.70544      9643.0958      0.89344737     0.66961364   
     25400  -4112.2318     -4146.0975      33.865652      87.820469      303.58759      9626.4188      0.8949952      0.66961364   
     25500  -4111.2731     -4145.3977      34.124652      1393.8177      305.90938      9591.4671      0.8982566      0.66961364   
     25600  -4109.8409     -4144.3592      34.518337     -836.50317      309.43856      9548.8965      0.90226118     0.66961364   
     25700  -4109.4326     -4145.0852      35.652549      4876.6466      319.60617      9509.6569      0.90598416     0.66961364   
     25800  -4109.5402     -4144.5085      34.96831       3366.3385      313.47233      9478.2475      0.90898645     0.66961364   
     25900  -4108.2691     -4144.2033      35.934237      1783.8474      322.13135      9459.6264      0.91077578     0.66961364   
     26000  -4110.4985     -4145.173       34.674471      2613.7928      310.83822      9460.2551      0.91071525     0.70912013   
     26100  -4111.9709     -4145.0198      33.048878      686.51677      296.26564      9480.1586      0.90880321     0.70912013   
     26200  -4112.7937     -4145.5499      32.756223     -148.342        293.64214      9510.1451      0.90593766     0.70912013   
     26300  -4113.1331     -4147.4637      34.330639      581.57906      307.75595      9547.3207      0.9024101      0.70912013   
     26400  -4114.3907     -4148.049       33.658335     -1672.8513      301.7291       9582.6885      0.89907948     0.70912013   
     26500  -4113.7137     -4145.5384      31.824761      1195.5107      285.29208      9607.0581      0.89679884     0.70912013   
     26600  -4112.976      -4145.1673      32.191352     -734.3361       288.57837      9617.2168      0.89585155     0.70912013   
     26700  -4111.9891     -4145.9064      33.917256      648.22245      304.05019      9614.7037      0.89608571     0.70912013   
     26800  -4112.5908     -4146.0833      33.492499     -353.46085      300.24247      9596.815       0.89775604     0.70912013   
     26900  -4112.8254     -4147.2144      34.388982      2159.0967      308.27896      9564.0155      0.90083486     0.70912013   
     27000  -4112.4921     -4146.1981      33.705936      1251.6658      302.15581      9527.7867      0.90426023     0.75420041   
     27100  -4112.3742     -4146.4915      34.117331     -1129.0482      305.84375      9498.5389      0.90704462     0.75420041   
     27200  -4111.7309     -4145.7778      34.04694       5581.4653      305.21274      9475.6413      0.90923647     0.75420041   
     27300  -4113.1675     -4146.2775      33.109928      5170.2439      296.81292      9463.7221      0.91038161     0.75420041   
     27400  -4112.1093     -4145.7916      33.682299      469.30655      301.94392      9462.0703      0.91054054     0.75420041   
     27500  -4110.8105     -4145.0412      34.230651      2720.5143      306.8596       9470.8868      0.90969292     0.75420041   
     27600  -4109.982      -4145.3038      35.321771      1166.0041      316.64091      9489.3299      0.90792487     0.75420041   
     27700  -4111.1386     -4145.6555      34.51695       1313.107       309.42612      9521.1211      0.90489329     0.75420041   
     27800  -4110.3854     -4145.2504      34.864985      3151.1826      312.54607      9559.2067      0.90128803     0.75420041   
     27900  -4110.5481     -4146.0075      35.459393      2496.2427      317.87462      9593.7371      0.89804405     0.75420041   
     28000  -4113.1394     -4147.4621      34.322712     -871.82322      307.68488      9624.376       0.89518516     0.76337146   
     28100  -4111.9479     -4146.0002      34.052282      564.12655      305.26062      9638.2674      0.89389495     0.76337146   
     28200  -4112.906      -4146.9198      34.013825      1291.968       304.91587      9634.1784      0.89427435     0.76337146   
     28300  -4112.7188     -4145.8429      33.1241       -447.49804      296.93996      9614.0583      0.89614586     0.76337146   
     28400  -4112.3222     -4145.0582      32.736001     -329.12582      293.46087      9580.3561      0.89929837     0.76337146   
     28500  -4112.649      -4146.3605      33.711543     -12.123956      302.20608      9541.0418      0.90300396     0.76337146   
     28600  -4112.1045     -4145.3615      33.256982      1546.9257      298.13118      9497.0059      0.90719103     0.76337146   
     28700  -4112.8597     -4144.9933      32.133553      4191.0906      288.06024      9457.8453      0.91094729     0.76337146   
     28800  -4112.7574     -4147.0823      34.324898      4413.2214      307.70448      9427.4051      0.91388866     0.76337146   
     28900  -4111.768      -4146.6949      34.926918      2268.2606      313.10127      9412.302       0.9153551      0.76337146   
     29000  -4112.1306     -4145.079       32.94843      -1365.2094      295.36518      9420.0821      0.9145991      0.86679653   
     29100  -4113.3495     -4147.1405      33.790943      1955.0653      302.91786      9449.9866      0.91170484     0.86679653   
     29200  -4112.3676     -4145.5835      33.215966      4531.5131      297.7635       9493.559       0.90752042     0.86679653   
     29300  -4111.3572     -4146.3744      35.017166     -2505.326       313.9103       9547.2056      0.90242098     0.86679653   
     29400  -4112.6609     -4145.6041      32.943175      104.8974       295.31807      9598.6955      0.89758016     0.86679653   
     29500  -4112.445      -4145.4516      33.006635     -67.359994      295.88696      9631.7937      0.89449576     0.86679653   
     29600  -4112.2062     -4146.9138      34.707619     -48.263105      311.13537      9640.1801      0.8937176      0.86679653   
     29700  -4112.4188     -4146.9437      34.524892      712.62204      309.49732      9626.3467      0.8950019      0.86679653   
     29800  -4112.1723     -4145.3834      33.211151     -22.612184      297.72033      9595.326       0.89789535     0.86679653   
     29900  -4113.6002     -4146.7906      33.190356      34.100433      297.53391      9552.3325      0.90193663     0.86679653   
     30000  -4114.8272     -4146.7088      31.881633     -647.19692      285.80191      9499.3862      0.90696372     0.74989727   
     30100  -4114.7275     -4147.3164      32.588851      2446.7598      292.14175      9447.7568      0.91192002     0.74989727   
     30200  -4114.1517     -4147.0953      32.943615      237.96062      295.32201      9408.8373      0.91569217     0.74989727   
     30300  -4114.5408     -4147.6888      33.147904      2551.9381      297.15336      9391.052       0.91742635     0.74989727   
     30400  -4114.5634     -4145.8154      31.251954      4216.1423      280.15717      9392.9874      0.91723732     0.74989727   
     30500  -4113.237      -4146.4616      33.22458       2750.2274      297.84072      9413.6832      0.91522079     0.74989727   
     30600  -4112.3223     -4146.7707      34.448442      1398.3238      308.81199      9449.7314      0.91172947     0.74989727   
     30700  -4113.085      -4145.3085      32.223473      2847.0822      288.86632      9496.4831      0.90724098     0.74989727   
     30800  -4112.1425     -4145.5345      33.39199       2797.9573      299.34145      9545.8701      0.90254723     0.74989727   
     30900  -4113.4677     -4144.8038      31.336162      1120.2328      280.91205      9592.4354      0.89816593     0.74989727   
     31000  -4113.4746     -4146.6919      33.217354     -761.3151       297.77593      9627.2577      0.89491721     0.82632919   
     31100  -4112.6758     -4146.4314      33.755607     -605.07944      302.60109      9641.0429      0.89363762     0.82632919   
     31200  -4113.4414     -4146.2706      32.829187      75.326205      294.29622      9633.7         0.89431875     0.82632919   
     31300  -4112.1474     -4146.2715      34.124083      37.204569      305.90428      9606.6642      0.89683561     0.82632919   
     31400  -4112.6202     -4146.2915      33.671356      402.26661      301.84582      9563.5548      0.90087825     0.82632919   
     31500  -4112.7482     -4146.7331      33.984963     -81.731841      304.65715      9511.147       0.90584223     0.82632919   
     31600  -4112.6353     -4146.339       33.703665      3713.3222      302.13546      9454.681       0.91125217     0.82632919   
     31700  -4113.0226     -4147.0737      34.051062      662.59274      305.24969      9407.1406      0.91585732     0.82632919   
     31800  -4112.9563     -4146.5103      33.553921      2835.2108      300.79308      9382.1072      0.91830102     0.82632919   
     31900  -4112.9134     -4146.724       33.810577      2229.4747      303.09387      9385.2255      0.91799591     0.82632919   
     32000  -4113.6163     -4146.0679      32.451567      3644.558       290.91106      9410.069       0.91557231     0.71726325   
     32100  -4113.0135     -4146.6139      33.600452      1602.179       301.21021      9450.5213      0.91165327     0.71726325   
     32200  -4113.8219     -4146.9707      33.148826      2257.3157      297.16162      9497.6525      0.90712927     0.71726325   
     32300  -4113.5722     -4146.5414      32.969199      2670.8426      295.55136      9539.8042      0.90312111     0.71726325   
     32400  -4111.9289     -4146.773       34.844111      2292.2322      312.35895      9570.3495      0.90023865     0.71726325   
     32500  -4112.4898     -4146.4766      33.986835     -680.43051      304.67392      9588.5189      0.89853278     0.71726325   
     32600  -4111.8487     -4145.4723      33.623579      1340.4855      301.41753      9595.5606      0.8978734      0.71726325   
     32700  -4110.5312     -4144.2549      33.723692      895.99214      302.31499      9589.9852      0.8983954      0.71726325   
     32800  -4112.1259     -4146.2057      34.079798      1529.9893      305.50729      9573.3314      0.89995826     0.71726325   
     32900  -4112.1531     -4145.0286      32.875551      638.62967      294.71185      9550.1372      0.90214396     0.71726325   
     33000  -4111.5826     -4146.3405      34.757893      4620.3505      311.58605      9523.3873      0.90467795     0.74064342   
     33100  -4111.9641     -4146.739       34.774943      2655.1633      311.73889      9499.9183      0.90691292     0.74064342   
     33200  -4110.966      -4146.475       35.508921     -1941.6066      318.31862      9481.3835      0.9086858      0.74064342   
     33300  -4110.6504     -4144.9406      34.290196      1159.2072      307.3934       9474.1821      0.9093765      0.74064342   
     33400  -4110.5129     -4143.7595      33.246629      1757.6567      298.03838      9479.4962      0.90886672     0.74064342   
     33500  -4109.9548     -4144.8618      34.907008      2228.8916      312.92279      9495.0417      0.9073787      0.74064342   
     33600  -4109.6994     -4145.5188      35.819376      1466.2482      321.10168      9518.0993      0.90518057     0.74064342   
     33700  -4109.2518     -4145.6534      36.401622      3953.5415      326.32121      9549.1734      0.90223501     0.74064342   
     33800  -4109.0836     -4145.3239      36.240279      810.45833      324.87485      9580.9072      0.89924664     0.74064342   
     33900  -4109.2245     -4144.7395      35.514941      930.81087      318.37259      9609.5894      0.89656261     0.74064342   
     34000  -4110.2453     -4144.4123      34.166948     -2854.2244      306.28855      9627.3044      0.89491287     0.6787371    
     34100  -4110.1072     -4144.3364      34.229125     -1165.6312      306.84593      9629.6686      0.89469315     0.6787371    
     34200  -4109.2959     -4142.4942      33.198347      2952.5403      297.60555      9614.7503      0.89608137     0.6787371    
     34300  -4107.7505     -4144.3823      36.631792      2425.4309      328.38456      9585.3324      0.89883149     0.6787371    
     34400  -4107.7026     -4143.5789      35.876355      844.46504      321.61247      9547.1336      0.90242778     0.6787371    
     34500  -4109.2102     -4143.2818      34.071534      2237.1602      305.4332       9509.2505      0.90602289     0.6787371    
     34600  -4110.7951     -4145.9642      35.16911       875.53138      315.2724       9479.823       0.90883539     0.6787371    
     34700  -4111.2002     -4145.6562      34.456018      953.95487      308.87991      9461.1066      0.91063328     0.6787371    
     34800  -4111.9288     -4145.8663      33.937505      729.88113      304.23171      9454.7167      0.91124873     0.6787371    
     34900  -4112.3374     -4145.2576      32.920229      5185.539       295.11237      9460.6384      0.91067835     0.6787371    
     35000  -4111.4521     -4145.6612      34.209084      2275.7285      306.66627      9476.8729      0.9091183      0.78809009   
     35100  -4111.8948     -4145.1172      33.222392      628.60199      297.8211       9500.8307      0.90682582     0.78809009   
     35200  -4111.3344     -4146.5706      35.236113      240.77543      315.87304      9526.7905      0.90435479     0.78809009   
     35300  -4109.6587     -4144.2804      34.621731      2364.3033      310.36543      9548.7509      0.90227494     0.78809009   
     35400  -4109.888      -4144.296       34.407978      2120.4552      308.44925      9571.2893      0.90015026     0.78809009   
     35500  -4111.1644     -4146.0984      34.93399       133.46016      313.16467      9588.4115      0.89854285     0.78809009   
     35600  -4113.1229     -4146.157       33.034097     -171.46308      296.13314      9596.1501      0.89781824     0.78809009   
     35700  -4112.2309     -4146.2583      34.027455     -728.07973      305.03807      9590.968       0.89830334     0.78809009   
     35800  -4111.3825     -4144.0161      32.633571      947.85003      292.54264      9574.6686      0.89983256     0.78809009   
     35900  -4111.2031     -4145.9314      34.728312      199.2395       311.32087      9545.7791      0.90255584     0.78809009   
     36000  -4111.6115     -4145.6326      34.021074      4083.4357      304.98086      9501.7624      0.9067369      0.74974374   
     36100  -4111.6308     -4145.8855      34.254654      1877.7004      307.07478      9454.6802      0.91125225     0.74974374   
     36200  -4111.8748     -4146.0083      34.133522     -673.48263      305.9889       9412.5771      0.91532834     0.74974374   
     36300  -4112.1017     -4145.2972      33.19542       304.88771      297.57931      9381.2757      0.91838241     0.74974374   
     36400  -4113.2346     -4147.017       33.782355      2693.6683      302.84087      9367.7297      0.91971042     0.74974374   
     36500  -4114.1612     -4147.844       33.68287       468.76989      301.94905      9375.0163      0.91899559     0.74974374   
     36600  -4115.1682     -4147.4179      32.249743      1698.8023      289.10182      9402.453       0.91631393     0.74974374   
     36700  -4114.0575     -4147.0823      33.024804      1965.9749      296.04983      9440.3597      0.91263457     0.74974374   
     36800  -4112.4348     -4147.3032      34.868413      3225.0712      312.57681      9482.2992      0.90859805     0.74974374   
     36900  -4111.3391     -4146.0738      34.734641      1633.2738      311.37761      9527.3426      0.90430238     0.74974374   
     37000  -4112.0951     -4146.6317      34.536603     -100.7977       309.60231      9571.3994      0.90013991     0.68334718   
     37100  -4111.8897     -4145.3441      33.454381      1013.3309      299.90076      9606.0683      0.89689125     0.68334718   
     37200  -4111.6507     -4145.8696      34.218878     -455.06777      306.75407      9618.3144      0.89574932     0.68334718   
     37300  -4111.7016     -4145.1777      33.476051     -1616.5968      300.09502      9604.8839      0.89700185     0.68334718   
     37400  -4110.6127     -4144.2984      33.685712      1392.023       301.97452      9573.3329      0.89995811     0.68334718   
     37500  -4110.923      -4145.2351      34.312104     -315.37066      307.58979      9527.787       0.9042602      0.68334718   
     37600  -4112.2547     -4145.2695      33.014828     -73.416426      295.9604       9474.6655      0.90933011     0.68334718   
     37700  -4112.3468     -4146.7959      34.449095      456.46697      308.81784      9426.5623      0.91397037     0.68334718   
     37800  -4111.4211     -4146.7567      35.335608      2936.0795      316.76496      9389.8091      0.91754779     0.68334718   
     37900  -4112.5077     -4145.6384      33.130698      681.4647       296.99911      9369.4816      0.91953845     0.68334718   
     38000  -4111.1072     -4146.4132      35.305984      2062.1008      316.49939      9369.0536      0.91958045     0.72786747   
     38100  -4111.0584     -4146.2216      35.163245      2362.3807      315.21982      9386.3834      0.91788266     0.72786747   
     38200  -4111.2292     -4145.5724      34.343262      3861.713       307.86911      9418.3866      0.91476375     0.72786747   
     38300  -4111.7726     -4146.0716      34.298971      1721.8405      307.47206      9459.5266      0.91078538     0.72786747   
     38400  -4112.1845     -4145.9858      33.801338      1099.3468      303.01104      9502.8746      0.90663078     0.72786747   
     38500  -4111.6355     -4145.0854      33.449953     -482.4104       299.86106      9542.1496      0.90289914     0.72786747   
     38600  -4111.1644     -4145.6321      34.467647      1033.0564      308.98415      9571.8921      0.90009358     0.72786747   
     38700  -4112.1713     -4146.5438      34.372516     -1959.9463      308.13135      9592.6137      0.89814923     0.72786747   
     38800  -4111.4981     -4144.7874      33.289306      2132.8146      298.42095      9598.9123      0.89755988     0.72786747   
     38900  -4112.5316     -4146.0973      33.565707      1926.0504      300.89873      9595.8776      0.89784373     0.72786747   
     39000  -4112.3939     -4145.4475      33.053689      729.3738       296.30877      9581.7501      0.89916753     0.78172656   
     39100  -4111.5195     -4145.0833      33.563731     -631.38902      300.88102      9556.691       0.90152529     0.78172656   
     39200  -4112.4785     -4146.4466      33.968127     -680.8335       304.50622      9518.8412      0.90511003     0.78172656   
     39300  -4112.1051     -4146.4982      34.393081      1413.9802      308.3157       9474.9216      0.90930552     0.78172656   
     39400  -4112.176      -4147.06        34.883989     -590.00551      312.71644      9439.8368      0.91268512     0.78172656   
     39500  -4110.8012     -4145.3892      34.587934      3125.0725      310.06246      9417.4088      0.91485872     0.78172656   
     39600  -4112.1805     -4145.6655      33.484978      2480.0448      300.17505      9410.5801      0.91552258     0.78172656   
     39700  -4111.0665     -4145.1344      34.067967      4229.6849      305.40123      9415.9038      0.91500495     0.78172656   
     39800  -4109.6397     -4143.9806      34.340956      629.16472      307.84844      9432.5813      0.91338716     0.78172656   
     39900  -4109.9241     -4144.4006      34.476472     -511.34583      309.06326      9457.7125      0.91096009     0.78172656   
     40000  -4110.3461     -4144.0516      33.705496      2549.4762      302.15187      9489.1906      0.9079382      0.90536884   
     40100  -4112.1813     -4147.0596      34.878231      946.59891      312.66481      9522.8635      0.90472772     0.90536884   
     40200  -4111.7149     -4146.5887      34.87381       342.84632      312.62519      9549.8636      0.9021698      0.90536884   
     40300  -4111.6866     -4146.4359      34.749331     -0.74266227     311.5093       9568.9359      0.90037164     0.90536884   
     40400  -4111.0961     -4145.8171      34.72104       97.771254      311.25568      9577.5761      0.8995594      0.90536884   
     40500  -4110.6298     -4144.5944      33.964588     -1465.8109      304.4745       9573.8287      0.8999115      0.90536884   
     40600  -4111.4485     -4145.5533      34.104783      1047.4817      305.73126      9560.2463      0.90119002     0.90536884   
     40700  -4110.2922     -4144.7361      34.443833     -637.31418      308.77067      9531.9388      0.90386634     0.90536884   
     40800  -4110.155      -4145.1324      34.977367      731.42906      313.55352      9497.813       0.90711394     0.90536884   
     40900  -4109.2374     -4144.9658      35.728457      1447.9349      320.28664      9470.5489      0.90972537     0.90536884   
     41000  -4109.9408     -4144.6486      34.707801      3000.8726      311.137        9456.8582      0.91104238     0.73695929   
     41100  -4109.9467     -4146.2225      36.275765      1112.5177      325.19297      9452.5486      0.91145774     0.73695929   
     41200  -4109.6457     -4143.5923      33.946542      3102.3667      304.31272      9453.8412      0.91133312     0.73695929   
     41300  -4108.8757     -4143.5247      34.649057      1638.971       310.6104       9465.7385      0.91018768     0.73695929   
     41400  -4108.435      -4144.6587      36.223735     -1273.1454      324.72654      9490.2263      0.90783911     0.73695929   
     41500  -4110.238      -4143.7728      33.534868     -231.14957      300.62228      9520.6211      0.90494081     0.73695929   
     41600  -4110.6305     -4146.214       35.5835       -362.79422      318.98718      9550.5735      0.90210275     0.73695929   
     41700  -4110.0554     -4145.088       35.032595      1201.8475      314.04861      9573.024       0.89998715     0.73695929   
     41800  -4111.0932     -4144.5498      33.456582      2420.7278      299.92049      9582.5425      0.89909318     0.73695929   
     41900  -4111.9924     -4146.2357      34.243252      516.45747      306.97257      9574.7232      0.89982743     0.73695929   
     42000  -4112.6413     -4145.0153      32.373963      1931.6458      290.21539      9549.203       0.90223222     0.74550127   
     42100  -4112.6234     -4144.8859      32.262498      2189.3976      289.21616      9508.668       0.90607839     0.74550127   
     42200  -4113.0049     -4145.6083      32.60346      -441.81942      292.2727       9463.2822      0.91042393     0.74550127   
     42300  -4113.2061     -4147.2451      34.038978      1644.8758      305.14136      9419.6975      0.91463644     0.74550127   
     42400  -4114.0592     -4147.0695      33.010274      426.24806      295.91957      9388.2703      0.91769818     0.74550127   
     42500  -4113.7162     -4147.3244      33.608199      2817.0398      301.27966      9371.5827      0.91933229     0.74550127   
     42600  -4114.0943     -4148.006       33.911673      3733.2328      304.00013      9369.3173      0.91955458     0.74550127   
     42700  -4113.2122     -4146.4962      33.284027      1049.3856      298.37363      9381.8009      0.918331       0.74550127   
     42800  -4113.9493     -4147.4816      33.532318      1498.2639      300.59942      9410.3675      0.91554327     0.74550127   
     42900  -4114.5047     -4146.8392      32.334467      1332.8681      289.86132      9450.4935      0.91165595     0.74550127   
     43000  -4113.252      -4145.6013      32.349247      1230.804       289.99382      9493.743       0.90750283     0.81640145   
     43100  -4111.8724     -4146.9348      35.062367      166.55695      314.3155       9531.0887      0.90394696     0.81640145   
     43200  -4112.3551     -4146.9433      34.58814      -990.79983      310.06431      9557.9395      0.90140753     0.81640145   
     43300  -4111.9912     -4145.6464      33.65518       2221.4197      301.70082      9569.5047      0.90031813     0.81640145   
     43400  -4110.5503     -4145.0381      34.48782      -1003.5097      309.16499      9564.0899      0.90082786     0.81640145   
     43500  -4111.3708     -4144.6236      33.252767     -1742.6273      298.0934       9540.8397      0.90302309     0.81640145   
     43600  -4111.6834     -4145.8353      34.151841     -633.77635      306.15312      9501.9792      0.90671621     0.81640145   
     43700  -4111.2951     -4145.1376      33.842558      296.73515      303.38056      9453.9283      0.91132472     0.81640145   
     43800  -4111.3773     -4147.0854      35.70808       1036.6219      320.10397      9408.3841      0.91573627     0.81640145   
     43900  -4112.8321     -4146.133       33.300975     -363.14349      298.52555      9373.9884      0.91909636     0.81640145   
     44000  -4112.0232     -4145.5229      33.499703      466.69312      300.30705      9356.4729      0.92081692     0.80926949   
     44100  -4112.4254     -4146.0775      33.652129      1455.2271      301.67347      9361.0548      0.92036621     0.80926949   
     44200  -4112.8758     -4144.9589      32.083108      3303.0658      287.60802      9385.234       0.91799507     0.80926949   
     44300  -4112.047      -4145.1308      33.083744      4762.2649      296.57819      9426.6052      0.91396621     0.80926949   
     44400  -4111.4663     -4146.0618      34.595484      1376.4198      310.13014      9483.45        0.9084878      0.80926949   
     44500  -4111.4196     -4145.7693      34.349684      25.248735      307.92668      9543.3668      0.90278397     0.80926949   
     44600  -4111.88       -4145.9831      34.103083      58.648482      305.71603      9592.0411      0.89820285     0.80926949   
     44700  -4111.352      -4145.5341      34.182078      730.11453      306.42418      9618.9721      0.89568807     0.80926949   
     44800  -4111.0625     -4146.0823      35.019889     -2373.7124      313.9347       9619.8855      0.89560303     0.80926949   
     44900  -4112.0717     -4145.744       33.672295      1984.437       301.85424      9595.575       0.89787205     0.80926949   
     45000  -4110.5793     -4144.535       33.955756     -939.47566      304.39532      9550.4077      0.90211841     0.73275343   
     45100  -4110.9235     -4144.4124      33.488973     -856.42306      300.21086      9496.5589      0.90723374     0.73275343   
     45200  -4111.42       -4145.7061      34.28607       1002.4843      307.3564       9446.42        0.91204907     0.73275343   
     45300  -4112.0527     -4145.3682      33.315577      1970.0062      298.65646      9405.4079      0.91602605     0.73275343   
     45400  -4111.8387     -4145.3814      33.542708      3486.5998      300.69256      9378.3614      0.91866779     0.73275343   
     45500  -4110.9067     -4145.404       34.497338      1335.8741      309.25032      9369.3547      0.91955091     0.73275343   
     45600  -4110.9        -4145.4094      34.509327      4454.7953      309.35779      9379.125       0.918593       0.73275343   
     45700  -4111.7886     -4145.7559      33.967287      480.10117      304.49869      9411.5363      0.91542957     0.73275343   
     45800  -4111.1595     -4145.9107      34.751183      146.06921      311.5259       9456.6721      0.91106031     0.73275343   
     45900  -4111.4318     -4145.8322      34.40041      -209.56281      308.38141      9512.372       0.90572558     0.73275343   
     46000  -4112.398      -4145.9772      33.579241     -652.57191      301.02006      9568.5136      0.90041138     0.65850222   
     46100  -4111.1865     -4145.4539      34.267428      1817.0853      307.18929      9614.6518      0.89609055     0.65850222   
     46200  -4109.9836     -4145.5323      35.548704      3721.6061      318.67525      9639.8189      0.89375108     0.65850222   
     46300  -4110.9812     -4144.7843      33.803049      531.76512      303.02638      9640.1041      0.89372465     0.65850222   
     46400  -4110.6601     -4144.256       33.595891     -1380.4398      301.16932      9614.0564      0.89614604     0.65850222   
     46500  -4111.0532     -4144.4038      33.350578      1325.2113      298.97022      9560.0674      0.90120689     0.65850222   
     46600  -4109.6351     -4145.3534      35.718297      1942.0472      320.19556      9484.5522      0.90838222     0.65850222   
     46700  -4109.9792     -4146.9038      36.924672      749.18726      331.01007      9407.0275      0.91586834     0.65850222   
     46800  -4110.6888     -4146.2716      35.582813      2202.982       318.98102      9344.0309      0.92204303     0.65850222   
     46900  -4110.7678     -4144.5095      33.741783      2618.4495      302.47717      9305.7383      0.92583719     0.65850222   
     47000  -4110.0057     -4145.7992      35.7935        1108.5779      320.86972      9297.4311      0.92666442     0.77780515   
     47100  -4110.072      -4144.949       34.876983      4913.6414      312.65363      9317.09        0.92470917     0.77780515   
     47200  -4110.9465     -4144.5829      33.636406      2176.8162      301.53251      9361.0657      0.92036514     0.77780515   
     47300  -4110.9277     -4145.1613      34.233658      1686.0286      306.88656      9421.584       0.9144533      0.77780515   
     47400  -4110.5212     -4143.352       32.830749      928.08889      294.31023      9482.2507      0.9086027      0.77780515   
     47500  -4110.7436     -4144.7159      33.972335      705.26008      304.54394      9540.4803      0.90305712     0.77780515   
     47600  -4111.1717     -4144.5044      33.332719     -256.19013      298.81012      9590.7214      0.89832643     0.77780515   
     47700  -4111.8802     -4145.4292      33.549037     -220.56867      300.7493       9621.3062      0.89547079     0.77780515   
     47800  -4111.2404     -4145.9158      34.675334     -1996.1922      310.84596      9624.6677      0.89515803     0.77780515   
     47900  -4110.2031     -4144.901       34.697912     -469.15982      311.04835      9603.693       0.89711308     0.77780515   
     48000  -4109.1273     -4143.1723      34.045019     -1645.4379      305.19552      9565.86        0.90066116     0.89571681   
     48100  -4110.0666     -4144.4195      34.352901     -181.72015      307.95551      9522.2693      0.90478417     0.89571681   
     48200  -4109.6366     -4144.267       34.630408      2950.5005      310.44322      9479.5084      0.90886555     0.89571681   
     48300  -4108.92       -4144.1622      35.242256      948.58687      315.92811      9449.9335      0.91170997     0.89571681   
     48400  -4110.09       -4144.5156      34.425569     -537.52413      308.60695      9435.7261      0.91308274     0.89571681   
     48500  -4111.0453     -4145.7037      34.65843       446.15689      310.69442      9434.4211      0.91320904     0.89571681   
     48600  -4111.1837     -4145.726       34.542319      318.92386      309.65355      9442.9547      0.91238377     0.89571681   
     48700  -4110.8167     -4144.2451      33.428415      1608.6881      299.66799      9453.9706      0.91132064     0.89571681   
     48800  -4112.3531     -4145.2765      32.923394      1466.932       295.14074      9465.5683      0.91020405     0.89571681   
     48900  -4112.5711     -4146.0611      33.490026      1287.3384      300.2203       9476.9651      0.90910946     0.89571681   
     49000  -4112.3158     -4145.3445      33.028697     -1261.4369      296.08473      9488.2331      0.90802982     0.82407039   
     49100  -4112.7894     -4146.0903      33.300926      1434.5754      298.52511      9500.8319      0.90682571     0.82407039   
     49200  -4111.6132     -4144.9947      33.381492      962.99456      299.24735      9507.5705      0.90618298     0.82407039   
     49300  -4110.6685     -4144.8098      34.141249     -2183.1775      306.05816      9511.8578      0.90577453     0.82407039   
     49400  -4111.6198     -4146.16        34.540177     -398.60476      309.63434      9512.7624      0.90568841     0.82407039   
     49500  -4110.1941     -4143.8126      33.618487     -1010.5552      301.37188      9508.8216      0.90606375     0.82407039   
     49600  -4109.495      -4143.8096      34.314601      3471.6357      307.61217      9501.6637      0.90674632     0.82407039   
     49700  -4109.7019     -4145.8435      36.141626      674.00833      323.99048      9492.1136      0.9076586      0.82407039   
     49800  -4110.3443     -4146.153       35.808712      2057.1927      321.00608      9481.7237      0.9086532      0.82407039   
     49900  -4110.1113     -4144.8385      34.72718      -308.36119      311.31073      9475.4087      0.90925879     0.82407039   
     50000  -4109.0885     -4143.074       33.985553      4024.5715      304.66244      9473.5306      0.90943904     0.69268581   
     50100  -4109.1899     -4144.1133      34.92338       2969.288       313.06955      9476.639       0.90914074     0.69268581   
     50200  -4109.4521     -4144.4075      34.955342      2580.6531      313.35608      9484.3902      0.90839774     0.69268581   
     50300  -4111.2423     -4144.7222      33.479864      2786.7773      300.1292       9497.3467      0.90715848     0.69268581   
     50400  -4112.5626     -4146.1053      33.542679      975.76027      300.6923       9513.8827      0.90558176     0.69268581   
     50500  -4112.8158     -4146.0141      33.198326      564.98751      297.60536      9527.7374      0.90426491     0.69268581   
     50600  -4113.2008     -4147.6874      34.486588      3502.5647      309.15394      9535.2185      0.90355544     0.69268581   
     50700  -4113.2639     -4146.1992      32.935318     -1337.7465      295.24764      9535.6197      0.90351743     0.69268581   
     50800  -4113.3816     -4146.5848      33.203214      121.64205      297.64918      9525.9935      0.90443045     0.69268581   
     50900  -4113.3871     -4146.6162      33.2291        2337.5918      297.88123      9507.5815      0.90618193     0.69268581   
     51000  -4113.9015     -4146.7075      32.805928      117.36664      294.08772      9486.8914      0.90815824     0.64973428   
     51100  -4112.6106     -4146.836       34.225408      1796.5606      306.81261      9468.8377      0.90988977     0.64973428   
     51200  -4111.3263     -4145.3302      34.003973      2186.93        304.82756      9450.1711      0.91168704     0.64973428   
     51300  -4111.7359     -4145.8661      34.130161      2458.2301      305.95877      9438.5411      0.91281042     0.64973428   
     51400  -4111.0557     -4145.9098      34.85406       448.31545      312.44814      9438.8926      0.91277642     0.64973428   
     51500  -4111.3119     -4145.393       34.081121      4952.2063      305.51915      9455.3827      0.91118455     0.64973428   
     51600  -4110.5873     -4144.5405      33.9532       -247.47583      304.3724       9490.8288      0.90778148     0.64973428   
     51700  -4111.4594     -4146.7067      35.247337     -1805.2         315.97365      9541.0941      0.90299902     0.64973428   
     51800  -4112.1601     -4145.9369      33.776727     -1563.6149      302.79042      9594.6336      0.89796015     0.64973428   
     51900  -4113.4721     -4145.2131      31.741051     -782.00104      284.54166      9638.2839      0.89389342     0.64973428   
     52000  -4112.9494     -4145.9648      33.015323      1223.9185      295.96483      9656.858       0.8921741      0.72904288   
     52100  -4113.1145     -4146.1404      33.025875      1047.5661      296.05943      9644.9577      0.89327489     0.72904288   
     52200  -4112.4837     -4145.929       33.445268      1653.419       299.81907      9610.7395      0.89645533     0.72904288   
     52300  -4111.4069     -4145.742       34.335158      2515.9684      307.79645      9560.295       0.90118543     0.72904288   
     52400  -4110.4738     -4144.9976      34.523863      1931.659       309.4881       9506.2916      0.90630489     0.72904288   
     52500  -4111.2221     -4144.8213      33.599185      667.32483      301.19885      9456.0457      0.91112066     0.72904288   
     52600  -4110.5649     -4145.3531      34.788171      1258.7967      311.85748      9419.2165      0.91468314     0.72904288   
     52700  -4111.2295     -4146.7216      35.492131      1467.8664      318.1681       9403.6299      0.91619924     0.72904288   
     52800  -4112.3067     -4145.9352      33.628553      2182.198       301.46212      9411.6238      0.91542105     0.72904288   
     52900  -4113.2952     -4146.2569      32.961733      6056.37        295.48443      9442.4077      0.91243663     0.72904288   
     53000  -4113.2584     -4147.2455      33.987138      298.50045      304.67665      9492.1082      0.90765912     0.69245411   
     53100  -4113.6712     -4146.2657      32.594513      807.16607      292.1925       9553.5765      0.90181918     0.69245411   
     53200  -4111.69       -4146.7452      35.05515       1297.8041      314.2508       9610.3304      0.89649349     0.69245411   
     53300  -4111.877      -4146.4632      34.586239     -2719.225       310.04727      9651.2168      0.89269558     0.69245411   
     53400  -4111.3249     -4145.2808      33.955849     -294.24163      304.39615      9666.1916      0.89131262     0.69245411   
     53500  -4111.6059     -4146.2895      34.683671     -656.15188      310.92069      9655.7776      0.89227392     0.69245411   
     53600  -4110.2096     -4145.7363      35.526754     -1622.5772      318.47849      9621.4399      0.89545834     0.69245411   
     53700  -4110.9645     -4146.5239      35.5594       -431.23585      318.77114      9570.5374      0.90022099     0.69245411   
     53800  -4110.5085     -4145.3595      34.85097       934.04514      312.42044      9511.9486      0.90576589     0.69245411   
     53900  -4109.5219     -4144.209       34.68708       596.3032       310.95125      9456.2504      0.91110094     0.69245411   
     54000  -4110.1398     -4145.1733      35.033438      1313.7492      314.05617      9414.6006      0.91513161     0.82974642   
     54100  -4110.0705     -4144.9236      34.853183      1522.4859      312.44028      9394.4748      0.91709209     0.82974642   
     54200  -4110.9505     -4145.2539      34.303392      1917.6419      307.51169      9399.4873      0.91660303     0.82974642   
     54300  -4111.9377     -4145.3393      33.401595      4737.4088      299.42756      9428.0248      0.91382859     0.82974642   
     54400  -4112.7415     -4146.3374      33.595949      2251.1513      301.16984      9470.6245      0.9097181      0.82974642   
     54500  -4112.9026     -4146.7346      33.831962      104.51372      303.28557      9521.5244      0.90485496     0.82974642   
     54600  -4111.8582     -4145.7437      33.885457      6.1485867      303.76513      9570.5679      0.90021812     0.82974642   
     54700  -4111.9654     -4144.9931      33.027704     -1308.753       296.07583      9609.75        0.89654763     0.82974642   
     54800  -4112.8335     -4145.3271      32.493687      2046.9081      291.28865      9630.4314      0.89462229     0.82974642   
     54900  -4113.0112     -4146.7732      33.762033     -422.50648      302.65869      9627.9441      0.8948534      0.82974642   
     55000  -4113.7545     -4145.7372      31.982747      1570.0101      286.70834      9604.2387      0.89706211     0.72941736   
     55100  -4113.0389     -4145.8906      32.851737     -640.56329      294.49838      9564.865       0.90075485     0.72941736   
     55200  -4112.601      -4146.2837      33.682721      3878.6366      301.94771      9520.3334      0.90496816     0.72941736   
     55300  -4114.3135     -4148.0917      33.778131      2203.6975      302.80301      9482.0022      0.90862651     0.72941736   
     55400  -4113.3025     -4147.0209      33.718409     -2047.0675      302.26763      9453.8034      0.91133676     0.72941736   
     55500  -4112.7692     -4147.1952      34.426001      982.58528      308.61081      9439.5869      0.91270928     0.72941736   
     55600  -4112.6354     -4146.5656      33.930203      3357.3036      304.16625      9439.8866      0.91268031     0.72941736   
     55700  -4111.5208     -4146.3848      34.863966      1269.2738      312.53694      9454.3476      0.91128431     0.72941736   
     55800  -4112.7977     -4147.1069      34.309215     -2880.6353      307.56389      9481.6527      0.90866001     0.72941736   
     55900  -4114.3741     -4146.9842      32.6101        2065.1826      292.33223      9511.8567      0.90577464     0.72941736   
     56000  -4115.0268     -4147.3942      32.367463      2736.7302      290.15711      9537.0295      0.90338387     0.71890617   
     56100  -4113.8372     -4146.9131      33.075818      1779.6651      296.50714      9552.8035      0.90189216     0.71890617   
     56200  -4112.5222     -4146.1068      33.584603     -28.63358       301.06813      9559.8204      0.90123018     0.71890617   
     56300  -4112.2912     -4147.1411      34.849927      3244.3205      312.41109      9562.353       0.90099148     0.71890617   
     56400  -4112.0383     -4146.5014      34.4631        2522.0797      308.94339      9560.2603      0.90118871     0.71890617   
     56500  -4112.0635     -4145.2515      33.188044      1778.1173      297.51319      9556.4157      0.90155126     0.71890617   
     56600  -4111.7488     -4145.1283      33.379455     -634.17672      299.22908      9546.8844      0.90245134     0.71890617   
     56700  -4113.0416     -4146.2101      33.168472      3504.5835      297.33773      9534.347       0.90363803     0.71890617   
     56800  -4111.939      -4145.6724      33.733335      2789.5882      302.40143      9520.0543      0.90499469     0.71890617   
     56900  -4113.2935     -4145.8877      32.594259      2499.778       292.19022      9508.4744      0.90609684     0.71890617   
     57000  -4113.4159     -4146.1901      32.774201     -612.0301       293.80331      9499.6692      0.9069367      0.81934012   
     57100  -4112.6607     -4146.9385      34.277759      2231.1679      307.28191      9495.1571      0.90736767     0.81934012   
     57200  -4112.8503     -4145.6172      32.766943      2638.8303      293.73824      9495.8452      0.90730192     0.81934012   
[...]
    386100  -4111.2009     -4144.3277      33.126848      1472.0682      296.9646       9498.4384      0.90705422     0.90347132   
    386200  -4111.6089     -4144.5018      32.892938     -1005.8857      294.86772      9521.2286      0.90488307     0.90347132   
    386300  -4112.0521     -4146.3852      34.333177      2690.6165      307.7787       9541.9583      0.90291723     0.90347132   
    386400  -4112.6201     -4146.2604      33.640312      4432.5895      301.56753      9556.2057      0.90157107     0.90347132   
    386500  -4112.7918     -4146.5399      33.748123      3003.643       302.534        9565.3264      0.9007114      0.90347132   
    386600  -4113.774      -4147.54        33.765951      636.70969      302.69382      9569.1761      0.90034905     0.90347132   
    386700  -4113.2524     -4146.5729      33.320552      450.94026      298.70105      9564.154       0.90082182     0.90347132   
    386800  -4113.4568     -4146.797       33.340235      2499.5566      298.8775       9554.7289      0.90171042     0.90347132   
    386900  -4112.4527     -4145.4465      32.993785      3430.7332      295.77176      9538.2678      0.90326658     0.90347132   
    387000  -4112.0736     -4146.0118      33.938133     -450.77585      304.23734      9515.3193      0.90544503     0.7417748    
    387100  -4112.5708     -4146.3987      33.827844     -1168.5744      303.24866      9492.6164      0.90761053     0.7417748    
    387200  -4111.6498     -4146.4092      34.759433      693.54242      311.59985      9476.2477      0.90917828     0.7417748    
    387300  -4112.5988     -4146.1231      33.524307      4832.5041      300.52761      9468.0772      0.90996286     0.7417748    
    387400  -4111.9603     -4146.4542      34.493848      4169.2913      309.21902      9465.6331      0.91019782     0.7417748    
    387500  -4112.5385     -4146.8938      34.355292     -148.56392      307.97694      9473.5111      0.90944092     0.7417748    
    387600  -4111.974      -4145.2378      33.263708     -636.27665      298.19148      9490.8281      0.90778155     0.7417748    
    387700  -4111.6597     -4145.826       34.16629       545.16467      306.28264      9518.3121      0.90516034     0.7417748    
    387800  -4111.443      -4145.4273      33.984257      3754.6657      304.65082      9549.4444      0.90220941     0.7417748    
    387900  -4112.2223     -4144.1816      31.959316      1066.2566      286.49829      9577.2519      0.89958984     0.7417748    
    388000  -4112.4994     -4145.1634      32.664005      1037.4869      292.81546      9597.0301      0.89773592     0.67755744   
    388100  -4111.889      -4144.6409      32.751915      716.91771      293.60353      9603.8555      0.89709789     0.67755744   
    388200  -4111.7837     -4145.1736      33.389951      1663.1002      299.32318      9596.3226      0.8978021      0.67755744   
    388300  -4111.1186     -4146.2343      35.115633      1275.0911      314.793        9575.0901      0.89979295     0.67755744   
    388400  -4111.4875     -4145.4652      33.977688      4021.2752      304.59193      9543.5895      0.90276291     0.67755744   
    388500  -4110.4408     -4146.0105      35.569743      2955.4401      318.86386      9510.3832      0.90591498     0.67755744   
    388600  -4110.0084     -4145.0868      35.078392      1073.5043      314.45915      9479.0994      0.90890476     0.67755744   
    388700  -4110.5036     -4143.4767      32.973112      3075.6913      295.58644      9452.7101      0.91144217     0.67755744   
    388800  -4111.222      -4145.268       34.045982      1358.3151      305.20415      9432.3143      0.91341301     0.67755744   
    388900  -4110.4007     -4144.5832      34.182557     -1036.8123      306.42847      9423.3237      0.91428448     0.67755744   
    389000  -4109.3605     -4144.9845      35.623933      2364.1301      319.34964      9431.3521      0.91350619     0.69412978   
    389100  -4110.99       -4145.1084      34.118405      2503.7602      305.85338      9462.5779      0.91049169     0.69412978   
    389200  -4112.4615     -4146.2526      33.791101      931.25334      302.91928      9508.3496      0.90610873     0.69412978   
    389300  -4113.1023     -4146.3104      33.208046     -48.910741      297.6925       9558.4851      0.90135607     0.69412978   
    389400  -4113.8786     -4147.7056      33.82695      -465.62656      303.24064      9601.6988      0.8972994      0.69412978   
    389500  -4112.9251     -4145.7369      32.811799     -1482.0411      294.14035      9630.408       0.89462446     0.69412978   
    389600  -4112.4194     -4146.3453      33.925948      327.51869      304.12811      9638.5357      0.89387007     0.69412978   
    389700  -4112.3496     -4146.109       33.759379      2700.5449      302.6349       9624.1524      0.89520596     0.69412978   
    389800  -4111.1881     -4144.8517      33.663536     -436.81509      301.77573      9589.2513      0.89846416     0.69412978   
    389900  -4111.3297     -4147.3216      35.991878      1827.7364      322.64807      9539.9027      0.90311179     0.69412978   
    390000  -4111.5905     -4145.8278      34.23728       2113.5386      306.91903      9482.7287      0.9085569      0.79368215   
    390100  -4112.9454     -4146.8422      33.896813      843.82295      303.86693      9422.9564      0.91432012     0.79368215   
    390200  -4112.8993     -4146.5254      33.626121      1253.3483      301.44032      9373.627       0.91913179     0.79368215   
    390300  -4112.1441     -4146.9516      34.807459      1787.6921      312.03038      9351.4325      0.92131324     0.79368215   
    390400  -4111.9425     -4145.5219      33.57945       2882.9514      301.02194      9358.8337      0.92058465     0.79368215   
    390500  -4111.5358     -4144.6959      33.160099      3141.2761      297.26267      9390.0019      0.91752895     0.79368215   
    390600  -4111.1908     -4145.8128      34.621969     -2023.3971      310.36756      9436.9031      0.91296885     0.79368215   
    390700  -4111.8371     -4145.787       33.949903      68.808904      304.34285      9499.2207      0.90697951     0.79368215   
    390800  -4112.2478     -4145.6545      33.406714      2631.6372      299.47345      9567.4821      0.90050846     0.79368215   
    390900  -4112.0709     -4147.5274      35.456502      1924.5813      317.84871      9625.449       0.89508537     0.79368215   
    391000  -4112.6682     -4145.401       32.732725      511.35951      293.4315       9661.0989      0.89178247     0.67863363   
    391100  -4112.154      -4145.6365      33.482402      110.97386      300.15195      9664.7026      0.89144994     0.67863363   
    391200  -4112.4603     -4145.4727      33.012441      609.99782      295.939        9638.2383      0.89389765     0.67863363   
    391300  -4110.876      -4144.171       33.295001      2256.2228      298.472        9587.4254      0.89863527     0.67863363   
    391400  -4110.4971     -4145.4195      34.922385      2367.4031      313.06064      9523.264       0.90468967     0.67863363   
    391500  -4109.7232     -4144.2531      34.529831      2733.7983      309.54159      9456.852       0.91104298     0.67863363   
    391600  -4109.2875     -4143.7584      34.4709        779.07942      309.01331      9404.595       0.91610522     0.67863363   
    391700  -4110.4343     -4144.5098      34.075541      5518.8425      305.46913      9375.5872      0.91893963     0.67863363   
    391800  -4110.2985     -4144.9027      34.604154      2146.1396      310.20787      9369.3868      0.91954776     0.67863363   
    391900  -4110.3325     -4144.2396      33.90711       2458.3471      303.95924      9387.0011      0.91782226     0.67863363   
    392000  -4111.7595     -4145.7811      34.021585      3751.9748      304.98544      9426.3408      0.91399185     0.70072394   
    392100  -4111.8625     -4146.4695      34.607006     -1939.0474      310.23343      9479.4438      0.90887174     0.70072394   
    392200  -4110.9464     -4144.7629      33.816548      467.36396      303.14739      9535.9591      0.90348527     0.70072394   
    392300  -4113.6338     -4145.5915      31.957637      2200.2831      286.48324      9589.8527      0.89840781     0.70072394   
    392400  -4111.4791     -4144.9765      33.49737       1235.3846      300.28614      9629.4642      0.89471215     0.70072394   
    392500  -4111.793      -4145.7663      33.973257     -618.03114      304.55221      9651.3057      0.89268736     0.70072394   
    392600  -4113.1918     -4146.1922      33.000402     -2665.8613      295.83108      9651.9635      0.89262652     0.70072394   
    392700  -4110.874      -4145.2927      34.418742      1417.1387      308.54574      9627.6447      0.89488124     0.70072394   
    392800  -4109.5035     -4145.849       36.345479      3589.1841      325.81792      9583.0421      0.89904631     0.70072394   
    392900  -4108.2456     -4143.785       35.539348      1958.9197      318.59138      9530.7011      0.90398371     0.70072394   
    393000  -4108.0573     -4143.1943      35.136978      804.11365      314.98435      9483.1303      0.90851843     0.82089249   
    393100  -4109.0416     -4143.7618      34.720232      3422.7066      311.24844      9449.7826      0.91172453     0.82089249   
    393200  -4107.5013     -4142.7618      35.260466     -573.40379      316.09135      9434.2707      0.9132236      0.82089249   
    393300  -4108.2312     -4144.7696      36.538451     -763.38307      327.5478       9444.9263      0.91219331     0.82089249   
    393400  -4109.181      -4143.1979      34.016885      1799.6665      304.94331      9476.9718      0.90910882     0.82089249   
    393500  -4110.0248     -4144.9423      34.91757       2725.0071      313.01747      9519.5778      0.90503999     0.82089249   
    393600  -4109.0489     -4144.698       35.649122      2397.3703      319.57545      9566.2483      0.90062461     0.82089249   
    393700  -4109.8529     -4145.0698      35.216849     -2656.0434      315.70035      9608.0853      0.89670296     0.82089249   
    393800  -4109.8239     -4144.4513      34.627373      2039.5998      310.41601      9638.2044      0.8939008      0.82089249   
    393900  -4110.6645     -4144.0316      33.367127      531.67153      299.11858      9650.577       0.89275477     0.82089249   
    394000  -4109.9639     -4143.2324      33.268512     -1618.6958      298.23454      9638.1464      0.89390618     0.89179247   
    394100  -4110.4824     -4145.0402      34.557815     -1899.7405      309.79246      9606.3359      0.89686627     0.89179247   
    394200  -4110.9055     -4146.938       36.032532      3374.0082      323.01251      9562.3018      0.9009963      0.89179247   
    394300  -4113.1345     -4147.5596      34.425113      2148.6521      308.60285      9513.891       0.90558097     0.89179247   
    394400  -4113.5433     -4146.9189      33.375618      774.91079      299.19469      9470.1229      0.90976629     0.89179247   
    394500  -4113.1581     -4146.6606      33.502539      3482.1164      300.33247      9435.9201      0.91306397     0.89179247   
    394600  -4112.4564     -4147.5135      35.057105      1357.2707      314.26832      9418.4176      0.91476073     0.89179247   
    394700  -4113.2345     -4146.4033      33.168875      3294.7563      297.34135      9418.1282      0.91478884     0.89179247   
    394800  -4112.6533     -4147.0006      34.347289      1627.7328      307.90521      9436.4326      0.91301437     0.89179247   
    394900  -4113.1897     -4147.3757      34.185967      1894.5171      306.45904      9468.7949      0.90989389     0.89179247   
    395000  -4113.3647     -4146.1549      32.790227     -1185.1439      293.94698      9508.1616      0.90612665     0.68257126   
    395100  -4113.1669     -4147.0976      33.930741      1350.2649      304.17107      9547.0374      0.90243687     0.68257126   
    395200  -4112.5611     -4147.1222      34.561117      835.91093      309.82206      9575.4109      0.8997628      0.68257126   
    395300  -4111.5675     -4145.7691      34.201589     -870.29739      306.59908      9595.3657      0.89789163     0.68257126   
    395400  -4110.7198     -4144.9654      34.245639      861.517        306.99397      9604.8231      0.89700752     0.68257126   
    395500  -4110.0597     -4142.9708      32.91112       1016.2022      295.03071      9601.4445      0.89732317     0.68257126   
    395600  -4109.8655     -4145.2606      35.395141      504.12543      317.29864      9585.0059      0.89886211     0.68257126   
    395700  -4109.5548     -4145.0295      35.474756     -250.26756      318.01235      9560.0439      0.90120911     0.68257126   
    395800  -4109.9612     -4145.2134      35.252234     -1898.9779      316.01756      9536.7524      0.90341011     0.68257126   
    395900  -4109.6617     -4144.5797      34.91803       1826.2038      313.0216       9514.1287      0.90555834     0.68257126   
    396000  -4110.6597     -4145.8938      35.234131      2814.7294      315.85527      9495.565       0.9073287      0.769005     
    396100  -4112.3192     -4146.2689      33.949678      2941.5042      304.34084      9483.4669      0.90848618     0.769005     
    396200  -4112.0281     -4146.6534      34.625284      1283.3637      310.39728      9475.7569      0.90922538     0.769005     
    396300  -4110.7565     -4144.8326      34.076059      2983.595       305.47377      9474.0751      0.90938677     0.769005     
    396400  -4110.6518     -4144.01        33.358155      2527.6833      299.03815      9485.3437      0.90830643     0.769005     
    396500  -4112.2883     -4147.0611      34.772761      1753.9392      311.71934      9507.416       0.90619771     0.769005     
    396600  -4112.446      -4145.3233      32.877309      1222.2231      294.72762      9533.2514      0.90374189     0.769005     
    396700  -4113.0526     -4146.4384      33.385747     -1903.7378      299.28549      9563.9598      0.90084011     0.769005     
    396800  -4113.5734     -4146.7123      33.138849      497.1235       297.07218      9591.1193      0.89828917     0.769005     
    396900  -4113.7509     -4146.5315      32.780573     -323.99708      293.86042      9606.7334      0.89682915     0.769005     
    397000  -4114.0144     -4146.3657      32.35131       2268.2561      290.01232      9601.6741      0.89730171     0.74444345   
    397100  -4113.0351     -4146.4259      33.390856     -569.39177      299.33129      9573.0764      0.89998223     0.74444345   
    397200  -4113.5098     -4146.1879      32.678081      2482.3571      292.94164      9526.6498      0.90436814     0.74444345   
    397300  -4113.1822     -4146.1118      32.92955       740.21601      295.19592      9468.3307      0.90993849     0.74444345   
    397400  -4113.1961     -4145.8948      32.698792      256.13369      293.1273       9408.8156      0.91569428     0.74444345   
    397500  -4111.6592     -4145.2468      33.587664      3899.2843      301.09557      9360.0614      0.9204639      0.74444345   
    397600  -4112.1971     -4145.7793      33.582147      1416.1941      301.04612      9331.3376      0.92329728     0.74444345   
    397700  -4112.9968     -4147.034       34.037183      3551.4949      305.12527      9327.722       0.92365516     0.74444345   
    397800  -4111.9849     -4147.3705      35.385655      3026.7073      317.2136       9359.7051      0.92049894     0.74444345   
    397900  -4112.7377     -4146.4166      33.678947      4177.727       301.91387      9421.4884      0.91446258     0.74444345   
    398000  -4113.4523     -4146.4683      33.016023      620.72826      295.97111      9496.423       0.90724672     0.70709094   
    398100  -4111.7601     -4145.7154      33.955301     -190.31087      304.39124      9563.7016      0.90086443     0.70709094   
    398200  -4110.7027     -4145.9212      35.218482     -1016.958       315.71499      9614.5486      0.89610016     0.70709094   
    398300  -4111.4074     -4145.6476      34.240168      1794.4037      306.94492      9644.5039      0.89331693     0.70709094   
    398400  -4110.9057     -4145.8632      34.957449     -294.40019      313.37497      9651.1638      0.89270048     0.70709094   
    398500  -4110.731      -4144.3391      33.60813      -884.85871      301.27903      9631.972       0.89447919     0.70709094   
    398600  -4110.7682     -4144.0703      33.302068      1956.2115      298.53535      9598.9312      0.89755811     0.70709094   
    398700  -4110.5815     -4144.7456      34.1641       -664.24242      306.26301      9555.7459      0.90161445     0.70709094   
    398800  -4111.0172     -4146.4157      35.398475      1883.9293      317.32853      9509.1394      0.90603347     0.70709094   
    398900  -4111.3015     -4145.2501      33.948599      2271.2816      304.33116      9466.6131      0.9101036      0.70709094   
    399000  -4111.5817     -4146.5747      34.99299       2377.2184      313.69357      9433.7701      0.91327205     0.81500739   
    399100  -4112.0735     -4145.4359      33.362371      2923.2216      299.07594      9412.9835      0.91528882     0.81500739   
    399200  -4113.6627     -4147.4108      33.748036      1537.3636      302.53322      9402.5735      0.91630218     0.81500739   
    399300  -4113.6121     -4146.0329      32.420788     -1869.9153      290.63515      9404.5222      0.91611231     0.81500739   
    399400  -4114.126      -4147.0755      32.9495        762.37564      295.37477      9419.2993      0.91467511     0.81500739   
    399500  -4113.1169     -4147.0652      33.948391      2416.1733      304.32929      9442.5089      0.91242684     0.81500739   
    399600  -4114.0427     -4145.8605      31.817727     -3361.7071      285.22903      9468.4377      0.90992821     0.81500739   
    399700  -4113.9463     -4146.9726      33.026316      1807.509       296.06338      9492.9134      0.90758213     0.81500739   
    399800  -4112.5903     -4145.7977      33.20747       2447.3757      297.68733      9509.847       0.90596606     0.81500739   
    399900  -4113.0165     -4146.6968      33.680298      1960.9971      301.92598      9523.5706      0.90466055     0.81500739   
    400000  -4113.4761     -4145.7982      32.322041     -538.08974      289.74994      9528.0924      0.90423122     0.76390548   
    400100  -4112.6288     -4146.539       33.910164      1552.8535      303.98661      9521.061       0.90489901     0.76390548   
    400191  -4112.2604     -4146.2889      34.028465     -1002.0066      305.04712      9504.6712      0.9064594      0.76390548   
Loop time of 499.803 on 2 procs for 200000 steps with 864 atoms

Performance: 17.287 ns/day, 1.388 hours/ns, 400.158 timesteps/s, 345.736 katom-step/s
99.7% CPU use with 2 MPI tasks x 1 OpenMP threads

MPI task timing breakdown:
Section |  min time  |  avg time  |  max time  |%varavg| %total
---------------------------------------------------------------
Pair    | 262.04     | 262.34     | 262.65     |   1.9 | 52.49
Neigh   | 7.487      | 7.5292     | 7.5714     |   1.5 |  1.51
Comm    | 39.205     | 40.426     | 41.646     |  19.2 |  8.09
Output  | 0.29214    | 0.29513    | 0.29812    |   0.6 |  0.06
Modify  | 186.36     | 187.25     | 188.14     |   6.5 | 37.46
Other   |            | 1.962      |            |       |  0.39

Nlocal:            432 ave         435 max         429 min
Histogram: 1 0 0 0 0 0 0 0 0 1
Nghost:           2179 ave        2185 max        2173 min
Histogram: 1 0 0 0 0 0 0 0 0 1
Neighs:              0 ave           0 max           0 min
Histogram: 2 0 0 0 0 0 0 0 0 0
FullNghs:        44950 ave       45337 max       44563 min
Histogram: 1 0 0 0 0 0 0 0 0 1

Total # of neighbors = 89900
Ave neighs/atom = 104.05093
Neighbor list builds = 19969
Dangerous builds = 19816
Total wall time: 0:16:38
