LAMMPS (7 Feb 2024 - Update 1)
KOKKOS mode with Kokkos version 4.2.0 is enabled (src/KOKKOS/kokkos.cpp:72)
  will use up to 2 GPU(s) per node
  using 1 OpenMP thread(s) per MPI task
Reading data file ...
  triclinic box = (0 0 0) to (18.047441 22.912981 19.549222) with tilt (-0.10697296 -6.2467562 -0.022549581)
  1 by 2 by 1 MPI processor grid
  reading atoms ...
  1008 atoms
  read_data CPU = 0.009 seconds
ACE/AL version: 2023.11.25
Loading /home/cicn/cicn607503/pd/pot_dir/interim_potential_ladder_step_1.yaml
Total number of basis functions
	H: 23 (r=1) 664 (r>1)
	O: 23 (r=1) 664 (r>1)
Mapping LAMMPS atom type #1(H) -> ACE species type #0
Mapping LAMMPS atom type #2(O) -> ACE species type #1
Loading ASI /home/cicn/cicn607503/pd/pot_dir/interim_potential_ladder_step_1.asi
LINEAR ASI is loaded
Switching to 'neigh_modify every 1 delay 0 check yes' setting during minimization
Neighbor list info ...
  update: every = 1 steps, delay = 0 steps, check = yes
  max neighbors/atom: 2000, page size: 100000
  master list distance cutoff = 6.5
  ghost atom cutoff = 6.5
  binsize = 6.5, bins = 4 4 4
  1 neighbor lists, perpetual/occasional/extra = 1 0 0
  (1) pair pace/extrapolation/kk, perpetual
      attributes: full, newton on, kokkos_device
      pair build: full/bin/kk/device
      stencil: full/bin/3d
      bin: kk/device
Setting up cg/kk style minimization ...
  Unit style    : metal
  Current step  : 0
WARNING: Fix with atom-based arrays not compatible with sending data in Kokkos communication, switching to classic exchange/border communication (src/KOKKOS/comm_kokkos.cpp:666)
WARNING: Fix with atom-based arrays not compatible with Kokkos sorting on device, switching to classic host sorting (src/KOKKOS/atom_kokkos.cpp:218)
Per MPI rank memory allocation (min/avg/max) = 434.5 | 437.1 | 439.8 Mbytes
   Step         TotEng         PotEng         KinEng         Press           Temp          Volume        Density     c_max_pace_gamma
         0  -4828.0548     -4828.0548      0              65519.119      0              8084.0073      1.2433848      0.66599327   
       100  -4870.1836     -4870.1836      0             -8195.723       0              8084.0073      1.2433848      0.66599327   
       200  -4870.1941     -4870.1941      0             -8254.8387      0              8084.0073      1.2433848      0.66599327   
       297  -4870.1942     -4870.1942      0             -8253.7006      0              8084.0073      1.2433848      0.66599327   
Loop time of 1.10977 on 2 procs for 297 steps with 1008 atoms

99.7% CPU use with 2 MPI tasks x 1 OpenMP threads

Minimization stats:
  Stopping criterion = force tolerance
  Energy initial, next-to-last, final = 
     -4828.05482421704  -4870.19417350521  -4870.19417350928
  Force two-norm initial, final = 47.911707 0.00049841005
  Force max component initial, final = 2.3126941 4.2962647e-05
  Final line search alpha, max atom move = 1 4.2962647e-05
  Iterations, force evaluations = 297 593

MPI task timing breakdown:
Section |  min time  |  avg time  |  max time  |%varavg| %total
---------------------------------------------------------------
Pair    | 0.76781    | 0.77564    | 0.78346    |   0.9 | 69.89
Neigh   | 0.0019135  | 0.0019292  | 0.0019449  |   0.0 |  0.17
Comm    | 0.10917    | 0.11674    | 0.12431    |   2.2 | 10.52
Output  | 0.00029755 | 0.00029834 | 0.00029913 |   0.0 |  0.03
Modify  | 0.14015    | 0.14016    | 0.14017    |   0.0 | 12.63
Other   |            | 0.07501    |            |       |  6.76

Nlocal:            504 ave         505 max         503 min
Histogram: 1 0 0 0 0 0 0 0 0 1
Nghost:         2649.5 ave        2651 max        2648 min
Histogram: 1 0 0 0 0 0 0 0 0 1
Neighs:              0 ave           0 max           0 min
Histogram: 2 0 0 0 0 0 0 0 0 0
FullNghs:        73319 ave       73378 max       73260 min
Histogram: 1 0 0 0 0 0 0 0 0 1

Total # of neighbors = 146638
Ave neighs/atom = 145.47421
Neighbor list builds = 5
Dangerous builds = 0
Setting up Verlet run ...
  Unit style    : metal
  Current step  : 297
  Time step     : 0.0005
WARNING: Fix with atom-based arrays not compatible with sending data in Kokkos communication, switching to classic exchange/border communication (src/KOKKOS/comm_kokkos.cpp:666)
WARNING: Fix with atom-based arrays not compatible with Kokkos sorting on device, switching to classic host sorting (src/KOKKOS/atom_kokkos.cpp:218)
Per MPI rank memory allocation (min/avg/max) = 433.9 | 437.4 | 441 Mbytes
   Step         TotEng         PotEng         KinEng         Press           Temp          Volume        Density     c_max_pace_gamma
       297  -4829.843      -4870.1942      40.351139     -2922.2155      310            8084.0073      1.2433848      0.66599327   
       300  -4829.6188     -4862.8757      33.256914     -2698.2483      255.4982       8083.9676      1.2433909      0.66599327   
       400  -4821.2276     -4846.4233      25.195648      3705.3189      193.56704      8038.6992      1.2503928      0.66599327   
       500  -4814.6082     -4841.0722      26.463992      4695.1928      203.31117      7938.7454      1.266136       0.66599327   
       600  -4808.568      -4839.1294      30.56138       5786.478       234.7896       7818.3143      1.2856393      0.66599327   
       700  -4803.4806     -4837.6213      34.140671      6283.5325      262.28771      7718.7812      1.3022175      0.66599327   
       800  -4799.452      -4835.0477      35.595686      9724.0242      273.46595      7668.9997      1.3106705      0.66599327   
       900  -4798.0184     -4833.2409      35.222494      10281.728      270.59888      7676.365       1.309413       0.66599327   
      1000  -4796.4131     -4833.4914      37.078302      8885.7853      284.85624      7730.212       1.3002919      0.76531692   
      1100  -4795.4293     -4831.3125      35.883234      8719.0478      275.67506      7815.9224      1.2860327      0.76531692   
      1200  -4794.2762     -4832.7476      38.471332      7279.2278      295.55827      7912.4528      1.2703433      0.76531692   
      1300  -4792.4684     -4830.6446      38.176271      7335.7727      293.29144      7999.7217      1.2564852      0.76531692   
      1400  -4791.4668     -4828.3333      36.866524      2923.021       283.22923      8065.9362      1.2461705      0.76531692   
      1500  -4790.6309     -4829.4678      38.836981      2860.0828      298.36739      8103.8586      1.240339       0.76531692   
      1600  -4788.1861     -4827.3849      39.198829      1511.0295      301.14731      8114.0416      1.2387824      0.76531692   
      1700  -4787.2151     -4827.2232      40.008109      420.50659      307.36465      8102.5495      1.2405394      0.76531692   
      1800  -4788.7242     -4829.5171      40.792833      3599.3871      313.39334      8074.038       1.24492        0.76531692   
      1900  -4788.024      -4828.4459      40.421896      2756.6058      310.54359      8033.3927      1.2512188      0.76531692   
      2000  -4788.5107     -4828.0432      39.532574      3722.7942      303.71132      7984.7438      1.2588421      0.66200081   
      2100  -4787.8859     -4828.8312      40.945283      5155.6935      314.56454      7942.0348      1.2656116      0.66200081   
      2200  -4787.9415     -4828.7335      40.791973      6182.4318      313.38673      7913.3902      1.2701928      0.66200081   
      2300  -4788.173      -4827.2832      39.110163      5178.674       300.46612      7904.3578      1.2716443      0.66200081   
      2400  -4786.6261     -4826.3705      39.744463      6515.7788      305.33917      7919.0441      1.269286       0.66200081   
      2500  -4787.0988     -4827.6419      40.543102      8348.2076      311.47476      7952.9059      1.2638816      0.66200081   
      2600  -4784.8451     -4825.9429      41.097718      7711.5957      315.73563      8003.1845      1.2559415      0.66200081   
      2700  -4786.6265     -4826.7093      40.08281       6318.4161      307.93854      8057.6456      1.2474527      0.66200081   
      2800  -4786.3437     -4826.7565      40.412889      3110.1041      310.47439      8104.7079      1.240209       0.66200081   
      2900  -4783.6801     -4825.9168      42.23671       4480.2266      324.48601      8133.8426      1.2357667      0.66200081   
      3000  -4784.2914     -4825.6297      41.338281      2698.517       317.58377      8141.4168      1.234617       0.72421587   
      3100  -4784.8615     -4824.8707      40.009242      1628.3617      307.37335      8125.4439      1.237044       0.72421587   
      3200  -4785.3531     -4826.0134      40.660242      3979.7185      312.3747       8091.4805      1.2422364      0.72421587   
      3300  -4784.8794     -4826.9108      42.031372      8807.4736      322.90848      8044.5415      1.2494847      0.72421587   
      3400  -4784.3732     -4826.1054      41.732195      7660.0538      320.61004      7995.1011      1.2572113      0.72421587   
      3500  -4785.5378     -4827.6239      42.086182      6347.5845      323.32957      7956.3926      1.2633278      0.72421587   
      3600  -4785.3694     -4825.4592      40.089734      4837.1329      307.99174      7930.7447      1.2674133      0.72421587   
      3700  -4784.1143     -4827.3356      43.221243      7760.9216      332.04974      7927.7576      1.2678909      0.72421587   
      3800  -4783.255      -4826.1574      42.902365      6672.2074      329.59994      7946.7596      1.2648592      0.72421587   
      3900  -4782.4589     -4825.4634      43.004567      2738.5415      330.38511      7987.5133      1.2584056      0.72421587   
      4000  -4783.0138     -4824.2547      41.240897      5525.9953      316.83562      8048.2425      1.2489101      0.70283875   
      4100  -4784.4742     -4825.7741      41.29997       3444.0058      317.28945      8111.7069      1.2391389      0.70283875   
      4200  -4781.3944     -4824.1164      42.721988      3205.1221      328.21418      8160.4062      1.231744       0.70283875   
      4300  -4783.2944     -4823.5418      40.247415      2674.3613      309.20313      8190.9324      1.2271535      0.70283875   
      4400  -4784.4785     -4824.9937      40.51525       279.42491      311.26079      8191.6265      1.2270496      0.70283875   
      4500  -4785.1215     -4826.6957      41.57426       780.76821      319.39669      8156.0291      1.2324051      0.70283875   
      4600  -4786.4168     -4826.8504      40.433538      2517.5325      310.63303      8089.0664      1.2426071      0.70283875   
      4700  -4785.3803     -4824.9817      39.601334      7235.8669      304.23957      8004.4742      1.2557392      0.70283875   
      4800  -4785.746      -4827.3408      41.594828      6933.3067      319.55471      7922.3606      1.2687546      0.70283875   
      4900  -4786.4264     -4827.418       40.991592      8039.1559      314.92031      7863.1369      1.2783107      0.70283875   
      5000  -4786.9823     -4828.6714      41.689081      9293.8721      320.27882      7836.8688      1.2825954      0.75729229   
      5100  -4786.2891     -4827.6565      41.3674        9966.9462      317.80748      7849.3706      1.2805526      0.75729229   
      5200  -4787.4647     -4828.4338      40.969041      6681.529       314.74707      7891.982       1.2736384      0.75729229   
      5300  -4787.6001     -4828.3702      40.770055      6984.2         313.21834      7952.8163      1.2638959      0.75729229   
      5400  -4787.0201     -4826.3255      39.305429      692.74028      301.96626      8017.7253      1.2536638      0.75729229   
      5500  -4787.4457     -4827.5567      40.110937      3725.245       308.15463      8073.4436      1.2450117      0.75729229   
      5600  -4787.1791     -4827.1409      39.961841      1642.5308      307.00919      8108.8366      1.2395775      0.75729229   
      5700  -4788.2169     -4828.7866      40.569669      3977.4223      311.67887      8116.713       1.2383747      0.75729229   
      5800  -4786.3373     -4826.1495      39.812279      8136.8906      305.86017      8096.5811      1.2414538      0.75729229   
      5900  -4784.4078     -4825.4844      41.076615      7819.5861      315.57351      8061.655       1.2468323      0.75729229   
      6000  -4785.2643     -4827.0117      41.747366      2407.2306      320.72659      8024.7914      1.2525599      0.68671558   
      6100  -4786.7514     -4826.0498      39.298385      5246.8347      301.91215      7985.523       1.2587193      0.68671558   
      6200  -4786.2913     -4826.9286      40.63738       5399.2844      312.19906      7950.6918      1.2642336      0.68671558   
      6300  -4786.6073     -4827.4407      40.833413      8119.0449      313.7051       7925.6436      1.2682291      0.68671558   
      6400  -4786.048      -4826.4066      40.358638      5614.5534      310.05761      7915.9381      1.269784       0.68671558   
      6500  -4786.4951     -4827.4425      40.947475      5724.0633      314.58139      7925.4749      1.2682561      0.68671558   
      6600  -4786.9755     -4828.0037      41.028262      5967.6407      315.20204      7948.3303      1.2646092      0.68671558   
      6700  -4788.3172     -4828.0901      39.772919      2593.9828      305.55778      7981.928       1.2592862      0.68671558   
      6800  -4787.1583     -4827.3762      40.217893      7703.2743      308.97633      8019.2838      1.2534201      0.68671558   
      6900  -4786.8601     -4826.8055      39.945427      6774.7846      306.88309      8054.9148      1.2478756      0.68671558   
      7000  -4786.3389     -4827.6215      41.282538      3639.4649      317.15552      8077.7726      1.2443445      0.65160733   
      7100  -4787.6253     -4826.8467      39.221464      6600.2945      301.3212       8081.7043      1.2437391      0.65160733   
      7200  -4788.4501     -4827.0874      38.637278      7132.2244      296.83316      8064.8417      1.2463396      0.65160733   
      7300  -4787.3804     -4828.2721      40.891724      6802.305       314.15307      8032.5875      1.2513442      0.65160733   
      7400  -4787.8722     -4828.3576      40.485411      6720.3283      311.03155      7993.0132      1.2575397      0.65160733   
      7500  -4788.8846     -4829.0171      40.132506      4185.8709      308.32034      7954.2216      1.2636726      0.65160733   
      7600  -4787.4918     -4827.3019      39.810082      4784.4368      305.8433       7925.3287      1.2682795      0.65160733   
      7700  -4787.2302     -4827.3597      40.129528      4615.6521      308.29746      7915.1322      1.2699133      0.65160733   
      7800  -4787.4864     -4827.7417      40.255316      7137.4191      309.26383      7922.2394      1.268774       0.65160733   
      7900  -4785.6867     -4826.5888      40.902109      8817.3291      314.23286      7946.7727      1.2648571      0.65160733   
      8000  -4785.81       -4826.8509      41.040894      7849.1928      315.29908      7986.7089      1.2585324      0.6743305    
      8100  -4786.6135     -4827.5682      40.954769      5247.6651      314.63742      8039.6         1.2502527      0.6743305    
      8200  -4786.7364     -4827.6211      40.884795      3517.8681      314.09984      8090.5085      1.2423857      0.6743305    
      8300  -4785.3372     -4825.9991      40.661893      2928.2726      312.38738      8126.7452      1.2368459      0.6743305    
      8400  -4784.9681     -4825.8015      40.833322      2306.4101      313.70439      8145.2131      1.2340416      0.6743305    
      8500  -4785.8666     -4826.4523      40.58568       4133.5629      311.80187      8141.4621      1.2346102      0.6743305    
      8600  -4784.9007     -4826.6083      41.707554      1300.0297      320.42073      8114.3034      1.2387424      0.6743305    
      8700  -4785.0972     -4824.6189      39.521722      6512.866       303.62795      8064.4067      1.2464068      0.6743305    
      8800  -4785.0012     -4826.505       41.503807      5406.1965      318.85543      8003.1088      1.2559534      0.6743305    
      8900  -4784.9808     -4825.7261      40.745339      9116.3598      313.02846      7946.594       1.2648855      0.6743305    
      9000  -4785.7646     -4825.5452      39.780579      8732.0401      305.61664      7906.4168      1.2713132      0.66569502   
      9100  -4786.8857     -4828.4003      41.514572      5738.0528      318.93814      7891.6284      1.2736955      0.66569502   
      9200  -4786.0228     -4826.3168      40.293944      6723.5377      309.56059      7902.1108      1.2720059      0.66569502   
      9300  -4787.1757     -4827.5036      40.327942      7207.294       309.82178      7933.0578      1.2670438      0.66569502   
      9400  -4786.9776     -4826.0943      39.116635      2898.181       300.51585      7978.1222      1.2598869      0.66569502   
      9500  -4786.5312     -4826.6436      40.112414      7477.2362      308.16598      8027.4988      1.2521374      0.66569502   
      9600  -4785.7976     -4826.4337      40.636078      6171.77        312.18906      8070.9046      1.2454034      0.66569502   
      9700  -4787.4002     -4827.8284      40.428286     -515.13377      310.59268      8100.9042      1.2407913      0.66569502   
      9800  -4787.5935     -4827.6431      40.049581      1911.1581      307.68326      8111.7246      1.2391362      0.66569502   
      9900  -4787.2046     -4826.8316      39.627049      664.51863      304.43713      8099.8773      1.2409486      0.66569502   
     10000  -4785.7431     -4827.6952      41.952093      4566.5449      322.29942      8066.5504      1.2460756      0.64727646   
     10100  -4785.7081     -4825.6305      39.922454      7222.1406      306.7066       8024.9491      1.2525353      0.64727646   
     10200  -4785.3125     -4826.7848      41.472328      6060.552       318.6136       7984.827       1.258829       0.64727646   
     10300  -4785.8243     -4825.8295      40.005258      6272.8552      307.34274      7955.8592      1.2634125      0.64727646   
     10400  -4784.9955     -4826.1624      41.166927      5245.5121      316.26734      7940.565       1.2658459      0.64727646   
     10500  -4785.7565     -4826.7243      40.967783      7714.899       314.7374       7940.0142      1.2659337      0.64727646   
     10600  -4785.0022     -4826.8608      41.858583      7278.8442      321.58103      7957.495       1.2631527      0.64727646   
     10700  -4787.2273     -4828.2354      41.008132      2884.1713      315.04738      7994.4916      1.2573072      0.64727646   
     10800  -4788.4128     -4829.1509      40.738105      3695.897       312.97288      8039.4677      1.2502733      0.64727646   
     10900  -4787.3908     -4827.5214      40.1306        4602.1479      308.30569      8080.05        1.2439938      0.64727646   
     11000  -4787.6742     -4827.5437      39.869535      2778.4485      306.30004      8106.8934      1.2398747      0.66395651   
     11100  -4787.8114     -4827.045       39.233618      4473.4277      301.41457      8108.7572      1.2395897      0.66395651   
     11200  -4786.9874     -4825.712       38.724561      6140.9942      297.50372      8089.3598      1.2425621      0.66395651   
     11300  -4783.3508     -4825.4185      42.067664      9110.4961      323.1873       8055.0764      1.2478506      0.66395651   
     11400  -4784.2474     -4825.3297      41.08232       8248.0492      315.61734      8019.7698      1.2533442      0.66395651   
     11500  -4785.88       -4827.3643      41.484312      8155.3454      318.70566      7992.2069      1.2576666      0.66395651   
     11600  -4787.2175     -4827.7377      40.52022       4938.2405      311.29897      7979.394       1.2596861      0.66395651   
     11700  -4788.1904     -4828.1723      39.981961      6810.774       307.16377      7982.499       1.2591961      0.66395651   
     11800  -4788.2462     -4829.0622      40.816054      9161.2961      313.57174      7993.785       1.2574183      0.66395651   
     11900  -4788.0316     -4827.7042      39.672549      6640.9816      304.78669      8012.0684      1.2545489      0.66395651   
     12000  -4788.3936     -4828.1079      39.714253      2778.5306      305.10708      8036.8787      1.250676       0.704872     
     12100  -4788.214      -4828.639       40.424951      5786.4102      310.56706      8056.0199      1.2477044      0.704872     
     12200  -4787.104      -4827.6519      40.547962      6419.3753      311.5121       8062.1718      1.2467524      0.704872     
     12300  -4787.4892     -4826.3052      38.816063      4497.008       298.20669      8056.8887      1.2475699      0.704872     
     12400  -4786.0667     -4825.9214      39.854652      4642.355       306.18571      8045.9965      1.2492588      0.704872     
     12500  -4786.0035     -4826.9059      40.902426      3206.3124      314.23529      8034.2383      1.2510871      0.704872     
     12600  -4786.0566     -4826.6939      40.637286      6566.2911      312.19834      8022.5803      1.2529051      0.704872     
     12700  -4785.5862     -4826.9247      41.338529      8052.4209      317.58568      8011.4113      1.2546518      0.704872     
     12800  -4785.3742     -4825.8926      40.518454      6294.654       311.28541      8003.4632      1.2558978      0.704872     
     12900  -4786.4158     -4826.2458      39.829955      5398.0832      305.99597      8000.9156      1.2562977      0.704872     
     13000  -4785.6472     -4826.4525      40.805344      3797.5998      313.48945      8010.4957      1.2547952      0.66956562   
     13100  -4788.0244     -4828.5562      40.531833      4720.4509      311.38819      8028.9449      1.2519119      0.66956562   
     13200  -4788.205      -4827.0721      38.867129      8282.8285      298.599        8052.4321      1.2482604      0.66956562   
     13300  -4787.8908     -4827.0603      39.169468      4115.5331      300.92174      8078.7575      1.2441928      0.66956562   
     13400  -4786.456      -4826.7214      40.265364      4861.3776      309.34103      8098.7863      1.2411158      0.66956562   
     13500  -4787.0396     -4826.8005      39.760905      5529.0617      305.46549      8105.3827      1.2401058      0.66956562   
     13600  -4786.5349     -4826.8933      40.358458      5825.5499      310.05623      8097.726       1.2412783      0.66956562   
     13700  -4786.3318     -4825.8646      39.532771      22.822367      303.71284      8074.9424      1.2447806      0.66956562   
     13800  -4786.2616     -4825.6718      39.410198      1673.0653      302.77116      8045.9717      1.2492626      0.66956562   
     13900  -4786.4549     -4827.0728      40.617945      3466.0468      312.04975      8014.0825      1.2542336      0.66956562   
     14000  -4784.7822     -4827.1928      42.410681      6941.557       325.82255      7982.362       1.2592177      0.66887239   
     14100  -4785.3148     -4825.7271      40.412326      7289.8037      310.47007      7962.3214      1.2623871      0.66887239   
     14200  -4785.1758     -4825.4601      40.284257      6223.6755      309.48617      7961.683       1.2624883      0.66887239   
     14300  -4787.1748     -4826.7306      39.555742      4211.995       303.88931      7979.2713      1.2597055      0.66887239   
     14400  -4787.0053     -4825.7668      38.761432      1942.3531      297.78698      8007.3449      1.255289       0.66887239   
     14500  -4786.5436     -4826.2591      39.715551      5599.7221      305.11705      8036.5694      1.2507242      0.66887239   
     14600  -4788.2247     -4827.5353      39.310614      7460.3158      302.0061       8061.0178      1.2469308      0.66887239   
     14700  -4785.9671     -4826.4214      40.45431       3737.739       310.79261      8076.4448      1.2445491      0.66887239   
     14800  -4786.1471     -4827.0907      40.943556      2396.5079      314.55128      8078.7347      1.2441963      0.66887239   
     14900  -4786.8089     -4828.0094      41.200458      4335.4719      316.52494      8067.7389      1.245892       0.66887239   
     15000  -4787.2709     -4826.1738      38.902955      5871.5137      298.87424      8047.3217      1.2490531      0.62267318   
     15100  -4787.9933     -4827.6468      39.653555      6040.6651      304.64077      8026.6147      1.2522754      0.62267318   
     15200  -4786.069      -4826.5171      40.448073      6973.3643      310.7447       8005.109       1.2556396      0.62267318   
     15300  -4784.8548     -4826.6842      41.829404      6242.9945      321.35686      7987.8812      1.2583477      0.62267318   
     15400  -4785.1868     -4825.8028      40.615936      6331.5674      312.03432      7983.0564      1.2591082      0.62267318   
     15500  -4785.8023     -4826.771       40.968646      3764.9331      314.74403      7992.6972      1.2575895      0.62267318   
     15600  -4786.0445     -4826.3181      40.27359       3755.4886      309.40422      8014.6266      1.2541485      0.62267318   
     15700  -4785.8914     -4827.8078      41.916436      1529.8499      322.02549      8037.645       1.2505568      0.62267318   
     15800  -4784.1658     -4824.6398      40.47398       7969.0245      310.94373      8053.757       1.248055       0.62267318   
     15900  -4783.8821     -4823.7964      39.91434       6473.64        306.64426      8062.9446      1.2466329      0.62267318   
     16000  -4785.6628     -4824.9576      39.294793      3185.2637      301.88456      8065.3829      1.246256       0.73031325   
     16100  -4785.9961     -4827.4         41.403824      3807.3773      318.08731      8061.0916      1.2469194      0.73031325   
     16200  -4787.0804     -4827.1693      40.088947      4090.9094      307.98569      8053.9792      1.2480206      0.73031325   
     16300  -4786.8866     -4825.5516      38.665062      3105.4424      297.04661      8040.2242      1.2501556      0.73031325   
     16400  -4786.481      -4827.6816      41.200628      3219.7215      316.52625      8023.9019      1.2526987      0.73031325   
     16500  -4788.644      -4827.3169      38.672937      4034.311       297.10711      8007.4904      1.2552662      0.73031325   
     16600  -4787.1766     -4826.4639      39.287313      5374.6902      301.82709      7987.7983      1.2583607      0.73031325   
     16700  -4786.4374     -4825.9996      39.562182      7036.1363      303.93879      7971.1481      1.2609892      0.73031325   
     16800  -4786.7136     -4827.7146      41.001053      7248.9502      314.993        7962.3233      1.2623868      0.73031325   
     16900  -4788.4906     -4826.9156      38.425003      6359.9269      295.20234      7960.2911      1.2627091      0.73031325   
     17000  -4789.1785     -4829.1358      39.95739       6407.5897      306.97499      7968.564       1.2613981      0.71530178   
     17100  -4788.9289     -4827.6882      38.759258      3166.4405      297.77027      7983.3263      1.2590656      0.71530178   
     17200  -4788.5127     -4827.8952      39.382537      5181.0725      302.55866      8002.4429      1.2560579      0.71530178   
     17300  -4789.0505     -4829.1106      40.060125      3720.789       307.76427      8024.6566      1.2525809      0.71530178   
     17400  -4789.1124     -4829.0224      39.909933      4808.6281      306.61041      8043.8095      1.2495984      0.71530178   
     17500  -4788.2184     -4827.6621      39.443717      4876.4328      303.02867      8050.8882      1.2484997      0.71530178   
     17600  -4788.0211     -4827.6096      39.588465      3541.1525      304.14071      8042.5721      1.2497907      0.71530178   
     17700  -4787.3633     -4827.7849      40.421665      2039.0124      310.54181      8017.7993      1.2536522      0.71530178   
     17800  -4786.1061     -4827.1928      41.086719      6561.9584      315.65114      7987.9849      1.2583313      0.71530178   
     17900  -4786.8623     -4827.8003      40.938068      5826.5703      314.50911      7957.9994      1.2630727      0.71530178   
     18000  -4787.2217     -4827.0161      39.794426      7555.0404      305.72301      7936.8813      1.2664334      0.68103676   
     18100  -4786.7241     -4827.4038      40.679727      7705.2073      312.5244       7933.8926      1.2669105      0.68103676   
     18200  -4786.3958     -4827.8702      41.474405      5765.0629      318.62955      7946.2388      1.2649421      0.68103676   
     18300  -4784.6726     -4826.0129      41.340309      2945.0624      317.59936      7967.1213      1.2616265      0.68103676   
     18400  -4784.189      -4825.7347      41.545677      5038.7641      319.1771       8000.5546      1.2563544      0.68103676   
     18500  -4783.3708     -4825.7278      42.356982      6219.8555      325.41         8039.9337      1.2502008      0.68103676   
     18600  -4785.1612     -4824.8805      39.719336      7026.8661      305.14613      8075.9689      1.2446224      0.68103676   
     18700  -4785.0996     -4826.4043      41.304694      3835.2976      317.32574      8102.5097      1.2405455      0.68103676   
     18800  -4786.3759     -4826.4927      40.116782      3710.5174      308.19953      8114.1187      1.2387706      0.68103676   
     18900  -4785.9064     -4826.1558      40.2494        3273.6119      309.21838      8106.2769      1.239969       0.68103676   
     19000  -4786.4517     -4826.3598      39.908139      3350.3997      306.59662      8075.2563      1.2447322      0.63841232   
     19100  -4786.4743     -4827.8108      41.336534      4906.2606      317.57035      8024.6735      1.2525783      0.63841232   
     19200  -4786.1365     -4828.178       42.041571      9958.6206      322.98684      7965.4296      1.2618945      0.63841232   
     19300  -4786.3797     -4826.7397      40.360084      8311.2818      310.06872      7910.093       1.2707223      0.63841232   
     19400  -4785.4853     -4826.6925      41.207151      12957.85       316.57636      7878.0099      1.2758973      0.63841232   
     19500  -4786.9601     -4828.0122      41.052147      1958.6055      315.38554      7879.4616      1.2756623      0.63841232   
     19600  -4786.9022     -4827.2005      40.298279      6094.8762      309.5939       7907.1512      1.2711951      0.63841232   
     19700  -4786.9855     -4827.5767      40.59118       7022.5553      311.84413      7963.4248      1.2622122      0.63841232   
     19800  -4787.9506     -4828.0303      40.079635      3966.6782      307.91415      8037.498       1.2505797      0.63841232   
     19900  -4786.6305     -4827.6773      41.04683       4955.476       315.34469      8105.2107      1.2401321      0.63841232   
     20000  -4786.1739     -4825.4096      39.235715      3362.8848      301.43069      8146.8791      1.2337892      0.70008862   
     20100  -4788.3514     -4827.0571      38.705728      3302.6467      297.35903      8155.4575      1.2324915      0.70008862   
     20200  -4787.4546     -4827.8392      40.384569      1446.5451      310.25683      8133.6328      1.2357986      0.70008862   
     20300  -4788.4443     -4828.2796      39.835277      4773.6009      306.03686      8089.4902      1.242542       0.70008862   
     20400  -4788.2876     -4827.6595      39.3719        9058.9806      302.47694      8036.3683      1.2507555      0.70008862   
     20500  -4786.5767     -4826.5592      39.982471      7637.2199      307.16768      7984.1897      1.2589295      0.70008862   
     20600  -4784.4327     -4825.3064      40.873723      3906.4882      314.01478      7941.2581      1.2657354      0.70008862   
     20700  -4784.2719     -4825.4261      41.154193      8734.1549      316.1695       7919.8639      1.2691546      0.70008862   
     20800  -4783.9036     -4826.8569      42.953363      5340.1554      329.99174      7922.0596      1.2688028      0.70008862   
     20900  -4784.99       -4826.4269      41.436872      8166.2853      318.34121      7941.5014      1.2656966      0.70008862   
     21000  -4785.9868     -4826.5477      40.56092       6734.9509      311.61165      7973.2536      1.2606562      0.67954752   
     21100  -4785.6658     -4827.9328      42.267013      4059.5572      324.71881      8007.017       1.2553404      0.67954752   
     21200  -4784.7768     -4825.2708      40.494023      1173.1381      311.09771      8033.9964      1.2511247      0.67954752   
     21300  -4784.3223     -4826.7721      42.449792      4797.6345      326.12302      8053.1326      1.2481518      0.67954752   
     21400  -4783.3621     -4825.5665      42.204385      4620.2188      324.23767      8060.493       1.247012       0.67954752   
     21500  -4785.1483     -4824.1267      38.978471      6736.0443      299.45439      8061.4326      1.2468667      0.67954752   
     21600  -4784.1267     -4825.7579      41.631211      6432.5498      319.83422      8055.2214      1.2478281      0.67954752   
     21700  -4783.9573     -4826.4067      42.449371      6797.5028      326.11979      8041.851       1.2499028      0.67954752   
     21800  -4784.2204     -4827.3306      43.110287      6348.0023      331.19732      8025.6327      1.2524286      0.67954752   
     21900  -4786.6403     -4826.8391      40.198821      5016.9267      308.8298       8008.0266      1.2551821      0.67954752   
     22000  -4786.742      -4826.403       39.661044      4110.9967      304.6983       7993.206       1.2575094      0.70972049   
     22100  -4785.7755     -4827.0032      41.22776       5875.3474      316.73469      7982.6836      1.259167       0.70972049   
     22200  -4785.4091     -4826.2226      40.813526      3275.9146      313.55231      7973.5295      1.2606126      0.70972049   
     22300  -4787.0497     -4826.782       39.732243      5255.2487      305.24529      7966.079       1.2617916      0.70972049   
     22400  -4786.5345     -4826.5925      40.057936      5957.8531      307.74745      7963.1382      1.2622576      0.70972049   
     22500  -4787.1254     -4827.4397      40.314239      7322.6484      309.71651      7965.8684      1.261825       0.70972049   
     22600  -4785.9853     -4827.5087      41.523385      3549.2193      319.00585      7974.6624      1.2604335      0.70972049   
     22700  -4786.9058     -4826.3226      39.416785      3219.8764      302.82177      7989.7524      1.258053       0.70972049   
     22800  -4785.3905     -4826.2389      40.848336      329.69433      313.81974      8007.3845      1.2552828      0.70972049   
     22900  -4785.8066     -4825.1843      39.377675      3188.8963      302.5213       8024.9884      1.2525291      0.70972049   
     23000  -4785.5938     -4826.8237      41.229955      4232.8512      316.75155      8035.2097      1.2509358      0.70814819   
     23100  -4786.5658     -4828.1         41.534235      7145.2912      319.0892       8035.2677      1.2509268      0.70814819   
     23200  -4787.8303     -4828.8779      41.047579      4020.5857      315.35044      8027.1667      1.2521892      0.70814819   
     23300  -4788.4049     -4829.1974      40.792455      7118.4851      313.39043      8006.2673      1.2554579      0.70814819   
     23400  -4787.7808     -4827.7693      39.988545      7787.4199      307.21435      7980.3588      1.2595338      0.70814819   
     23500  -4787.0405     -4825.8611      38.820622      2187.2016      298.24171      7952.3681      1.2639671      0.70814819   
     23600  -4788.4981     -4828.1503      39.652218      2760.5301      304.6305       7930.442       1.2674617      0.70814819   
     23700  -4788.2631     -4829.8412      41.578054      8625.849       319.42584      7923.0128      1.2686502      0.70814819   
     23800  -4787.3745     -4828.0896      40.715075      8354.8198      312.79596      7930.7981      1.2674048      0.70814819   
     23900  -4786.1196     -4825.7466      39.627058      8779.7524      304.4372       7950.9872      1.2641866      0.70814819   
     24000  -4785.8705     -4826.6819      40.811347      6537.4115      313.53557      7981.0214      1.2594292      0.683318     
     24100  -4784.674      -4825.9599      41.285897      8608.0555      317.18133      8015.2936      1.2540441      0.683318     
     24200  -4785.9691     -4826.017       40.047833      4816.5659      307.66983      8049.99        1.248639       0.683318     
     24300  -4786.7155     -4827.4945      40.778946      4771.5052      313.28665      8077.4305      1.2443972      0.683318     
     24400  -4787.2555     -4827.2394      39.983852      2554.4344      307.17829      8088.4756      1.2426979      0.683318     
     24500  -4786.2549     -4826.2578      40.002894      1331.3834      307.32458      8075.8528      1.2446403      0.683318     
     24600  -4786.7665     -4826.2201      39.453657      5142.3684      303.10504      8046.5447      1.2491737      0.683318     
     24700  -4786.0717     -4826.8502      40.778518      4662.9286      313.28336      8007.9012      1.2552018      0.683318     
     24800  -4786.3642     -4826.7897      40.425586      6847.1998      310.57194      7971.9369      1.2608644      0.683318     
     24900  -4787.37       -4827.0723      39.702291      7260.225       305.01518      7948.4064      1.2645971      0.683318     
     25000  -4787.2672     -4827.6475      40.380304      5760.33        310.22405      7937.278       1.2663701      0.70602404   
     25100  -4787.0364     -4826.4378      39.401429      4430.918       302.70379      7939.2391      1.2660573      0.70602404   
     25200  -4786.7999     -4827.1218      40.321902      1101.7482      309.77538      7952.2023      1.2639935      0.70602404   
     25300  -4787.6024     -4827.3799      39.777597      8063.0767      305.59373      7968.4017      1.2614238      0.70602404   
     25400  -4788.8591     -4827.4685      38.609388      8694.4857      296.61889      7989.9399      1.2580234      0.70602404   
     25500  -4787.4799     -4826.5705      39.090608      2473.2179      300.3159       8017.5994      1.2536834      0.70602404   
     25600  -4787.5677     -4827.4059      39.838207      2200.7112      306.05937      8042.7937      1.2497562      0.70602404   
     25700  -4789.4614     -4830.1917      40.730229      6100.4745      312.91238      8060.6466      1.2469883      0.70602404   
     25800  -4788.2627     -4828.098       39.835291      5627.2287      306.03696      8063.8487      1.2464931      0.70602404   
     25900  -4787.5837     -4827.1205      39.536782      4291.9784      303.74365      8050.5507      1.2485521      0.70602404   
     26000  -4786.5391     -4826.7959      40.256738      4470.3355      309.27475      8028.8204      1.2519313      0.66732668   
     26100  -4786.9502     -4826.472       39.521806      7948.7782      303.6286       8009.2496      1.2549904      0.66732668   
     26200  -4786.5942     -4828.9376      42.343378      7167.7004      325.30549      7997.3855      1.2568522      0.66732668   
     26300  -4786.5343     -4827.9156      41.38133       4260.9033      317.9145       7988.8738      1.2581913      0.66732668   
     26400  -4787.3173     -4827.6286      40.311336      7506.93        309.69421      7987.4005      1.2584234      0.66732668   
     26500  -4786.0802     -4826.1603      40.080127      5668.3113      307.91793      7995.6706      1.2571218      0.66732668   
     26600  -4785.6649     -4826.5003      40.835449      3386.214       313.72074      8011.6929      1.2546077      0.66732668   
     26700  -4786.339      -4825.7339      39.394848     -1087.0609      302.65323      8035.1041      1.2509523      0.66732668   
     26800  -4786.4617     -4826.5758      40.11407       2448.9411      308.1787       8057.2777      1.2475097      0.66732668   
     26900  -4787.1038     -4827.3279      40.224072      6681.9463      309.0238       8069.055       1.2456888      0.66732668   
     27000  -4786.645      -4825.0499      38.404923      6760.7576      295.04808      8069.8518      1.2455658      0.7124152    
     27100  -4787.5412     -4827.1045      39.563325      4979.3125      303.94757      8063.7773      1.2465041      0.7124152    
     27200  -4784.8771     -4826.706       41.828837      4705.4935      321.3525       8050.644       1.2485376      0.7124152    
     27300  -4783.4092     -4827.107       43.697823      6401.5731      335.71109      8036.0012      1.2508126      0.7124152    
     27400  -4782.9067     -4824.9397      42.032995      4601.4191      322.92096      8022.1404      1.2529738      0.7124152    
     27500  -4782.7235     -4826.7606      44.037024      4700.146       338.31702      8011.712       1.2546047      0.7124152    
     27600  -4783.5605     -4825.5481      41.987546      4611.0582      322.57179      8011.6668      1.2546118      0.7124152    
     27700  -4784.3541     -4826.0892      41.735079      4014.4559      320.6322       8020.1085      1.2532912      0.7124152    
     27800  -4785.2935     -4825.9024      40.608881      2393.7086      311.98011      8031.7431      1.2514757      0.7124152    
     27900  -4786.2166     -4825.7891      39.572513      3117.5492      304.01816      8041.5642      1.2499473      0.7124152    
     28000  -4784.8656     -4827.3699      42.504284      2862.4693      326.54166      8047.0037      1.2491024      0.70644069   
     28100  -4785.8225     -4826.7546      40.932167      2072.8613      314.46378      8045.5545      1.2493274      0.70644069   
     28200  -4786.7533     -4827.3469      40.593606      8300.798       311.86276      8034.3985      1.2510621      0.70644069   
     28300  -4786.7772     -4826.4129      39.635686      6673.6671      304.50348      8017.6496      1.2536756      0.70644069   
     28400  -4787.7278     -4826.8782      39.150417     -635.43981      300.77538      8002.0644      1.2561173      0.70644069   
     28500  -4788.497      -4829.7976      41.300599      2214.8595      317.29428      7988.8428      1.2581962      0.70644069   
     28600  -4786.924      -4827.7185      40.794556      4354.9         313.40657      7975.4558      1.2603081      0.70644069   
     28700  -4787.8972     -4828.2898      40.392586      7473.3952      310.31842      7961.8579      1.2624606      0.70644069   
     28800  -4788.5686     -4828.0898      39.521269      4759.5448      303.62447      7952.7241      1.2639105      0.70644069   
     28900  -4787.0433     -4827.7805      40.73718       5842.7711      312.96578      7953.9336      1.2637183      0.70644069   
     29000  -4787.5694     -4827.702       40.132647      3660.3919      308.32142      7966.5909      1.2617105      0.65167533   
     29100  -4787.2602     -4826.7559      39.495683      3188.731       303.4279       7987.442       1.2584169      0.65167533   
     29200  -4786.8659     -4826.9628      40.096921      5466.1425      308.04695      8007.647       1.2552416      0.65167533   
     29300  -4784.5566     -4826.0514      41.494763      6280.6196      318.78595      8025.6713      1.2524225      0.65167533   
     29400  -4785.1568     -4827.363       42.20622       6298.6743      324.25177      8044.1736      1.2495419      0.65167533   
     29500  -4786.9451     -4827.0518      40.106673      3497.6841      308.12187      8063.6571      1.2465227      0.65167533   
     29600  -4786.4919     -4827.2894      40.797432      6018.5452      313.42867      8075.5081      1.2446934      0.65167533   
     29700  -4788.3474     -4826.9609      38.613553      4079.4269      296.65089      8074.3844      1.2448666      0.65167533   
     29800  -4787.2867     -4827.3269      40.0402        1509.3659      307.61119      8059.301       1.2471965      0.65167533   
     29900  -4787.7896     -4827.0213      39.231684      1130.9667      301.39972      8030.0478      1.25174        0.65167533   
     30000  -4785.6828     -4825.7581      40.075359      4416.0181      307.8813       7995.8892      1.2570874      0.65095096   
     30100  -4787.0947     -4826.7256      39.630919      4921.3578      304.46687      7967.3901      1.261584       0.65095096   
     30200  -4786.6975     -4827.9245      41.227017      7138.4787      316.72898      7949.9814      1.2643466      0.65095096   
     30300  -4787.5664     -4828.8681      41.301762      7914.7716      317.30321      7947.2227      1.2647855      0.65095096   
     30400  -4787.3806     -4826.3412      38.960637      6473.1472      299.31739      7959.4268      1.2628462      0.65095096   
     30500  -4786.6063     -4827.1389      40.532672      5700.6065      311.39463      7987.2603      1.2584455      0.65095096   
     30600  -4786.7807     -4827.5017      40.721014      6456.7069      312.84158      8021.2063      1.2531197      0.65095096   
     30700  -4787.5956     -4826.7513      39.15565       4533.4232      300.81558      8056.5965      1.2476151      0.65095096   
     30800  -4787.0752     -4826.7567      39.681478      2959.9909      304.85528      8084.486       1.2433112      0.65095096   
     30900  -4787.7198     -4826.0997      38.379871      2450.6293      294.85561      8090.678       1.2423596      0.65095096   
     31000  -4786.5896     -4827.1217      40.532065      981.95253      311.38997      8077.2673      1.2444223      0.62264419   
     31100  -4786.8119     -4826.7637      39.951786      816.46928      306.93195      8052.4991      1.24825        0.62264419   
     31200  -4787.9617     -4827.2417      39.279964      2447.6932      301.77063      8018.1882      1.2535914      0.62264419   
     31300  -4786.2867     -4827.2374      40.950725      799.33701      314.60635      7977.4035      1.2600004      0.62264419   
     31400  -4785.3225     -4825.9318      40.60936       5939.3285      311.9838       7941.1053      1.2657598      0.62264419   
     31500  -4787.0383     -4827.5326      40.494349      5316.2845      311.10022      7916.9092      1.2696283      0.62264419   
     31600  -4788.1157     -4829.966       41.850304      4543.0965      321.51742      7909.9693      1.2707422      0.62264419   
     31700  -4788.5284     -4828.0118      39.483338      5204.68        303.33307      7920.7002      1.2690206      0.62264419   
     31800  -4788.0911     -4826.7156      38.624489      5280.1899      296.73491      7944.0083      1.2652972      0.62264419   
     31900  -4788.5298     -4829.1637      40.633852      5451.6498      312.17195      7970.3789      1.2611109      0.62264419   
     32000  -4788.2695     -4828.4964      40.226898      2216.2261      309.04551      7996.6584      1.2569665      0.69130642   
     32100  -4787.416      -4828.4045      40.988479      6094.7737      314.8964       8017.7429      1.253661       0.69130642   
     32200  -4788.5292     -4827.8108      39.281583      1484.0617      301.78307      8033.1991      1.2512489      0.69130642   
     32300  -4788.7027     -4828.123       39.420307      7317.6438      302.84883      8040.1228      1.2501714      0.69130642   
     32400  -4786.6583     -4827.9156      41.257274      9289.6469      316.96143      8038.2728      1.2504591      0.69130642   
     32500  -4785.9617     -4827.6176      41.655899      3370.2537      320.02389      8026.354       1.252316       0.69130642   
     32600  -4785.252      -4826.4088      41.156823      4859.0218      316.18971      8005.4445      1.2555869      0.69130642   
     32700  -4784.8942     -4826.1881      41.293986      6926.362       317.24347      7984.9308      1.2588126      0.69130642   
     32800  -4783.4409     -4825.1938      41.752884      1513.1453      320.76898      7970.2343      1.2611338      0.69130642   
     32900  -4785.6211     -4826.0459      40.424821      5054.6936      310.56606      7969.0048      1.2613283      0.69130642   
     33000  -4786.886      -4826.4001      39.514146      6880.2948      303.56975      7980.4737      1.2595157      0.69060402   
     33100  -4787.2086     -4828.3854      41.176843      4488.3305      316.34352      7998.4692      1.2566819      0.69060402   
     33200  -4786.7658     -4827.4526      40.686816      8075.6315      312.57886      8014.4298      1.2541793      0.69060402   
     33300  -4787.4037     -4826.116       38.712265      8684.9953      297.40925      8027.1237      1.2521959      0.69060402   
     33400  -4786.7044     -4826.5032      39.798841      9318.7656      305.75694      8034.2482      1.2510855      0.69060402   
     33500  -4786.396      -4826.4266      40.030598      5962.6244      307.53742      8040.3761      1.250132       0.69060402   
     33600  -4786.5931     -4826.3852      39.792084      6375.1565      305.70502      8041.1834      1.2500065      0.69060402   
     33700  -4787.3204     -4828.9633      41.642953      1551.4133      319.92443      8034.6578      1.2510217      0.69060402   
     33800  -4784.8778     -4827.3091      42.431218      4355.3396      325.98032      8022.0283      1.2529913      0.69060402   
     33900  -4785.4393     -4825.3799      39.940646      5014.7029      306.84636      8009.9328      1.2548834      0.69060402   
     34000  -4786.0092     -4826.8603      40.851134      5797.3036      313.84124      8004.658       1.2557103      0.75217457   
     34100  -4785.3588     -4825.717       40.358223      4825.1504      310.05442      8007.0254      1.2553391      0.75217457   
     34200  -4786.1466     -4826.4718      40.325177      6963.3904      309.80054      8012.9766      1.2544067      0.75217457   
     34300  -4788.2094     -4828.0019      39.792509      7183.0775      305.70829      8021.1603      1.2531269      0.75217457   
     34400  -4787.3813     -4829.2503      41.869043      3844.7072      321.66138      8025.4845      1.2524517      0.75217457   
     34500  -4786.3055     -4826.8809      40.575384      5534.5029      311.72278      8029.5084      1.251824       0.75217457   
     34600  -4785.2649     -4826.3239      41.059029      8579.3637      315.4384       8036.5321      1.25073        0.75217457   
     34700  -4784.9884     -4826.7118      41.723351      6885.139       320.5421       8041.8871      1.2498971      0.75217457   
     34800  -4785.432      -4825.8069      40.374899      4004.1682      310.18253      8044.8755      1.2494328      0.75217457   
     34900  -4786.4791     -4826.884       40.404968      2630.4527      310.41354      8041.6983      1.2499265      0.75217457   
     35000  -4787.1448     -4828.1489      41.004135      3238.8475      315.01667      8030.1436      1.251725       0.68869509   
     35100  -4786.9885     -4826.1673      39.178839      3023.6357      300.99374      8013.879       1.2542655      0.68869509   
     35200  -4787.506      -4827.5683      40.062293      6691.0913      307.78092      7998.7927      1.2566311      0.68869509   
     35300  -4786.7228     -4827.6776      40.954794      9434.8485      314.63761      7989.0117      1.2581696      0.68869509   
     35400  -4786.7454     -4826.8267      40.081292      6084.1188      307.92688      7987.0529      1.2584782      0.68869509   
     35500  -4787.0872     -4827.3444      40.257223      8839.1109      309.27848      7990.1346      1.2579928      0.68869509   
     35600  -4786.3502     -4826.8535      40.503228      4616.447       311.16843      7999.726       1.2564845      0.68869509   
     35700  -4787.7327     -4826.8755      39.142764      109.9479       300.71659      8009.8902      1.2548901      0.68869509   
     35800  -4787.9077     -4826.707       38.7993       -2149.6293      298.0779       8016.835       1.253803       0.68869509   
     35900  -4789.3255     -4829.135       39.809476      368.03986      305.83864      8016.9038      1.2537922      0.68869509   
     36000  -4789.3431     -4828.2374      38.894348      3842.1194      298.80811      8006.2999      1.2554528      0.69878203   
     36100  -4791.2681     -4830.2735      39.005325      9289.5949      299.6607       7993.8804      1.2574033      0.69878203   
     36200  -4791.2951     -4829.1941      37.898917      9242.1853      291.16066      7986.4655      1.2585707      0.69878203   
     36300  -4790.9774     -4829.1342      38.156868      5073.3146      293.14238      7980.2256      1.2595548      0.69878203   
     36400  -4791.3443     -4829.1722      37.827931      7384.0063      290.6153       7975.0517      1.260372       0.69878203   
     36500  -4789.0719     -4828.977       39.905132      3590.0429      306.57352      7973.057       1.2606873      0.69878203   
     36600  -4787.4198     -4827.3199      39.900113      5482.9374      306.53497      7973.4362      1.2606273      0.69878203   
     36700  -4788.2946     -4829.7787      41.484142      6050.8203      318.70436      7981.6107      1.2593362      0.69878203   
     36800  -4788.0095     -4826.2385      38.22902       5849.1601      293.69669      7997.7659      1.2567924      0.69878203   
     36900  -4787.6548     -4827.553       39.898283      2632.9377      306.52091      8018.5628      1.2535328      0.69878203   
     37000  -4788.5827     -4828.0411      39.458477      5885.189       303.14207      8037.3238      1.2506068      0.66771226   
     37100  -4788.8926     -4827.1498      38.257235      3677.6214      293.91345      8046.5294      1.249176       0.66771226   
     37200  -4787.8121     -4827.6151      39.802983      4606.132       305.78876      8044.405       1.2495059      0.66771226   
     37300  -4787.0278     -4826.8289      39.801116      4203.9562      305.77441      8032.3667      1.2513786      0.66771226   
     37400  -4787.0141     -4828.1307      41.116542      5668.3038      315.88025      8017.1631      1.2537517      0.66771226   
     37500  -4787.4165     -4826.9961      39.579599      5901.9817      304.07259      7999.4178      1.2565329      0.66771226   
     37600  -4787.4171     -4826.8986      39.481414      7251.8155      303.31828      7977.682       1.2599564      0.66771226   
     37700  -4786.3752     -4825.7519      39.376762      4778.2117      302.51429      7957.9084      1.2630871      0.66771226   
     37800  -4785.2345     -4826.0255      40.79102       5233.1196      313.37941      7947.8695      1.2646825      0.66771226   
     37900  -4784.8454     -4825.499       40.653597      4450.3192      312.32365      7950.0611      1.2643339      0.66771226   
     38000  -4782.6712     -4825.1753      42.504073      4367.4535      326.54004      7962.4128      1.2623726      0.69993285   
     38100  -4784.4224     -4825.3352      40.912779      4875.6826      314.31483      7985.5501      1.258715       0.69993285   
     38200  -4784.3295     -4824.5459      40.216445      4349.3019      308.9652       8013.7082      1.2542922      0.69993285   
     38300  -4785.3449     -4826.2903      40.945466      4821.609       314.56595      8041.4265      1.2499687      0.69993285   
     38400  -4784.0272     -4825.8038      41.776548      2443.6481      320.95079      8060.5896      1.2469971      0.69993285   
     38500  -4784.1983     -4825.7099      41.511559      868.54516      318.91499      8066.9245      1.2460178      0.69993285   
     38600  -4784.7591     -4824.9245      40.165406      4343.4783      308.57309      8066.2138      1.2461276      0.69993285   
     38700  -4787.0972     -4826.4573      39.360169      1452.5968      302.38681      8054.4343      1.24795        0.69993285   
     38800  -4784.5694     -4826.7892      42.219816      5245.7494      324.35621      8029.9448      1.251756       0.69993285   
     38900  -4783.556      -4825.8255      42.269521      7811.4838      324.73808      8001.528       1.2562015      0.69993285   
     39000  -4785.1936     -4825.4917      40.298113      4207.2585      309.59262      7978.7447      1.2597886      0.74214506   
     39100  -4787.1587     -4827.962       40.803342      5726.2084      313.47407      7963.2871      1.262234       0.74214506   
     39200  -4786.7707     -4828.1153      41.344617      1355.1281      317.63245      7957.8259      1.2631002      0.74214506   
     39300  -4788.2954     -4826.868       38.572577      3829.0809      296.33609      7963.8096      1.2621512      0.74214506   
     39400  -4787.0515     -4827.3762      40.324691      2690.3949      309.79681      7980.8644      1.259454       0.74214506   
     39500  -4785.2263     -4825.8908      40.664552      5082.011       312.40781      8002.6824      1.2560203      0.74214506   
     39600  -4784.5843     -4826.4584      41.874101      4076.538       321.70024      8030.8901      1.2516087      0.74214506   
     39700  -4785.1804     -4826.2538      41.073402      3081.1298      315.54882      8056.7224      1.2475956      0.74214506   
     39800  -4785.5558     -4827.564       42.008229      6005.4339      322.73068      8073.7942      1.2449576      0.74214506   
     39900  -4785.7743     -4825.4336      39.65927       4969.3317      304.68467      8076.8699      1.2444835      0.74214506   
     40000  -4786.6169     -4825.9856      39.368728      5106.9664      302.45256      8065.7194      1.246204       0.67254941   
     40100  -4785.7456     -4826.0416      40.296007      6711.142       309.57644      8042.8799      1.2497429      0.67254941   
     40200  -4786.9263     -4827.3658      40.439559      4074.5697      310.67929      8017.1488      1.2537539      0.67254941   
     40300  -4787.7061     -4827.4976      39.791479      6415.6788      305.70038      7993.8034      1.2574154      0.67254941   
     40400  -4786.6636     -4827.3119      40.648273      6987.199       312.28275      7975.9413      1.2602314      0.67254941   
     40500  -4787.7494     -4828.6426      40.893172      6375.65        314.1642       7969.6771      1.261222       0.67254941   
     40600  -4788.816      -4828.6326      39.816551      9468.7596      305.893        7970.3996      1.2611076      0.67254941   
     40700  -4787.9778     -4827.1375      39.159782      4955.3089      300.84733      7978.7575      1.2597866      0.67254941   
     40800  -4789.0243     -4828.7414      39.717053      5280.9879      305.1286       7995.5075      1.2571474      0.67254941   
     40900  -4789.2208     -4830.0385      40.817734      4952.0892      313.58464      8017.6192      1.2536804      0.67254941   
     41000  -4789.2242     -4829.0174      39.793151      4168.4053      305.71322      8033.2898      1.2512348      0.66570876   
     41100  -4787.5048     -4827.6792      40.174388      112.88166      308.6421       8042.0468      1.2498723      0.66570876   
     41200  -4786.2553     -4827.0958      40.840485      6803.6055      313.75943      8042.3806      1.2498204      0.66570876   
     41300  -4785.1794     -4826.1066      40.92713       8049.9664      314.42508      8036.7844      1.2506907      0.66570876   
     41400  -4784.6851     -4826.1667      41.481559      4787.2236      318.68451      8031.8262      1.2514628      0.66570876   
     41500  -4785.661      -4826.1224      40.461356      2161.9881      310.84675      8031.276       1.2515485      0.66570876   
     41600  -4786.748      -4826.7855      40.03744       4207.1683      307.58999      8034.4794      1.2510495      0.66570876   
     41700  -4786.2646     -4827.4628      41.198193      4453.2599      316.50754      8036.7154      1.2507015      0.66570876   
     41800  -4785.5798     -4826.5062      40.926429      5883.7786      314.4197       8035.9787      1.2508161      0.66570876   
     41900  -4787.2996     -4827.6698      40.37012       8637.0604      310.14582      8036.6335      1.2507142      0.66570876   
     42000  -4787.7289     -4827.989       40.260108      3476.7265      309.30064      8037.3815      1.2505978      0.68018668   
     42100  -4787.5543     -4827.9616      40.407309      3850.6743      310.43153      8030.5898      1.2516555      0.68018668   
     42200  -4787.4039     -4827.015       39.611165      7365.7543      304.3151       8018.6672      1.2535165      0.68018668   
     42300  -4786.3771     -4826.3273      39.950121      4973.7244      306.91915      8007.6449      1.2552419      0.68018668   
     42400  -4785.8376     -4827.2094      41.371788      3050.9633      317.84119      8003.3168      1.2559208      0.68018668   
     42500  -4786.7713     -4825.6411      38.869798      4569.8503      298.61951      8005.4497      1.2555861      0.68018668   
     42600  -4786.6849     -4826.4576      39.772692      7541.981       305.55604      8014.0236      1.2542428      0.68018668   
     42700  -4786.365      -4828.1501      41.785168      7681.7651      321.01701      8033.5457      1.2511949      0.68018668   
     42800  -4787.5105     -4829.01        41.499453      4079.1808      318.82199      8052.7895      1.248205       0.68018668   
     42900  -4786.0774     -4826.7266      40.649204      4604.3149      312.2899       8064.0208      1.2464665      0.68018668   
     43000  -4786.4516     -4826.3983      39.946695      4016.3797      306.89283      8067.696       1.2458987      0.68850178   
     43100  -4786.1453     -4826.7744      40.629132      4544.6053      312.1357       8062.4219      1.2467137      0.68850178   
     43200  -4785.7175     -4825.0673      39.349735      6470.5561      302.30665      8044.9991      1.2494136      0.68850178   
     43300  -4785.7883     -4826.748       40.95972       6339.1877      314.67546      8024.526       1.2526013      0.68850178   
     43400  -4785.2941     -4826.7695      41.475396      7792.506       318.63717      8010.4132      1.2548081      0.68850178   
     43500  -4787.6499     -4829.008       41.358058      7728.6509      317.73571      8000.2106      1.2564084      0.68850178   
     43600  -4788.3465     -4827.7755      39.428977      7228.153       302.91543      7994.5825      1.2572929      0.68850178   
     43700  -4787.1953     -4827.5662      40.370901      7149.7397      310.15182      7995.2822      1.2571828      0.68850178   
     43800  -4785.3791     -4826.3327      40.953538      3117.1219      314.62796      8005.2089      1.2556239      0.68850178   
     43900  -4785.2312     -4825.8335      40.602352      1349.2554      311.92995      8022.3569      1.25294        0.68850178   
     44000  -4785.6068     -4826.6749      41.068149      5596.2861      315.50847      8045.3008      1.2493668      0.67039318   
     44100  -4787.7489     -4826.6697      38.920773      1155.0865      299.01113      8065.1894      1.2462859      0.67039318   
     44200  -4787.3406     -4828.4054      41.064779      3589.2216      315.48258      8077.023       1.24446        0.67039318   
     44300  -4787.9832     -4826.3252      38.341999      2360.3425      294.56466      8077.7935      1.2443413      0.67039318   
     44400  -4788.0514     -4827.69        39.638535      3022.6269      304.52538      8069.128       1.2456776      0.67039318   
     44500  -4788.5882     -4827.1897      38.601503      5412.3675      296.55832      8050.8201      1.2485103      0.67039318   
     44600  -4786.3716     -4826.205       39.833351      3847.5811      306.02206      8026.3797      1.252312       0.67039318   
     44700  -4787.4079     -4828.5276      41.119661      7731.4514      315.90421      8001.501       1.2562058      0.67039318   
     44800  -4787.4314     -4828.2407      40.809285      3219.3927      313.51973      7983.1032      1.2591008      0.67039318   
     44900  -4788.7159     -4827.1662      38.450228      2826.5185      295.39613      7973.5724      1.2606058      0.67039318   
     45000  -4787.0834     -4826.9135      39.830155      3848.6587      305.99751      7972.8807      1.2607152      0.71848418   
     45100  -4786.2774     -4827.3469      41.069465      5706.6259      315.51858      7984.3919      1.2588976      0.71848418   
     45200  -4786.873      -4826.2606      39.387561      5943.8142      302.59725      8001.8627      1.256149       0.71848418   
     45300  -4786.5604     -4827.9019      41.341479      4185.7189      317.60834      8020.5596      1.2532207      0.71848418   
     45400  -4785.4239     -4826.5867      41.162744      3931.6225      316.2352       8036.7014      1.2507036      0.71848418   
     45500  -4786.1477     -4825.5434      39.395703      4694.1347      302.6598       8045.7678      1.2492943      0.71848418   
     45600  -4786.0954     -4826.67        40.574596     -971.23743      311.71672      8047.7069      1.2489933      0.71848418   
     45700  -4788.2333     -4826.907       38.673697      3017.5505      297.11295      8042.752       1.2497627      0.71848418   
     45800  -4787.1719     -4827.0131      39.841272      3768.4629      306.08291      8027.7586      1.2520969      0.71848418   
     45900  -4786.3813     -4825.7922      39.410918      7084.6462      302.77669      8007.8056      1.2552167      0.71848418   
     46000  -4787.7578     -4828.3786      40.620795      7443.9313      312.07165      7988.6652      1.2582242      0.70068279   
     46100  -4787.0993     -4827.602       40.502726      6095.1063      311.16457      7971.211       1.2609792      0.70068279   
     46200  -4786.9673     -4827.6286      40.661318      4994.3239      312.38297      7962.9585      1.2622861      0.70068279   
     46300  -4786.8689     -4826.5193      39.650379      7100.2486      304.61637      7966.1016      1.261788       0.70068279   
     46400  -4786.7415     -4827.8182      41.076717      5572.7085      315.57429      7980.1339      1.2595693      0.70068279   
     46500  -4787.1074     -4827.4921      40.384719      2490.1624      310.25798      8000.1988      1.2564102      0.70068279   
     46600  -4788.2374     -4827.3816      39.144175      5166.356       300.72742      8023.9639      1.252689       0.70068279   
     46700  -4787.8652     -4827.2165      39.351321      3313.0906      302.31883      8041.1851      1.2500063      0.70068279   
     46800  -4786.8662     -4827.1724      40.306255      4561.3229      309.65517      8054.0339      1.2480121      0.70068279   
     46900  -4788.2512     -4826.2469      37.995734      5607.4279      291.90446      8059.8702      1.2471084      0.70068279   
     47000  -4788.5813     -4828.4163      39.835092      5305.0147      306.03544      8053.2051      1.2481405      0.67393587   
     47100  -4788.7077     -4828.9552      40.247475      3031.458       309.20359      8035.6336      1.2508698      0.67393587   
     47200  -4787.406      -4827.6554      40.249369      7572.2946      309.21814      8015.8479      1.2539574      0.67393587   
     47300  -4787.4411     -4826.9125      39.471381      6958.1345      303.2412       7995.5296      1.257144       0.67393587   
     47400  -4786.6918     -4827.477       40.785175      4116.7123      313.3345       7980.6145      1.2594934      0.67393587   
     47500  -4786.3612     -4828.005       41.643796      8697.7353      319.93091      7972.653       1.2607512      0.67393587   
     47600  -4785.7123     -4827.998       42.285704      6637.1786      324.86241      7975.7922      1.260255       0.67393587   
     47700  -4786.4379     -4827.3017      40.8638        5428.2144      313.93854      7989.6431      1.2580702      0.67393587   
     47800  -4784.4037     -4825.497       41.093272      4427.4939      315.70148      8011.9191      1.2545723      0.67393587   
     47900  -4784.8671     -4825.6828      40.815697      2698.3527      313.56899      8040.2225      1.2501559      0.67393587   
     48000  -4785.1664     -4824.982       39.815633      4227.2281      305.88594      8067.2517      1.2459673      0.73464104   
     48100  -4783.5315     -4824.368       40.836521      8377.1906      313.72897      8086.1794      1.2430508      0.73464104   
     48200  -4783.0332     -4824.8431      41.809924      5683.1662      321.20719      8099.3385      1.2410312      0.73464104   
     48300  -4784.5938     -4825.2537      40.659856      2907.3747      312.37174      8101.8902      1.2406403      0.73464104   
     48400  -4782.9364     -4824.4527      41.516235      4063.4174      318.95092      8084.539       1.243303       0.73464104   
     48500  -4781.8551     -4824.6112      42.756168      3301.9895      328.47677      8055.3122      1.247814       0.73464104   
     48600  -4781.7811     -4823.5547      41.773583      4755.2683      320.928        8019.8829      1.2533265      0.73464104   
     48700  -4781.8607     -4824.6837      42.822964      8226.2906      328.98994      7993.1093      1.2575246      0.73464104   
     48800  -4782.3578     -4824.4194      42.061576      5024.174       323.14053      7981.2535      1.2593926      0.73464104   
     48900  -4782.9951     -4823.5622      40.567164      3758.106       311.65962      7983.4418      1.2590474      0.73464104   
     49000  -4783.3499     -4824.8722      41.522328      4660.3491      318.99773      7995.4462      1.2571571      0.72308642   
     49100  -4785.8945     -4827.476       41.58156       3836.7961      319.45278      8016.0052      1.2539328      0.72308642   
     49200  -4785.5081     -4826.9389      41.430726      4399.6876      318.29399      8038.2479      1.250463       0.72308642   
     49300  -4786.4031     -4827.8537      41.450538      4385.911       318.44619      8060.0726      1.2470771      0.72308642   
     49400  -4786.7715     -4826.0629      39.291337      1716.835       301.85801      8073.408       1.2450172      0.72308642   
     49500  -4784.9689     -4826.598       41.629131      3785.9643      319.81825      8076.8802      1.244482       0.72308642   
     49600  -4783.6628     -4825.7856      42.122819      6801.015       323.61103      8068.7177      1.2457409      0.72308642   
     49700  -4783.97       -4823.8517      39.88177       3951.5837      306.39404      8053.3204      1.2481227      0.72308642   
     49800  -4783.4482     -4825.7488      42.300647      2820.0639      324.97721      8037.0919      1.2506429      0.72308642   
     49900  -4782.167      -4824.0846      41.917612      6085.2586      322.03452      8019.2175      1.2534305      0.72308642   
     50000  -4784.2574     -4825.9378      41.680448      2532.8919      320.21249      8006.6468      1.2553984      0.71945828   
     50100  -4784.6781     -4824.6654      39.987239      7090.8565      307.20431      7998.2366      1.2567185      0.71945828   
     50200  -4783.8381     -4824.4026      40.564547      8286.6842      311.63952      7994.084       1.2573713      0.71945828   
     50300  -4784.7293     -4826.2565      41.527281      7764.3004      319.03577      7996.9142      1.2569263      0.71945828   
     50400  -4785.6301     -4824.8327      39.202688      3522.714       301.17695      8007.0764      1.2553311      0.71945828   
     50500  -4785.178      -4826.1529      40.974817      2021.6063      314.79144      8022.2395      1.2529583      0.71945828   
     50600  -4785.0972     -4827.0216      41.924399      7914.7195      322.08666      8036.3622      1.2507564      0.71945828   
     50700  -4785.3027     -4826.1537      40.850979      5812.5786      313.84005      8047.1273      1.2490832      0.71945828   
     50800  -4785.2825     -4826.8912      41.608723      4489.7644      319.66146      8054.0874      1.2480038      0.71945828   
     50900  -4786.6599     -4826.4267      39.76683       6682.8729      305.51101      8054.0596      1.2480081      0.71945828   
     51000  -4787.6138     -4826.7496      39.135775      5017.8236      300.66289      8044.0081      1.2495676      0.70108049   
     51100  -4788.6024     -4829.067       40.464671      4282.0582      310.87222      8020.418       1.2532429      0.70108049   
     51200  -4788.7178     -4828.9019      40.184125      1790.795       308.7169       7988.6778      1.2582222      0.70108049   
     51300  -4790.4942     -4830.1865      39.692338      4188.7334      304.93872      7953.154       1.2638422      0.70108049   
     51400  -4790.1845     -4829.1532      38.968649      5961.1157      299.37894      7920.9422      1.2689818      0.70108049   
     51500  -4788.2746     -4827.6418      39.36719       9167.6562      302.44075      7902.1173      1.2720049      0.70108049   
     51600  -4788.3767     -4828.3862      40.009455      9438.1727      307.37499      7903.6269      1.2717619      0.70108049   
     51700  -4786.5178     -4828.6696      42.151793      7027.7201      323.83363      7921.4725      1.2688969      0.70108049   
     51800  -4786.8377     -4827.4316      40.593905      5167.1945      311.86506      7952.4714      1.2639507      0.70108049   
     51900  -4787.827      -4828.3495      40.522505      1679.9885      311.31653      7992.2796      1.2576552      0.70108049   
     52000  -4787.4829     -4827.1427      39.659784      2503.9832      304.68862      8027.1522      1.2521915      0.61742854   
     52100  -4788.0457     -4826.5249      38.479178      4883.9657      295.61855      8052.2161      1.2482938      0.61742854   
     52200  -4787.4934     -4827.6022      40.108841      5604.559       308.13852      8063.1255      1.2466049      0.61742854   
     52300  -4787.6458     -4827.0032      39.357361      2345.2835      302.36523      8057.6487      1.2474522      0.61742854   
     52400  -4785.7687     -4825.3905      39.621824      6430.6079      304.39699      8039.8163      1.2502191      0.61742854   
     52500  -4785.9286     -4827.9934      42.064803      5022.8357      323.16532      8021.4462      1.2530822      0.61742854   
     52600  -4786.9767     -4827.1799      40.203229      4542.5299      308.86367      8007.4202      1.2552772      0.61742854   
     52700  -4786.433      -4826.3776      39.944616      6010.4469      306.87686      7995.0868      1.2572136      0.61742854   
     52800  -4787.8275     -4827.4715      39.643985      5161.3568      304.56725      7981.2635      1.259391       0.61742854   
     52900  -4788.0231     -4828.4943      40.471264      6432.4002      310.92286      7970.5317      1.2610867      0.61742854   
     53000  -4785.8428     -4825.8334      39.990545      6602.7404      307.22971      7965.585       1.2618699      0.62692814   
     53100  -4785.0708     -4825.3499      40.279082      5149.3553      309.44641      7975.2547      1.2603399      0.62692814   
     53200  -4785.9574     -4826.3618      40.404398      7014.9142      310.40916      7996.395       1.2570079      0.62692814   
     53300  -4787.3693     -4827.9489      40.579579      2829.7104      311.755        8021.714       1.2530404      0.62692814   
     53400  -4787.9112     -4826.389       38.477758      3108.2171      295.60764      8041.5532      1.249949       0.62692814   
     53500  -4787.2865     -4827.5507      40.264215      3485.0892      309.3322       8050.0096      1.248636       0.62692814   
     53600  -4786.8984     -4827.3898      40.491411      3373.3681      311.07764      8045.82        1.2492862      0.62692814   
     53700  -4786.8778     -4826.8369      39.959145      6357.6922      306.98848      8032.4649      1.2513633      0.62692814   
     53800  -4788.6057     -4829.1523      40.546565      7295.2598      311.50137      8012.1841      1.2545308      0.62692814   
     53900  -4788.0429     -4828.7745      40.73157       3028.8422      312.92268      7987.6902      1.2583778      0.62692814   
     54000  -4787.9353     -4828.9936      41.058227      5691.7601      315.43224      7962.7533      1.2623186      0.70984202   
     54100  -4786.9094     -4828.3912      41.481819      8342.7872      318.68651      7940.5988      1.2658405      0.70984202   
     54200  -4788.0269     -4827.4668      39.439893      6352.4924      302.9993       7933.6811      1.2669443      0.70984202   
     54300  -4787.5837     -4828.2242      40.640407      3778.6391      312.22231      7943.9238      1.2653107      0.70984202   
     54400  -4787.0265     -4827.5839      40.557445      1551.1987      311.58495      7967.7895      1.2615207      0.70984202   
     54500  -4787.1142     -4826.7141      39.599836      2179.5767      304.22807      7997.2593      1.256872       0.70984202   
     54600  -4785.7954     -4826.7363      40.940966      1715.9046      314.53138      8028.2819      1.2520153      0.70984202   
     54700  -4786.3072     -4826.8897      40.582445      5093.9493      311.77702      8056.0173      1.2477048      0.70984202   
     54800  -4786.656      -4826.2488      39.592834      3170.8493      304.17428      8074.3804      1.2448672      0.70984202   
     54900  -4786.7061     -4825.1303      38.424231      2314.5786      295.19642      8076.0326      1.2446126      0.70984202   
     55000  -4786.5222     -4826.4421      39.919874      1921.287       306.68678      8066.156       1.2461365      0.63041172   
     55100  -4784.6518     -4825.349       40.697238      2402.2333      312.65892      8046.8877      1.2491204      0.63041172   
     55200  -4785.5812     -4827.2197      41.638554      6861.2674      319.89064      8021.8316      1.253022       0.63041172   
     55300  -4784.1554     -4826.4671      42.311689      6188.4794      325.06203      7996.5485      1.2569838      0.63041172   
     55400  -4784.6644     -4826.0612      41.396766      6688.5829      318.03309      7980.2619      1.2595491      0.63041172   
     55500  -4785.0763     -4825.3945      40.318133      5792.2857      309.74643      7970.6569      1.2610669      0.63041172   
     55600  -4785.9061     -4826.849       40.942872      5157.6933      314.54602      7971.4337      1.260944       0.63041172   
     55700  -4786.1506     -4825.6598      39.509211      5787.5033      303.53183      7981.7954      1.2593071      0.63041172   
     55800  -4786.408      -4827.3276      40.919578      6103.7795      314.36707      7998.7356      1.2566401      0.63041172   
     55900  -4786.3338     -4827.4325      41.098713      5947.191       315.74328      8017.9439      1.2536296      0.63041172   
     56000  -4784.2874     -4826.97        42.682595      6811.4263      327.91155      8035.9066      1.2508273      0.64674669   
     56100  -4784.6646     -4824.9501      40.285411      6951.8928      309.49504      8047.8381      1.2489729      0.64674669   
     56200  -4785.4812     -4826.2678      40.786603      2487.2794      313.34547      8053.3209      1.2481226      0.64674669   
     56300  -4786.2339     -4826.5629      40.329008      7951.8796      309.82998      8050.0117      1.2486357      0.64674669   
     56400  -4785.364      -4826.7976      41.433548      4344.7688      318.31567      8037.8295      1.2505281      0.64674669   
     56500  -4783.9486     -4824.7494      40.800852      5107.3777      313.45494      8016.1113      1.2539162      0.64674669   
     56600  -4784.6326     -4825.1678      40.535209      6323.7075      311.41413      7990.9749      1.2578605      0.64674669   
     56700  -4786.7313     -4827.2688      40.53754       6642.1787      311.43204      7973.8757      1.2605579      0.64674669   
     56800  -4786.6051     -4827.3188      40.713739      9804.5494      312.78569      7965.3108      1.2619133      0.64674669   
     56900  -4786.7151     -4827.3075      40.592488      5360.9294      311.85418      7970.1497      1.2611472      0.64674669   
     57000  -4787.1134     -4826.7588      39.645475      3820.4865      304.57869      7983.2586      1.2590763      0.6886903    
     57100  -4788.3361     -4826.1539      37.817759      6452.5228      290.53715      8001.1801      1.2562561      0.6886903    
     57200  -4789.0844     -4828.8229      39.738461      5040.0191      305.29306      8014.4587      1.2541747      0.6886903    
[...]
    386200  -4786.6851     -4826.7685      40.08335       3978.4145      307.94269      8042.0303      1.2498749      0.74920449   
    386300  -4787.6605     -4828.0162      40.355751      5780.7781      310.03543      8048.2221      1.2489133      0.74920449   
    386400  -4787.6985     -4828.2621      40.563598      5765.0889      311.63223      8049.3838      1.2487331      0.74920449   
    386500  -4787.6251     -4827.5874      39.962309      2287.7092      307.01279      8045.908       1.2492725      0.74920449   
    386600  -4787.3639     -4826.8166      39.452712      3929.483       303.09778      8034.3618      1.2510678      0.74920449   
    386700  -4787.6423     -4828.119       40.476697      2246.5094      310.96461      8020.0779      1.253296       0.74920449   
    386800  -4787.4941     -4827.2254      39.73131       5872.4671      305.23813      8005.7323      1.2555418      0.74920449   
    386900  -4787.6782     -4828.4622      40.784025      2905.3273      313.32567      7994.3159      1.2573348      0.74920449   
    387000  -4787.4006     -4827.1998      39.799189      2546.0637      305.75961      7988.7669      1.2582082      0.75152957   
    387100  -4788.0275     -4826.9874      38.959916      7132.704       299.31184      7995.674       1.2571212      0.75152957   
    387200  -4786.9672     -4827.2217      40.254595      4574.7495      309.25829      8009.8676      1.2548936      0.75152957   
    387300  -4787.4404     -4828.6644      41.224071      4849.1888      316.70635      8022.4393      1.2529271      0.75152957   
    387400  -4788.1423     -4827.3586      39.216249      2237.7263      301.28114      8031.4249      1.2515253      0.75152957   
    387500  -4786.4786     -4824.7542      38.275632      2037.7509      294.05479      8038.2398      1.2504643      0.75152957   
    387600  -4786.29       -4826.0677      39.777642      1433.4257      305.59407      8045.4565      1.2493426      0.75152957   
    387700  -4786.3083     -4827.1145      40.806212      4865.7807      313.49612      8048.9631      1.2487983      0.75152957   
    387800  -4786.4128     -4826.666       40.253199      4740.9757      309.24756      8046.0111      1.2492565      0.75152957   
    387900  -4786.6699     -4827.496       40.826157     -35.3504        313.64935      8034.4848      1.2510487      0.75152957   
    388000  -4785.678      -4827.3777      41.699689      2805.3838      320.36031      8016.4606      1.2538615      0.72012804   
    388100  -4785.2527     -4826.3387      41.086064      7266.9241      315.6461       8004.8365      1.2556823      0.72012804   
    388200  -4785.1745     -4826.2648      41.090326      5939.5743      315.67885      8003.6723      1.255865       0.72012804   
    388300  -4785.5604     -4825.5452      39.984802      3507.5172      307.18559      8009.1798      1.2550014      0.72012804   
    388400  -4785.7592     -4827.8715      42.112292      5522.1132      323.53016      8019.3529      1.2534093      0.72012804   
    388500  -4786.3168     -4826.9654      40.648641      3957.5962      312.28557      8031.6438      1.2514912      0.72012804   
    388600  -4786.8434     -4826.8416      39.998156      3729.026       307.28819      8044.5525      1.249483       0.72012804   
    388700  -4785.561      -4825.5941      40.03306       6651.5276      307.55634      8052.0999      1.2483118      0.72012804   
    388800  -4785.8225     -4826.4057      40.583179      2089.6         311.78266      8057.7635      1.2474344      0.72012804   
    388900  -4786.9899     -4826.8211      39.831234      2182.7144      306.0058       8054.6071      1.2479233      0.72012804   
    389000  -4788.1327     -4827.2748      39.14212       3866.7908      300.71164      8041.4358      1.2499673      0.68467752   
    389100  -4788.9405     -4827.3237      38.38319       6638.7306      294.88111      8019.9213      1.2533205      0.68467752   
    389200  -4787.7702     -4827.149       39.378758      7303.837       302.52962      7999.6288      1.2564998      0.68467752   
    389300  -4787.1734     -4827.2772      40.103805      4047.0668      308.09984      7983.3903      1.2590555      0.68467752   
    389400  -4787.026      -4827.4305      40.404554      7868.3365      310.41036      7972.0365      1.2608487      0.68467752   
    389500  -4785.6595     -4826.7855      41.126062      7662.6033      315.95339      7969.787       1.2612046      0.68467752   
    389600  -4784.7397     -4826.8633      42.12361       7217.6853      323.61711      7981.8973      1.259291       0.68467752   
    389700  -4784.5719     -4826.0475      41.47556       7438.9199      318.63843      8005.6799      1.25555        0.68467752   
    389800  -4785.5112     -4826.2991      40.787908      4656.7253      313.3555       8041.0315      1.2500301      0.68467752   
    389900  -4784.7164     -4826.5473      41.830918      7205.1945      321.36849      8076.0504      1.2446098      0.68467752   
    390000  -4785.9521     -4824.9614      39.009321      2603.0756      299.6914       8105.0084      1.240163       0.73858452   
    390100  -4786.0504     -4825.8737      39.823342      4725.9763      305.94516      8119.9029      1.2378882      0.73858452   
    390200  -4786.0298     -4826.1686      40.138759      972.82875      308.36837      8115.662       1.238535       0.73858452   
    390300  -4784.8226     -4825.6829      40.860285      1461.4492      313.91154      8092.0284      1.2421523      0.73858452   
    390400  -4783.6783     -4824.9664      41.288137      7673.0639      317.19854      8057.5436      1.2474685      0.73858452   
    390500  -4782.9025     -4825.7096      42.807109      4857.6175      328.86813      8024.9626      1.2525332      0.73858452   
    390600  -4784.3589     -4825.3039      40.945035      5279.7284      314.56264      7999.5354      1.2565144      0.73858452   
    390700  -4784.8011     -4826.7929      41.991881      3870.8747      322.60509      7986.9904      1.258488       0.73858452   
    390800  -4785.3954     -4827.8886      42.493171      5426.9024      326.45628      7989.3257      1.2581202      0.73858452   
    390900  -4786.1361     -4826.1561      40.019961      4414.55        307.4557       8001.5086      1.2562046      0.73858452   
    391000  -4785.8881     -4825.0128      39.124639      3397.3492      300.57734      8020.0693      1.2532974      0.77189932   
    391100  -4787.0586     -4827.4836      40.42502       15.984977      310.56759      8040.9618      1.250041       0.77189932   
    391200  -4786.9276     -4827.6536      40.725946      1746.7018      312.87947      8055.5573      1.2477761      0.77189932   
    391300  -4786.4936     -4827.8922      41.398631      4990.2233      318.04741      8063.0932      1.2466099      0.77189932   
    391400  -4786.8018     -4826.7593      39.957492      5948.2115      306.97578      8059.554       1.2471573      0.77189932   
    391500  -4786.5614     -4826.1016      39.540164      5248.2787      303.76963      8047.9447      1.2489564      0.77189932   
    391600  -4786.5833     -4826.3717      39.788372      5028.8352      305.67651      8032.9282      1.2512911      0.77189932   
    391700  -4785.5983     -4824.9482      39.349925      6927.0217      302.30811      8018.7575      1.2535024      0.77189932   
    391800  -4785.4286     -4827.6411      42.212435      2412.6733      324.29951      8013.6846      1.2542959      0.77189932   
    391900  -4787.6898     -4826.2896      38.599813      7230.6605      296.54533      8015.7637      1.2539706      0.77189932   
    392000  -4788.1947     -4826.9128      38.718116      8432.0144      297.4542       8021.5291      1.2530693      0.72805409   
    392100  -4787.8376     -4826.8395      39.0019        3377.6305      299.63439      8029.7453      1.2517871      0.72805409   
    392200  -4788.2542     -4829.1301      40.875885      1371.7277      314.03139      8040.0204      1.2501873      0.72805409   
    392300  -4787.6423     -4827.5023      39.859971      3041.0517      306.22657      8042.5819      1.2497892      0.72805409   
    392400  -4788.9138     -4828.2087      39.294885      4627.9848      301.88527      8037.2942      1.2506114      0.72805409   
    392500  -4788.6737     -4829.0787      40.405016      5210.7444      310.41391      8025.9181      1.252384       0.72805409   
    392600  -4788.7825     -4827.8402      39.057635      7689.6762      300.06257      8010.0494      1.2548651      0.72805409   
    392700  -4788.5566     -4828.0658      39.509179      1744.3353      303.53159      7997.4783      1.2568376      0.72805409   
    392800  -4787.7967     -4828.3663      40.56955       3610.431       311.67795      7989.1499      1.2581478      0.72805409   
    392900  -4789.2594     -4828.5145      39.255124      4090.4319      301.57979      7987.0614      1.2584768      0.72805409   
    393000  -4788.4442     -4827.9549      39.510772      4203.1456      303.54383      7987.7824      1.2583632      0.65403753   
    393100  -4789.0246     -4828.6757      39.651026      8914.8517      304.62133      7988.5924      1.2582356      0.65403753   
    393200  -4787.6994     -4827.1565      39.457043      5955.7681      303.13105      7990.1896      1.2579841      0.65403753   
    393300  -4786.6861     -4825.3294      38.643303      6869.4126      296.87945      7995.8122      1.2570995      0.65403753   
    393400  -4787.1559     -4828.1888      41.032876      5722.7086      315.23748      8006.9277      1.2553544      0.65403753   
    393500  -4787.6605     -4828.2805      40.620056      4944.0102      312.06597      8021.647       1.2530509      0.65403753   
    393600  -4788.5216     -4828.1192      39.597628      1972.4971      304.21111      8034.4619      1.2510522      0.65403753   
    393700  -4786.8329     -4828.0892      41.25634       4605.2948      316.95425      8037.6429      1.2505571      0.65403753   
    393800  -4785.6286     -4825.6636      40.034998      4992.3621      307.57122      8035.4423      1.2508996      0.65403753   
    393900  -4785.9621     -4828.7932      42.831063      4448.3527      329.05216      8026.0551      1.2523627      0.65403753   
    394000  -4786.0086     -4826.3583      40.349648      2014.9511      309.98854      8011.5992      1.2546224      0.7063239    
    394100  -4785.7403     -4826.9779      41.237689      6067.9852      316.81097      7998.7749      1.2566339      0.7063239    
    394200  -4784.841      -4827.1903      42.349365      4224.4159      325.35148      7990.3029      1.2579663      0.7063239    
    394300  -4786.6022     -4826.5347      39.932536      7756.9557      306.78405      7988.4051      1.2582651      0.7063239    
    394400  -4786.58       -4826.6267      40.04671       4152.8718      307.6612       7993.5515      1.257455       0.7063239    
    394500  -4785.3521     -4827.6036      42.251562      5065.2572      324.60011      8004.0463      1.2558063      0.7063239    
    394600  -4785.4141     -4826.5173      41.103176      5276.7357      315.77757      8020.7853      1.2531855      0.7063239    
    394700  -4785.6791     -4826.1104      40.431362      6948.0063      310.61631      8040.781       1.2500691      0.7063239    
    394800  -4785.4662     -4826.9061      41.439949      6037.365       318.36484      8057.7883      1.2474306      0.7063239    
    394900  -4785.6597     -4825.7077      40.048066      6258.6928      307.67162      8065.4077      1.2462522      0.7063239    
    395000  -4785.7827     -4826.0654      40.282732      3022.2538      309.47446      8065.0993      1.2462998      0.67357073   
    395100  -4784.3701     -4825.7074      41.33733       3465.6486      317.57646      8053.6862      1.248066       0.67357073   
    395200  -4784.2974     -4825.3674      41.070057      2443.0491      315.52313      8036.2281      1.2507773      0.67357073   
    395300  -4785.7169     -4825.7049      39.987979      2673.7575      307.21         8018.0841      1.2536077      0.67357073   
    395400  -4785.1325     -4825.59        40.457437      8161.3827      310.81664      8005.2669      1.2556148      0.67357073   
    395500  -4784.6326     -4826.2985      41.665989      3409.7623      320.10141      7999.1682      1.2565721      0.67357073   
    395600  -4785.5447     -4825.1974      39.65263       5937.8458      304.63366      7998.241       1.2567178      0.67357073   
    395700  -4784.6416     -4825.8994      41.257861      4529.7383      316.96594      8001.3074      1.2562362      0.67357073   
    395800  -4786.3294     -4827.5533      41.223904      3050.0721      316.70507      8008.0001      1.2551863      0.67357073   
    395900  -4787.1403     -4826.5308      39.390489      6090.6908      302.61974      8015.0099      1.2540885      0.67357073   
    396000  -4787.4273     -4828.2267      40.799332      5290.7238      313.44327      8020.6086      1.2532131      0.66467592   
    396100  -4786.4432     -4827.1161      40.672952      5053.7908      312.47235      8021.9227      1.2530078      0.66467592   
    396200  -4786.8403     -4827.2147      40.3744        6512.0308      310.1787       8019.2399      1.253427       0.66467592   
    396300  -4785.6861     -4825.5662      39.880049      5535.2554      306.38082      8014.1286      1.2542264      0.66467592   
    396400  -4785.7867     -4827.0726      41.285879      2498.4682      317.18119      8008.3067      1.2551382      0.66467592   
    396500  -4785.9348     -4825.3151      39.380279      4370.6641      302.5413       8005.2103      1.2556237      0.66467592   
    396600  -4786.2687     -4827.0032      40.734485      3822.1279      312.94507      8006.9432      1.2553519      0.66467592   
    396700  -4787.5357     -4828.2297      40.694026      6930.6119      312.63425      8010.3555      1.2548172      0.66467592   
    396800  -4788.6592     -4826.77        38.110815      6037.295       292.78858      8012.255       1.2545197      0.66467592   
    396900  -4789.1597     -4827.6197      38.459972      2874.7564      295.47099      8009.9784      1.2548762      0.66467592   
    397000  -4787.892      -4828.0036      40.111587      7806.9837      308.15962      8002.3436      1.2560735      0.65317424   
    397100  -4786.2779     -4826.5376      40.259697      6299.5814      309.29749      7991.7121      1.2577445      0.65317424   
    397200  -4785.7955     -4827.7002      41.904794      6220.1586      321.93604      7986.0518      1.2586359      0.65317424   
    397300  -4784.8181     -4826.2676      41.449537      5778.2174      318.4385       7985.5053      1.2587221      0.65317424   
    397400  -4784.9297     -4825.9131      40.983381      3507.9364      314.85724      7989.7895      1.2580471      0.65317424   
    397500  -4787.0562     -4827.0401      39.983882      5829.6256      307.17853      7994.3466      1.25733        0.65317424   
    397600  -4788.4973     -4828.0869      39.589551      5296.5682      304.14905      7997.9164      1.2567688      0.65317424   
    397700  -4789.4772     -4827.7228      38.245596      5192.0864      293.82404      7998.8896      1.2566159      0.65317424   
    397800  -4787.567      -4826.5775      39.010553      6105.836       299.70087      7995.5578      1.2571395      0.65317424   
    397900  -4787.8004     -4827.9593      40.158967      4749.5301      308.52362      7990.7102      1.2579022      0.65317424   
    398000  -4788.4376     -4828.4044      39.966782      4160.5488      307.04715      7989.8915      1.2580311      0.65827734   
    398100  -4787.6391     -4827.7699      40.130793      7235.7889      308.30717      7992.8356      1.2575677      0.65827734   
    398200  -4786.8524     -4827.9574      41.105072      7842.1507      315.79213      7998.6937      1.2566467      0.65827734   
    398300  -4787.1165     -4827.791       40.674502      7107.1952      312.48426      8004.2109      1.2557805      0.65827734   
    398400  -4785.6663     -4825.3805      39.714244      4361.8357      305.10701      8009.7577      1.2549108      0.65827734   
    398500  -4785.3993     -4825.1062      39.706927      4001.2631      305.0508       8012.6239      1.2544619      0.65827734   
    398600  -4785.8902     -4826.068       40.177832      5740.4214      308.66855      8014.3515      1.2541915      0.65827734   
    398700  -4786.4621     -4826.6281      40.165982      2935.1349      308.57752      8015.5601      1.2540024      0.65827734   
    398800  -4787.0422     -4825.8552      38.812938      4147.7908      298.18268      8014.919       1.2541027      0.65827734   
    398900  -4786.223      -4827.7124      41.489407     -1650.4177      318.7448       8018.5089      1.2535412      0.65827734   
    399000  -4785.7392     -4826.2468      40.507633      2755.2092      311.20227      8020.1016      1.2532923      0.70478991   
    399100  -4784.7212     -4825.0817      40.360432      3314.003       310.07139      8019.0551      1.2534559      0.70478991   
    399200  -4785.2979     -4826.3767      41.078811      7865.3611      315.59038      8015.3573      1.2540341      0.70478991   
    399300  -4787.2983     -4827.5168      40.218428      3250.9811      308.98044      8012.7614      1.2544404      0.70478991   
    399400  -4787.6846     -4828.2358      40.551141      3934.3167      311.53652      8010.5907      1.2547803      0.70478991   
    399500  -4788.0357     -4827.7931      39.757443      4984.468       305.43889      8008.5702      1.2550969      0.70478991   
    399600  -4787.4383     -4827.0688      39.630468      5655.7875      304.4634       8006.6017      1.2554055      0.70478991   
    399700  -4788.1643     -4827.2075      39.043224      3130.38        299.95186      8002.8651      1.2559916      0.70478991   
    399800  -4788.6272     -4829.0794      40.452183      4018.0481      310.77627      7994.2383      1.257347       0.70478991   
    399900  -4788.6387     -4828.3282      39.68948       3796.8306      304.91676      7979.544       1.2596624      0.70478991   
    400000  -4788.2032     -4827.6287      39.425448      4990.9995      302.88832      7965.306       1.2619141      0.70846036   
    400100  -4787.2024     -4827.5081      40.305757      7154.4752      309.65135      7960.6338      1.2626547      0.70846036   
    400200  -4786.9958     -4826.7362      39.740469      9337.7791      305.30849      7965.9101      1.2618184      0.70846036   
    400297  -4787.5114     -4827.4873      39.975925      5299.8935      307.11739      7980.5244      1.2595077      0.70846036   
Loop time of 514.605 on 2 procs for 200000 steps with 1008 atoms

Performance: 16.790 ns/day, 1.429 hours/ns, 388.648 timesteps/s, 391.757 katom-step/s
99.5% CPU use with 2 MPI tasks x 1 OpenMP threads

MPI task timing breakdown:
Section |  min time  |  avg time  |  max time  |%varavg| %total
---------------------------------------------------------------
Pair    | 269.91     | 271        | 272.1      |   6.7 | 52.66
Neigh   | 8.0197     | 8.1322     | 8.2447     |   3.9 |  1.58
Comm    | 41.604     | 43.12      | 44.637     |  23.1 |  8.38
Output  | 0.29918    | 0.30195    | 0.30473    |   0.5 |  0.06
Modify  | 189.41     | 189.72     | 190.03     |   2.3 | 36.87
Other   |            | 2.326      |            |       |  0.45

Nlocal:            504 ave         506 max         502 min
Histogram: 1 0 0 0 0 0 0 0 0 1
Nghost:           2736 ave        2738 max        2734 min
Histogram: 1 0 0 0 0 0 0 0 0 1
Neighs:              0 ave           0 max           0 min
Histogram: 2 0 0 0 0 0 0 0 0 0
FullNghs:        73710 ave       74372 max       73048 min
Histogram: 1 0 0 0 0 0 0 0 0 1

Total # of neighbors = 147420
Ave neighs/atom = 146.25
Neighbor list builds = 19992
Dangerous builds = 19956
Total wall time: 0:17:12
