LAMMPS (7 Feb 2024 - Update 1)
KOKKOS mode with Kokkos version 4.2.0 is enabled (src/KOKKOS/kokkos.cpp:72)
  will use up to 2 GPU(s) per node
  using 1 OpenMP thread(s) per MPI task
Reading data file ...
  triclinic box = (0 0 0) to (18.047441 22.912981 19.549222) with tilt (-0.10697296 -6.2467562 -0.022549581)
  1 by 2 by 1 MPI processor grid
  reading atoms ...
  1008 atoms
  read_data CPU = 0.009 seconds
ACE/AL version: 2023.11.25
Loading /home/cicn/cicn607503/pd/pot_dir/interim_potential_ladder_step_5.yaml
Total number of basis functions
	H: 24 (r=1) 863 (r>1)
	O: 24 (r=1) 863 (r>1)
Mapping LAMMPS atom type #1(H) -> ACE species type #0
Mapping LAMMPS atom type #2(O) -> ACE species type #1
Loading ASI /home/cicn/cicn607503/pd/pot_dir/interim_potential_ladder_step_5.asi
LINEAR ASI is loaded
Switching to 'neigh_modify every 1 delay 0 check yes' setting during minimization
Neighbor list info ...
  update: every = 1 steps, delay = 0 steps, check = yes
  max neighbors/atom: 2000, page size: 100000
  master list distance cutoff = 6.5
  ghost atom cutoff = 6.5
  binsize = 6.5, bins = 4 4 4
  1 neighbor lists, perpetual/occasional/extra = 1 0 0
  (1) pair pace/extrapolation/kk, perpetual
      attributes: full, newton on, kokkos_device
      pair build: full/bin/kk/device
      stencil: full/bin/3d
      bin: kk/device
Setting up cg/kk style minimization ...
  Unit style    : metal
  Current step  : 0
WARNING: Fix with atom-based arrays not compatible with sending data in Kokkos communication, switching to classic exchange/border communication (src/KOKKOS/comm_kokkos.cpp:666)
WARNING: Fix with atom-based arrays not compatible with Kokkos sorting on device, switching to classic host sorting (src/KOKKOS/atom_kokkos.cpp:218)
Per MPI rank memory allocation (min/avg/max) = 546.3 | 549.6 | 552.9 Mbytes
   Step         TotEng         PotEng         KinEng         Press           Temp          Volume        Density     c_max_pace_gamma
         0  -4827.4078     -4827.4078      0              65842.018      0              8084.0073      1.2433848      0.7740398    
       100  -4869.0901     -4869.0901      0             -8623.4012      0              8084.0073      1.2433848      0.7740398    
       200  -4869.1022     -4869.1022      0             -8586.5226      0              8084.0073      1.2433848      0.7740398    
       300  -4869.1022     -4869.1022      0             -8587.4902      0              8084.0073      1.2433848      0.7740398    
       303  -4869.1022     -4869.1022      0             -8587.5931      0              8084.0073      1.2433848      0.7740398    
Loop time of 1.20411 on 2 procs for 303 steps with 1008 atoms

99.5% CPU use with 2 MPI tasks x 1 OpenMP threads

Minimization stats:
  Stopping criterion = force tolerance
  Energy initial, next-to-last, final = 
     -4827.40775476357  -4869.10223783817  -4869.10223784276
  Force two-norm initial, final = 47.883568 0.00048071696
  Force max component initial, final = 2.283098 3.305506e-05
  Final line search alpha, max atom move = 1 3.305506e-05
  Iterations, force evaluations = 303 605

MPI task timing breakdown:
Section |  min time  |  avg time  |  max time  |%varavg| %total
---------------------------------------------------------------
Pair    | 0.85152    | 0.85939    | 0.86727    |   0.8 | 71.37
Neigh   | 0.0022138  | 0.0022405  | 0.0022671  |   0.1 |  0.19
Comm    | 0.11468    | 0.12377    | 0.13287    |   2.6 | 10.28
Output  | 0.00052526 | 0.00052898 | 0.0005327  |   0.0 |  0.04
Modify  | 0.13734    | 0.1402     | 0.14305    |   0.8 | 11.64
Other   |            | 0.07798    |            |       |  6.48

Nlocal:            504 ave         505 max         503 min
Histogram: 1 0 0 0 0 0 0 0 0 1
Nghost:           2652 ave        2655 max        2649 min
Histogram: 1 0 0 0 0 0 0 0 0 1
Neighs:              0 ave           0 max           0 min
Histogram: 2 0 0 0 0 0 0 0 0 0
FullNghs:        73309 ave       73559 max       73059 min
Histogram: 1 0 0 0 0 0 0 0 0 1

Total # of neighbors = 146618
Ave neighs/atom = 145.45437
Neighbor list builds = 6
Dangerous builds = 0
Setting up Verlet run ...
  Unit style    : metal
  Current step  : 303
  Time step     : 0.0005
WARNING: Fix with atom-based arrays not compatible with sending data in Kokkos communication, switching to classic exchange/border communication (src/KOKKOS/comm_kokkos.cpp:666)
WARNING: Fix with atom-based arrays not compatible with Kokkos sorting on device, switching to classic host sorting (src/KOKKOS/atom_kokkos.cpp:218)
Per MPI rank memory allocation (min/avg/max) = 548.7 | 551 | 553.4 Mbytes
   Step         TotEng         PotEng         KinEng         Press           Temp          Volume        Density     c_max_pace_gamma
       303  -4830.0527     -4869.1022      39.04949      -3428.0913      300            8084.0073      1.2433848      0.7740398    
       400  -4820.8886     -4843.4819      22.593322      731.12699      173.57452      8044.3021      1.2495219      0.7740398    
       500  -4814.1554     -4840.0897      25.934299      2524.5095      199.24178      7950.7501      1.2642243      0.7740398    
       600  -4807.7964     -4837.5156      29.719251      4153.9428      228.31989      7833.7484      1.2831063      0.7740398    
       700  -4803.9159     -4837.1357      33.219834      6351.653       255.21333      7732.7157      1.2998708      0.7740398    
       800  -4801.3198     -4834.9103      33.590505      7632.3818      258.06103      7669.3728      1.3106067      0.7740398    
       900  -4800.9932     -4835.3989      34.40568       7764.0587      264.32366      7648.9323      1.3141091      0.7740398    
      1000  -4799.12       -4833.9822      34.86212       5527.5059      267.83028      7673.6191      1.3098815      0.68967948   
      1100  -4797.9647     -4833.2351      35.270439      4620.8723      270.96722      7734.1471      1.2996303      0.68967948   
      1200  -4797.8145     -4833.1301      35.315606      4712.9974      271.31422      7815.962       1.2860262      0.68967948   
      1300  -4797.2585     -4833.0264      35.767924      5730.1537      274.78918      7906.5851      1.2712861      0.68967948   
      1400  -4796.943      -4832.2467      35.303677      5422.5803      271.22258      7987.5343      1.2584023      0.68967948   
      1500  -4795.2766     -4829.8354      34.558826      2137.2234      265.50021      8043.9177      1.2495816      0.68967948   
      1600  -4791.8103     -4828.6462      36.835892      5348.5258      282.9939       8071.8725      1.245254       0.68967948   
      1700  -4789.5704     -4827.6666      38.096137      3228.3306      292.67581      8079.6398      1.2440569      0.68967948   
      1800  -4790.05       -4829.9915      39.941483      2700.8852      306.85279      8070.889       1.2454058      0.68967948   
      1900  -4788.9057     -4828.1932      39.287511      2142.6739      301.82861      8045.7652      1.2492947      0.68967948   
      2000  -4788.3377     -4828.2641      39.9264        4939.4329      306.73692      8015.1412      1.2540679      0.7955571    
      2100  -4789.2268     -4827.5142      38.287348      4692.2983      294.1448       7985.8587      1.2586664      0.7955571    
      2200  -4788.2155     -4826.7662      38.550676      3760.0695      296.16783      7962.7298      1.2623223      0.7955571    
      2300  -4789.0702     -4827.9674      38.897265      9522.0339      298.83052      7948.9227      1.264515       0.7955571    
      2400  -4789.1057     -4828.8097      39.704047      9988.1523      305.02868      7946.7422      1.2648619      0.7955571    
      2500  -4789.9706     -4828.5895      38.618851      5714.1592      296.6916       7953.5355      1.2637816      0.7955571    
      2600  -4790.2825     -4828.5911      38.308622      3076.7694      294.30824      7966.7177      1.2616905      0.7955571    
      2700  -4790.251      -4827.0712      36.820222      2181.2139      282.87352      7979.1241      1.2597287      0.7955571    
      2800  -4788.9834     -4826.9976      38.014209      3518.4651      292.04639      7989.7901      1.258047       0.7955571    
      2900  -4787.7104     -4825.9615      38.251118      5195.4145      293.86646      7999.8548      1.2564643      0.7955571    
      3000  -4788.8433     -4827.8181      38.9748        1859.0307      299.42619      8015.0753      1.2540783      0.74569781   
      3100  -4788.7558     -4828.6068      39.850988      7121.1559      306.15755      8035.0664      1.2509581      0.74569781   
      3200  -4789.1889     -4828.1899      39.000988      5735.0805      299.62738      8055.7312      1.2477491      0.74569781   
      3300  -4789.2641     -4826.2634      36.99925       4875.8404      284.24891      8072.5511      1.2451493      0.74569781   
      3400  -4789.2858     -4827.7615      38.475716      3844.9571      295.59195      8083.4598      1.243469       0.74569781   
      3500  -4788.2832     -4828.4632      40.179958      6705.6433      308.68489      8084.7569      1.2432695      0.74569781   
      3600  -4788.3872     -4826.0291      37.641912      5175.3167      289.1862       8074.4193      1.2448612      0.74569781   
      3700  -4788.6126     -4827.1525      38.539951      2382.235       296.08544      8057.8009      1.2474286      0.74569781   
      3800  -4786.8404     -4826.9821      40.14172       1936.4092      308.39112      8038.1322      1.250481       0.74569781   
      3900  -4786.1304     -4826.4307      40.300324      6679.2288      309.60961      8018.7589      1.2535022      0.74569781   
      4000  -4787.632      -4827.9729      40.340908      6546.2427      309.9214       8004.0916      1.2557992      0.71860543   
      4100  -4786.2162     -4826.6274      40.411128      4722.1702      310.46087      7997.1743      1.2568854      0.71860543   
      4200  -4788.2529     -4827.4873      39.234384      4117.4882      301.42046      8003.3665      1.255913       0.71860543   
      4300  -4786.5758     -4825.0625      38.486665      4362.6027      295.67606      8020.1229      1.253289       0.71860543   
      4400  -4786.8974     -4828.1082      41.210788      1156.6888      316.6043       8046.5188      1.2491777      0.71860543   
      4500  -4785.987      -4825.1362      39.149161      3880.7235      300.76573      8076.401       1.2445558      0.71860543   
      4600  -4785.5301     -4825.3495      39.819403      1165.208       305.9149       8111.6885      1.2391417      0.71860543   
      4700  -4786.9447     -4824.7129      37.768218      6247.77        290.15655      8141.6201      1.2345862      0.71860543   
      4800  -4787.6418     -4827.0731      39.431322      6497.5881      302.93345      8160.6005      1.2317147      0.71860543   
      4900  -4787.3608     -4826.3803      39.019499      2648.7389      299.76959      8163.423       1.2312889      0.71860543   
      5000  -4786.0844     -4826.3511      40.266702      2128.6496      309.35131      8147.4034      1.2337098      0.69335503   
      5100  -4785.6159     -4824.9431      39.327205      4007.3664      302.13356      8114.7719      1.2386709      0.69335503   
      5200  -4786.3573     -4826.0156      39.658304      8393.6636      304.67725      8071.96        1.2452405      0.69335503   
      5300  -4786.9314     -4826.6641      39.732786      8102.5005      305.24946      8025.0056      1.2525264      0.69335503   
      5400  -4786.1283     -4827.4747      41.346403      6384.4388      317.64617      7983.4869      1.2590403      0.69335503   
      5500  -4785.0558     -4826.866       41.810191      6597.2328      321.20925      7959.8354      1.2627813      0.69335503   
      5600  -4785.4846     -4825.9591      40.474537      5146.8793      310.94801      7961.0074      1.2625954      0.69335503   
      5700  -4786.5265     -4826.2182      39.691693      2870.7792      304.93376      7982.0239      1.2592711      0.69335503   
      5800  -4788.4548     -4827.2589      38.804133      3716.3445      298.11503      8013.0317      1.2543981      0.69335503   
      5900  -4789.0802     -4828.9065      39.826298      1587.5415      305.96787      8047.0375      1.2490972      0.69335503   
      6000  -4789.703      -4828.3163      38.613353     -17.704959      296.64935      8070.7495      1.2454273      0.8300914    
      6100  -4789.4097     -4828.5882      39.178453      3125.7504      300.99077      8079.6368      1.2440574      0.8300914    
      6200  -4788.9605     -4826.842       37.881548      4570.4701      291.02722      8075.0229      1.2447682      0.8300914    
      6300  -4789.0353     -4826.6689      37.633601      4525.9956      289.12235      8059.726       1.2471307      0.8300914    
      6400  -4790.025      -4827.846       37.821003      3631.9685      290.56208      8045.9933      1.2492593      0.8300914    
      6500  -4790.4571     -4829.5867      39.12955       4628.4374      300.61507      8034.4526      1.2510537      0.8300914    
      6600  -4789.8361     -4828.3312      38.495088      2776.6977      295.74077      8024.6832      1.2525768      0.8300914    
      6700  -4790.2876     -4828.3339      38.046294      1057.3722      292.29289      8011.1647      1.2546904      0.8300914    
      6800  -4790.003      -4828.4532      38.450205      4827.3         295.39596      7996.1103      1.2570527      0.8300914    
      6900  -4790.5573     -4828.1577      37.600303      5386.0083      288.86654      7981.5848      1.2593403      0.8300914    
      7000  -4788.9913     -4827.073       38.081689      3693.0464      292.56481      7974.3494      1.260483       0.7385472    
      7100  -4787.9117     -4827.0976      39.185886      6109.2155      301.04787      7980.2488      1.2595512      0.7385472    
      7200  -4787.9995     -4826.9722      38.972669      4614.053       299.40982      7998.9789      1.2566019      0.7385472    
      7300  -4787.3325     -4828.0863      40.753792      2041.0804      313.0934       8022.8402      1.2528645      0.7385472    
      7400  -4785.9929     -4825.6432      39.650318      1937.7544      304.6159       8046.5316      1.2491757      0.7385472    
      7500  -4786.1495     -4827.4304      41.280851      4230.1256      317.14256      8071.1451      1.2453663      0.7385472    
      7600  -4786.9747     -4826.5241      39.549461      1694.282       303.84106      8089.7984      1.2424947      0.7385472    
      7700  -4786.274      -4826.2285      39.954518      2824.6667      306.95293      8101.2788      1.240734       0.7385472    
      7800  -4787.0774     -4826.8749      39.797501      4955.7315      305.74664      8104.1129      1.2403001      0.7385472    
      7900  -4786.613      -4826.6627      40.049743      1958.2541      307.6845       8098.8852      1.2411006      0.7385472    
      8000  -4786.9934     -4825.6556      38.662236      3239.4548      297.0249       8088.752       1.2426554      0.78982679   
      8100  -4787.182      -4825.907       38.725028      4436.2041      297.5073       8078.3589      1.2442542      0.78982679   
      8200  -4788.8954     -4826.5438      37.648421      2096.6561      289.23621      8067.6933      1.2458991      0.78982679   
      8300  -4789.4964     -4829.3246      39.828214      7096.2893      305.9826       8052.3906      1.2482668      0.78982679   
      8400  -4788.7217     -4828.1942      39.472437      6987.7963      303.24931      8029.5162      1.2518228      0.78982679   
      8500  -4787.4861     -4826.4916      39.005495      4167.5968      299.66201      8006.364       1.2554428      0.78982679   
      8600  -4787.6884     -4825.5099      37.821468      5685.8405      290.56565      7988.8872      1.2581892      0.78982679   
      8700  -4788.0632     -4826.7376      38.674441      2604.4041      297.11867      7976.6862      1.2601137      0.78982679   
      8800  -4787.894      -4826.8399      38.945907      291.92906      299.20422      7968.6999      1.2613766      0.78982679   
      8900  -4788.472      -4828.2807      39.808738      4259.2922      305.83297      7971.5894      1.2609194      0.78982679   
      9000  -4788.9276     -4827.8111      38.883541      5392.2695      298.72509      7988.1102      1.2583116      0.74150023   
      9100  -4788.7655     -4825.9082      37.142694      3579.5734      285.35093      8014.3513      1.2541915      0.74150023   
      9200  -4787.2021     -4826.9931      39.79098       4698.102       305.69654      8045.113       1.249396       0.74150023   
      9300  -4787.854      -4826.9961      39.142023      2202.5057      300.71089      8074.0473      1.2449186      0.74150023   
      9400  -4786.7664     -4826.1967      39.43029       3155.0035      302.92552      8095.2512      1.2416578      0.74150023   
      9500  -4787.3233     -4826.3077      38.984359      1206.646       299.49963      8104.4106      1.2402545      0.74150023   
      9600  -4787.9339     -4828.3767      40.442795      3577.2395      310.70415      8104.9793      1.2401675      0.74150023   
      9700  -4788.0522     -4826.5084      38.45622       5592.5438      295.44217      8096.7693      1.241425       0.74150023   
      9800  -4787.145      -4825.8087      38.663751      5478.105       297.03654      8079.9128      1.2440149      0.74150023   
      9900  -4786.4159     -4825.4668      39.050904      5040.5828      300.01086      8059.1006      1.2472275      0.74150023   
     10000  -4786.7048     -4825.8263      39.121421      7230.2429      300.55261      8038.5268      1.2504196      0.74946447   
     10100  -4786.0938     -4825.4736      39.379756      5839.7826      302.53729      8019.9607      1.2533143      0.74946447   
     10200  -4785.9229     -4824.3401      38.417222      4253.6052      295.14257      8001.4147      1.2562193      0.74946447   
     10300  -4786.1516     -4826.0857      39.934123      2012.8112      306.79625      7985.1083      1.2587846      0.74946447   
     10400  -4787.5465     -4827.06        39.513561      4101.1056      303.56525      7978.6701      1.2598004      0.74946447   
     10500  -4789.1384     -4827.1024      37.964001      5348.7407      291.66066      7983.2441      1.2590786      0.74946447   
     10600  -4789.4378     -4828.8913      39.453551      2698.6738      303.10422      7997.8254      1.2567831      0.74946447   
     10700  -4789.2836     -4829.6636      40.379987      2655.3246      310.22162      8013.9713      1.254251       0.74946447   
     10800  -4789.4954     -4827.4708      37.975373      4718.3301      291.74804      8033.3345      1.2512278      0.74946447   
     10900  -4790.0151     -4828.1135      38.098323      7876.0297      292.69261      8050.4739      1.248564       0.74946447   
     11000  -4790.0427     -4828.7513      38.708606      5931.393       297.38114      8058.9492      1.2472509      0.71882641   
     11100  -4790.0133     -4828.6288      38.615461      5345.0522      296.66555      8061.4096      1.2468702      0.71882641   
     11200  -4788.5222     -4828.7517      40.229486      3336.3107      309.06539      8058.1018      1.2473821      0.71882641   
     11300  -4789.062      -4827.3124      38.250463      5148.4194      293.86143      8049.479       1.2487183      0.71882641   
     11400  -4789.7808     -4827.9921      38.211272      5533.6138      293.56034      8036.9832      1.2506598      0.71882641   
     11500  -4790.0139     -4827.4749      37.461022      2655.0995      287.79651      8025.2986      1.2524807      0.71882641   
     11600  -4789.9221     -4828.5937      38.671591      3564.4011      297.09677      8012.8515      1.2544263      0.71882641   
     11700  -4788.8489     -4826.6705      37.821567      4661.1539      290.56641      8005.7531      1.2555386      0.71882641   
     11800  -4790.1686     -4828.7322      38.563648      2095.1497      296.26749      8004.3515      1.2557584      0.71882641   
     11900  -4790.5949     -4828.86        38.265176      4071.6388      293.97446      8002.2739      1.2560844      0.71882641   
     12000  -4789.8115     -4829.384       39.572463      10761.449      304.01777      8004.6517      1.2557113      0.77202782   
     12100  -4789.9537     -4828.8114      38.857713      6401.1072      298.52667      8014.8345      1.2541159      0.77202782   
     12200  -4789.6632     -4827.9912      38.327986      3856.7401      294.45701      8030.1301      1.2517271      0.77202782   
     12300  -4789.7639     -4827.4134      37.649506      3568.8967      289.24454      8046.0277      1.2492539      0.77202782   
     12400  -4788.6285     -4827.3574      38.728879      1879.9518      297.53689      8063.2629      1.2465836      0.77202782   
     12500  -4788.5578     -4828.0408      39.483014      3087.6883      303.33057      8074.3169      1.244877       0.77202782   
     12600  -4787.7785     -4826.4209      38.642389      5424.0739      296.87242      8073.9855      1.2449281      0.77202782   
     12700  -4787.8303     -4828.5981      40.767816      4216.0372      313.20115      8067.111       1.245989       0.77202782   
     12800  -4788.7428     -4826.7115      37.968744      2516.0072      291.69711      8057.2383      1.2475158      0.77202782   
     12900  -4789.6444     -4828.4112      38.766875      1006.4936      297.82879      8043.5457      1.2496394      0.77202782   
     13000  -4789.7635     -4827.407       37.643519      2665.4895      289.19855      8027.7163      1.2521035      0.74974074   
     13100  -4788.2482     -4827.987       39.738773      4363.4346      305.29546      8013.8337      1.2542726      0.74974074   
     13200  -4789.1452     -4827.5289      38.383728      2424.432       294.88525      7999.6309      1.2564994      0.74974074   
     13300  -4788.1488     -4826.8569      38.708107      4909.7166      297.37731      7989.0671      1.2581609      0.74974074   
     13400  -4788.0756     -4826.9256      38.850021      3184.0619      298.46757      7988.122       1.2583097      0.74974074   
     13500  -4789.0512     -4826.4968      37.44565       2807.0596      287.6784       7994.7886      1.2572605      0.74974074   
     13600  -4789.8664     -4827.9573      38.090946      3195.7291      292.63593      8008.3989      1.2551237      0.74974074   
     13700  -4789.7047     -4829.5304      39.825641      3203.7149      305.96283      8024.9006      1.2525428      0.74974074   
     13800  -4789.9727     -4828.3378      38.36509       3070.4357      294.74206      8041.538       1.2499514      0.74974074   
     13900  -4790.6774     -4829.6078      38.930316      4421.5564      299.08444      8053.014       1.2481702      0.74974074   
     14000  -4788.9321     -4826.7582      37.826076      2838.9351      290.60105      8057.3793      1.2474939      0.73754016   
     14100  -4789.1214     -4827.7443      38.622884      5806.1206      296.72258      8055.4763      1.2477886      0.73754016   
     14200  -4787.5578     -4826.3862      38.828452      6871.6956      298.30186      8045.9204      1.2492706      0.73754016   
     14300  -4787.9846     -4828.0858      40.101244      679.88138      308.08016      8034.3576      1.2510685      0.73754016   
     14400  -4788.1814     -4827.6023      39.42083       1217.6668      302.85284      8023.6979      1.2527306      0.73754016   
     14500  -4788.2083     -4826.2021      37.993874      833.3745       291.89017      8013.6073      1.254308       0.73754016   
     14600  -4787.5917     -4825.9697      38.378011      4396.5718      294.84132      8008.6734      1.2550807      0.73754016   
     14700  -4787.9421     -4826.6742      38.732141      5375.0061      297.56195      8010.2842      1.2548284      0.73754016   
     14800  -4788.2314     -4828.7203      40.488877      448.22163      311.05818      8017.0577      1.2537682      0.73754016   
     14900  -4787.647      -4827.7162      40.069195      6636.0592      307.83395      8026.9428      1.2522242      0.73754016   
     15000  -4787.1775     -4826.462       39.284501      3902.1834      301.80549      8042.5315      1.249797       0.78308237   
     15100  -4788.7448     -4826.8527      38.107916      3420.0638      292.7663       8062.7962      1.2466558      0.78308237   
     15200  -4787.1287     -4826.9641      39.835325      4417.7011      306.03723      8086.3804      1.2430199      0.78308237   
     15300  -4786.7093     -4826.7704      40.06117       3409.5287      307.77229      8108.6241      1.23961        0.78308237   
     15400  -4787.5288     -4827.1839      39.655151      2184.8714      304.65303      8123.5556      1.2373316      0.78308237   
     15500  -4788.3079     -4828.1263      39.818419      5306.4025      305.90734      8128.8994      1.2365182      0.78308237   
     15600  -4789.4159     -4825.8167      36.400786      6362.8997      279.65118      8122.1548      1.2375449      0.78308237   
     15700  -4789.2838     -4828.1705      38.886738      6850.127       298.74965      8100.4396      1.2408625      0.78308237   
     15800  -4788.6645     -4827.262       38.597446      5033.5841      296.52714      8071.5005      1.2453114      0.78308237   
     15900  -4788.9217     -4827.1312      38.209495      3765.8563      293.54669      8040.459       1.2501191      0.78308237   
     16000  -4788.0274     -4826.2032      38.175768      3248.8064      293.28758      8012.1612      1.2545344      0.7651919    
     16100  -4790.0131     -4828.0236      38.010515      2549.7025      292.01801      7989.3083      1.2581229      0.7651919    
     16200  -4789.8634     -4828.3618      38.498429      1753.3423      295.76644      7975.2187      1.2603456      0.7651919    
     16300  -4789.32       -4828.6444      39.324408      2633.6296      302.11208      7972.363       1.260797       0.7651919    
     16400  -4787.5807     -4826.4416      38.860898      5992.6615      298.55113      7981.4304      1.2593647      0.7651919    
     16500  -4788.1723     -4826.99        38.817718      1207.9885      298.2194       8005.1535      1.2556326      0.7651919    
     16600  -4788.6434     -4826.8397      38.196279      2404.9759      293.44516      8033.9648      1.2511297      0.7651919    
     16700  -4788.3882     -4827.9138      39.525664      5305.5563      303.65824      8065.7706      1.2461961      0.7651919    
     16800  -4788.9428     -4827.091       38.14817       4854.8952      293.07556      8093.4625      1.2419322      0.7651919    
     16900  -4788.3167     -4828.0855      39.768759      3928.329       305.52583      8114.4379      1.2387219      0.7651919    
     17000  -4788.0456     -4827.2314      39.185811      5620.4167      301.0473       8129.9656      1.236356       0.76777264   
     17100  -4787.5895     -4824.6404      37.050902      6001.2749      284.64573      8135.2689      1.23555        0.76777264   
     17200  -4789.3898     -4827.425       38.035261      1293.1515      292.20813      8132.6363      1.23595        0.76777264   
     17300  -4787.6941     -4826.1208      38.426702      3546.5148      295.2154       8120.5081      1.2377959      0.76777264   
     17400  -4789.3871     -4827.0977      37.710618      3414.4815      289.71403      8103.2285      1.2404354      0.76777264   
     17500  -4789.9147     -4828.27        38.355283      3755.7712      294.66671      8079.886       1.244019       0.76777264   
     17600  -4788.8668     -4828.2441      39.377293      6784.6679      302.51837      8052.3782      1.2482687      0.76777264   
     17700  -4788.7746     -4828.785       40.010408      3301.311       307.38231      8024.374       1.252625       0.76777264   
     17800  -4790.0449     -4827.6155      37.570556      4657.8505      288.63801      8002.1175      1.256109       0.76777264   
     17900  -4789.136      -4827.1389      38.002954      4946.7623      291.95993      7991.8803      1.257718       0.76777264   
     18000  -4789.6659     -4828.7442      39.078285      4489.8419      300.22122      7996.7102      1.2569584      0.76939555   
     18100  -4788.7669     -4826.4123      37.645392      3149.5541      289.21293      8012.3098      1.2545111      0.76939555   
     18200  -4787.4363     -4827.1281      39.691844      991.32143      304.93493      8034.9969      1.250969       0.76939555   
     18300  -4787.0476     -4826.3391      39.291427      5250.0725      301.85869      8057.6899      1.2474458      0.76939555   
     18400  -4786.0427     -4825.6779      39.63511       5553.5719      304.49906      8078.8804      1.2441738      0.76939555   
     18500  -4786.5752     -4826.6129      40.037712      4851.6794      307.59208      8099.0841      1.2410702      0.76939555   
     18600  -4786.025      -4825.8593      39.834308      3013.2593      306.02941      8116.3665      1.2384275      0.76939555   
     18700  -4786.346      -4825.7265      39.380488      1476.5752      302.54291      8126.2081      1.2369277      0.76939555   
     18800  -4786.7125     -4826.3643      39.651833      2352.6016      304.62754      8126.6456      1.2368611      0.76939555   
     18900  -4785.3887     -4824.3849      38.99622       2610.022       299.59075      8117.9419      1.2381872      0.76939555   
     19000  -4786.333      -4825.6696      39.336658     -842.87112      302.20619      8099.9314      1.2409403      0.75479178   
     19100  -4787.8069     -4826.2005      38.393603      2846.5826      294.96111      8073.6061      1.2449866      0.75479178   
     19200  -4788.6291     -4827.593       38.963938      3773.8723      299.34275      8047.0109      1.2491013      0.75479178   
     19300  -4787.3907     -4826.5506      39.159908      6176.0549      300.8483       8022.937       1.2528494      0.75479178   
     19400  -4788.0761     -4827.5451      39.469052      4004.2195      303.22331      8005.0308      1.2556518      0.75479178   
     19500  -4788.0507     -4826.6774      38.62671       5193.2406      296.75197      7995.0018      1.2572269      0.75479178   
     19600  -4788.8953     -4826.8042      37.908904      1930.4026      291.23738      7999.1984      1.2565674      0.75479178   
     19700  -4789.458      -4827.5867      38.128747      3770.1933      292.92634      8014.4102      1.2541823      0.75479178   
     19800  -4789.6427     -4828.3096      38.666922      3267.1698      297.0609       8035.3685      1.2509111      0.75479178   
     19900  -4789.9245     -4826.9106      36.986126      1015.3989      284.14809      8053.6913      1.2480652      0.75479178   
     20000  -4789.5989     -4828.2784      38.679481     -877.2748       297.15739      8067.7195      1.245895       0.72812323   
     20100  -4790.4166     -4831.0337      40.617138      3405.9742      312.04355      8074.8292      1.2447981      0.72812323   
     20200  -4790.2163     -4827.8028      37.586534      2347.343       288.76075      8075.2361      1.2447353      0.72812323   
     20300  -4788.2878     -4826.5853      38.297558      3639.5917      294.22324      8066.1717      1.2461341      0.72812323   
     20400  -4789.0208     -4826.449       37.428181      4278.2078      287.5442       8055.0618      1.2478528      0.72812323   
     20500  -4788.9392     -4827.2792      38.339986      1429.0811      294.5492       8043.6717      1.2496198      0.72812323   
     20600  -4787.5099     -4827.5389      40.028934      6244.3525      307.52464      8033.6772      1.2511745      0.72812323   
     20700  -4789.1743     -4829.1146      39.940344      7335.9431      306.84404      8030.2831      1.2517033      0.72812323   
     20800  -4788.4451     -4828.2699      39.824814      5449.3719      305.95647      8034.2254      1.2510891      0.72812323   
     20900  -4788.0144     -4828.0995      40.085126      8668.4441      307.95634      8045.4621      1.2493417      0.72812323   
     21000  -4789.462      -4828.2993      38.837263      7366.6931      298.36955      8067.0738      1.2459948      0.79070079   
     21100  -4790.623      -4828.5061      37.883162      2520.8817      291.03962      8084.1577      1.2433617      0.79070079   
     21200  -4791.4185     -4827.9711      36.552622      4357.5923      280.81766      8087.9778      1.2427744      0.79070079   
     21300  -4789.9163     -4826.8365      36.920212      4213.2368      283.6417       8082.9727      1.2435439      0.79070079   
     21400  -4788.2061     -4828.25        40.043911      3640.611       307.6397       8071.1645      1.2453633      0.79070079   
     21500  -4788.2083     -4825.7321      37.523722      3763.8553      288.2782       8052.0273      1.2483231      0.79070079   
     21600  -4788.6536     -4828.4914      39.837806      109.06968      306.05628      8030.7318      1.2516333      0.79070079   
     21700  -4787.626      -4826.7105      39.08446       2714.3462      300.26866      8013.5514      1.2543167      0.79070079   
     21800  -4788.598      -4827.2621      38.664086      4415.5556      297.03911      8001.4414      1.2562151      0.79070079   
     21900  -4789.0698     -4827.484       38.414176      5767.5524      295.11916      7995.5483      1.257141       0.79070079   
     22000  -4789.0628     -4825.823       36.760237      7024.0876      282.41268      7993.548       1.2574556      0.69748038   
     22100  -4789.9701     -4829.377       39.4069        1919.942       302.74582      7998.6669      1.2566509      0.69748038   
     22200  -4790.3407     -4830.4278      40.087086      1965.2772      307.97139      8004.6816      1.2557066      0.69748038   
     22300  -4791.1248     -4828.0097      36.884917      2600.8954      283.37054      8009.1435      1.2550071      0.69748038   
     22400  -4790.7418     -4829.1985      38.456736      4425.4972      295.44614      8015.8463      1.2539576      0.69748038   
     22500  -4789.8211     -4827.3547      37.533632      3380.8635      288.35434      8017.4101      1.253713       0.69748038   
     22600  -4789.4939     -4827.5025      38.008661      4748.3576      292.00377      8018.3207      1.2535707      0.69748038   
     22700  -4790.204      -4828.9652      38.761187      5059.4716      297.7851       8022.4852      1.2529199      0.69748038   
     22800  -4790.6866     -4828.8791      38.192516      5577.5025      293.41625      8028.7824      1.2519372      0.69748038   
     22900  -4789.9077     -4828.318       38.410365      3583.5297      295.08989      8039.856       1.2502129      0.69748038   
     23000  -4790.3016     -4828.9269      38.625227      6999.7121      296.74057      8054.6975      1.2479093      0.71060132   
     23100  -4789.4392     -4827.6191      38.179949      7409.1038      293.3197       8063.5168      1.2465444      0.71060132   
     23200  -4789.2119     -4826.7633      37.551436      5508.8546      288.49112      8067.9362      1.2458616      0.71060132   
     23300  -4790.4377     -4827.7196      37.281935      2751.2283      286.42066      8069.5459      1.2456131      0.71060132   
     23400  -4790.1873     -4828.9539      38.766613      565.31682      297.82678      8069.2484      1.245659       0.71060132   
     23500  -4789.703      -4828.4287      38.725613      2662.7653      297.5118       8067.3926      1.2459455      0.71060132   
     23600  -4788.4464     -4828.1559      39.709449      997.22993      305.07017      8066.0124      1.2461587      0.71060132   
     23700  -4787.0858     -4826.4202      39.334408      1693.1981      302.1889       8063.1246      1.246605       0.71060132   
     23800  -4787.3542     -4825.6473      38.293036      4373.1373      294.1885       8056.0438      1.2477007      0.71060132   
     23900  -4785.3191     -4825.0121      39.692961      2990.2404      304.94351      8050.8159      1.2485109      0.71060132   
     24000  -4786.4761     -4827.6111      41.134969      6900.3685      316.02181      8054.1311      1.247997       0.78711813   
     24100  -4786.6046     -4826.3373      39.732691      3850.2061      305.24874      8060.6657      1.2469853      0.78711813   
     24200  -4785.5658     -4825.2566      39.690761      6109.4957      304.92661      8064.9236      1.246327       0.78711813   
     24300  -4787.7383     -4826.7879      39.049619      3783.6879      300.00099      8069.0669      1.245687       0.78711813   
     24400  -4787.237      -4826.5411      39.304158      2354.6526      301.9565       8067.1706      1.2459798      0.78711813   
     24500  -4788.2368     -4827.9679      39.73107       3044.56        305.23628      8063.1973      1.2465938      0.78711813   
     24600  -4787.9132     -4826.7069      38.793682      6307.946       298.03475      8057.9943      1.2473987      0.78711813   
     24700  -4787.4446     -4827.0023      39.557775      6782.3664      303.90493      8052.506       1.2482489      0.78711813   
     24800  -4788.7925     -4827.4301      38.637531      5248.6182      296.8351       8053.1894      1.248143       0.78711813   
     24900  -4789.6073     -4828.1984      38.591168      3450.1872      296.47892      8054.6353      1.2479189      0.78711813   
     25000  -4790.0239     -4829.9423      39.918453      6904.3248      306.67586      8052.1846      1.2482987      0.71143789   
     25100  -4789.7634     -4827.6902      37.92681       5120.0073      291.37495      8046.8547      1.2491255      0.71143789   
     25200  -4789.9068     -4827.3194      37.412605      7909.645       287.42454      8043.5125      1.2496446      0.71143789   
     25300  -4789.1682     -4828.5676      39.399438      3058.4782      302.6885       8041.9416      1.2498887      0.71143789   
     25400  -4788.9877     -4827.1684      38.18072       2292.2884      293.32563      8042.9297      1.2497351      0.71143789   
     25500  -4789.8702     -4828.0997      38.229492      3319.7133      293.70032      8049.0532      1.2487844      0.71143789   
     25600  -4790.0418     -4828.525       38.483247      1997.0812      295.6498       8052.8926      1.248189       0.71143789   
     25700  -4789.7901     -4827.1814      37.391364      2291.4818      287.26135      8053.945       1.2480259      0.71143789   
     25800  -4789.825      -4828.622       38.79696       5614.3812      298.05993      8056.2266      1.2476724      0.71143789   
     25900  -4790.3669     -4826.8111      36.444118      6000.7791      279.98408      8058.3653      1.2473413      0.71143789   
     26000  -4790.1019     -4828.6155      38.513503      5353.5638      295.88225      8060.7593      1.2469708      0.72901055   
     26100  -4789.9268     -4828.3439      38.417052      6223.0741      295.14126      8062.0196      1.2467759      0.72901055   
     26200  -4790.5532     -4828.3154      37.762194      4526.8637      290.11027      8059.8363      1.2471136      0.72901055   
     26300  -4791.6177     -4829.3085      37.69087       1005.5532      289.56232      8051.156       1.2484582      0.72901055   
     26400  -4790.4735     -4829.2056      38.732103      3497.215       297.56165      8037.7969      1.2505332      0.72901055   
     26500  -4790.3382     -4828.171       37.832771      4991.1112      290.65249      8025.8068      1.2524014      0.72901055   
     26600  -4789.7318     -4828.712       38.98017       4430.4727      299.46744      8021.6689      1.2530474      0.72901055   
     26700  -4790.7044     -4828.8294      38.125002      6493.6288      292.89757      8024.8208      1.2525553      0.72901055   
     26800  -4789.6085     -4827.8933      38.284784      7256.0557      294.1251       8033.8215      1.251152       0.72901055   
     26900  -4789.4463     -4827.1924      37.746173      3426.2006      289.98719      8045.5008      1.2493357      0.72901055   
     27000  -4790.416      -4828.6094      38.193412      394.61413      293.42313      8056.4759      1.2476338      0.7510208    
     27100  -4789.9058     -4826.7098      36.804032      4148.6535      282.74914      8063.7826      1.2465033      0.7510208    
     27200  -4788.7672     -4827.8804      39.113253      7528.2249      300.48987      8068.7986      1.2457284      0.7510208    
     27300  -4790.0332     -4827.115       37.081763      3985.7451      284.88282      8074.9589      1.2447781      0.7510208    
     27400  -4789.85       -4828.3644      38.514403      4618.6659      295.88917      8078.777       1.2441898      0.7510208    
     27500  -4790.1589     -4827.2894      37.130487      1906.6832      285.25714      8080.5941      1.24391        0.7510208    
     27600  -4788.5946     -4828.1878      39.593227     -1.5284076      304.17729      8077.7867      1.2443423      0.7510208    
     27700  -4788.6928     -4826.7053      38.012527      4145.5813      292.03348      8067.0409      1.2459998      0.7510208    
     27800  -4788.5217     -4828.1541      39.632482      997.5853       304.47887      8053.1636      1.248147       0.7510208    
     27900  -4788.4513     -4826.7496      38.298302      4567.3498      294.22895      8035.457       1.2508973      0.7510208    
     28000  -4787.6394     -4826.5397      38.900247      7218.7003      298.85344      8024.9983      1.2525276      0.71510648   
     28100  -4787.9433     -4825.8408      37.89751       8072.5535      291.14985      8022.6541      1.2528936      0.71510648   
     28200  -4788.4981     -4826.9488      38.450692      5617.4737      295.3997       8026.638       1.2522717      0.71510648   
     28300  -4788.965      -4827.4097      38.444697      4616.9954      295.35364      8037.2878      1.2506124      0.71510648   
     28400  -4789.0762     -4825.7375      36.661279      4359.351       281.65243      8057.4063      1.2474897      0.71510648   
     28500  -4787.4333     -4826.6396      39.206257      4660.6933      301.20438      8079.2855      1.2441115      0.71510648   
     28600  -4788.8882     -4829.0683      40.180104      2073.3357      308.68601      8098.4283      1.2411707      0.71510648   
     28700  -4788.7476     -4826.7184      37.970843     -305.16666      291.71323      8115.4119      1.2385732      0.71510648   
     28800  -4789.5434     -4828.1047      38.561255      4476.7261      296.2491       8126.0921      1.2369453      0.71510648   
     28900  -4788.281      -4826.524       38.243018      3027.582       293.80423      8130.2414      1.2363141      0.71510648   
     29000  -4787.9449     -4827.1633      39.218394      3052.8566      301.29762      8124.2265      1.2372294      0.72458113   
     29100  -4788.3218     -4826.459       38.13721       3860.6281      292.99136      8108.4816      1.2396318      0.72458113   
     29200  -4788.2726     -4825.6479      37.37525       5719.0838      287.13755      8088.6866      1.2426655      0.72458113   
     29300  -4789.1544     -4827.4401      38.285621      4372.8923      294.13153      8069.1691      1.2456712      0.72458113   
     29400  -4788.7936     -4826.7837      37.990074      3431.3115      291.86097      8048.4263      1.2488816      0.72458113   
     29500  -4788.5696     -4827.817       39.247367      2147.7598      301.5202       8035.2397      1.2509312      0.72458113   
     29600  -4788.6553     -4827.0351      38.37975       7468.7188      294.85468      8034.1704      1.2510977      0.72458113   
     29700  -4788.806      -4828.2485      39.442473      7881.2994      303.01912      8039.9375      1.2502002      0.72458113   
     29800  -4789.7624     -4827.5714      37.808977      1507.3177      290.46969      8047.2513      1.249064       0.72458113   
     29900  -4789.6068     -4828.8968      39.289977      4691.0143      301.84756      8056.0238      1.2477038      0.72458113   
     30000  -4789.1704     -4826.7281      37.557746      4676.36        288.53959      8064.9968      1.2463156      0.83490804   
     30100  -4788.9448     -4828.6249      39.680129      2266.3424      304.84492      8075.3063      1.2447245      0.83490804   
     30200  -4787.5224     -4826.0288      38.506388      3649.4059      295.82759      8086.2137      1.2430455      0.83490804   
     30300  -4786.5774     -4825.5356      38.958189      3227.2355      299.29858      8098.1954      1.2412064      0.83490804   
     30400  -4785.227      -4824.5077      39.280711     -435.29061      301.77637      8107.6011      1.2397664      0.83490804   
     30500  -4786.0728     -4826.5903      40.517457      4870.9349      311.27775      8113.5339      1.2388599      0.83490804   
     30600  -4785.0365     -4825.7046      40.668035      5974.5229      312.43457      8116.8907      1.2383476      0.83490804   
     30700  -4785.1642     -4825.8227      40.658477      6240.5272      312.36114      8120.4465      1.2378053      0.83490804   
     30800  -4785.4351     -4825.5259      40.090825      2677.3949      308.00012      8124.1955      1.2372341      0.83490804   
     30900  -4786.2539     -4826.4878      40.233919      4535.3593      309.09945      8128.1942      1.2366254      0.83490804   
     31000  -4786.7142     -4825.7011      38.986843      4565.0676      299.51871      8126.0445      1.2369526      0.70292903   
     31100  -4787.6945     -4826.0042      38.309721      4641.5211      294.31668      8112.9251      1.2389528      0.70292903   
     31200  -4786.4904     -4825.1059      38.615509      4519.5838      296.66592      8091.2057      1.2422786      0.70292903   
     31300  -4789.1081     -4826.8573      37.749145      5561.6739      290.01002      8068.7027      1.2457432      0.70292903   
     31400  -4787.6629     -4825.9651      38.302165      984.75813      294.25863      8051.1508      1.248459       0.70292903   
     31500  -4787.6211     -4826.3009      38.679799      148.45929      297.15983      8038.8292      1.2503726      0.70292903   
     31600  -4787.8985     -4825.452       37.553459      4905.169       288.50665      8032.9728      1.2512842      0.70292903   
     31700  -4788.6776     -4828.6142      39.936636      5947.5757      306.81555      8036.4924      1.2507362      0.70292903   
     31800  -4788.6586     -4827.6961      39.037417      2642.389       299.90725      8047.9164      1.2489608      0.70292903   
     31900  -4789.6338     -4827.2528      37.618993      4801.1908      289.01012      8062.1875      1.2467499      0.70292903   
     32000  -4789.2457     -4827.424       38.178273      4160.6813      293.30683      8079.1604      1.2441307      0.825947     
     32100  -4786.5322     -4824.7305      38.198362      3145.3684      293.46116      8096.8547      1.2414119      0.825947     
     32200  -4787.6357     -4827.3445      39.708865      3313.4042      305.06569      8109.0443      1.2395458      0.825947     
     32300  -4786.7371     -4827.2784      40.541338      637.68726      311.46122      8118.401       1.2381172      0.825947     
     32400  -4787.6279     -4826.2255      38.597667      4194.221       296.52884      8125.6022      1.2370199      0.825947     
     32500  -4787.8172     -4826.6307      38.813524      2360.3486      298.18718      8127.3917      1.2367475      0.825947     
     32600  -4789.371      -4827.5073      38.136334      3264.0364      292.98463      8123.1966      1.2373862      0.825947     
     32700  -4788.0691     -4827.7544      39.685294      6815.226       304.8846       8108.4056      1.2396434      0.825947     
     32800  -4788.3867     -4827.0712      38.684531      8714.6177      297.19619      8087.2798      1.2428817      0.825947     
     32900  -4787.1765     -4827.96        40.783545      4221.6228      313.32198      8064.0314      1.2464649      0.825947     
     33000  -4788.0414     -4826.9024      38.860982      2175.0629      298.55178      8039.0721      1.2503348      0.73943381   
     33100  -4788.7707     -4827.3713      38.600589      5307.8784      296.55129      8015.6276      1.2539919      0.73943381   
     33200  -4787.7811     -4826.0065      38.225422      6361.56        293.66905      7997.7388      1.2567967      0.73943381   
     33300  -4788.9376     -4828.1435      39.205923      4232.2664      301.20181      7994.4057      1.2573207      0.73943381   
     33400  -4790.9065     -4827.7899      36.883358      4063.8516      283.35857      8001.2966      1.2562378      0.73943381   
     33500  -4789.8128     -4827.5939      37.781131      2164.8482      290.25576      8019.9431      1.2533171      0.73943381   
     33600  -4787.3845     -4825.935       38.550491      3701.5801      296.16641      8046.9576      1.2491096      0.73943381   
     33700  -4786.7242     -4825.8267      39.102473      1304.242       300.40705      8082.5671      1.2436063      0.73943381   
     33800  -4787.9442     -4825.4627      37.518536      2580.8202      288.23836      8121.3671      1.237665       0.73943381   
     33900  -4787.6257     -4825.584       37.958314      2632.2962      291.61698      8155.7171      1.2324522      0.73943381   
     34000  -4787.8167     -4826.5235      38.70682       2520.2736      297.36742      8180.6925      1.2286896      0.83003864   
     34100  -4788.0536     -4826.0171      37.963502      3771.1899      291.65683      8189.6102      1.2273517      0.83003864   
     34200  -4787.7227     -4825.7544      38.031789      5311.1643      292.18145      8186.3571      1.2278394      0.83003864   
     34300  -4787.4302     -4826.419       38.988787      4151.6571      299.53364      8168.418       1.2305359      0.83003864   
     34400  -4787.6653     -4827.5743      39.908973      1431.5745      306.60303      8143.1428      1.2343553      0.83003864   
     34500  -4788.5102     -4827.6103      39.100115      4937.7407      300.38893      8113.1291      1.2389217      0.83003864   
     34600  -4787.7222     -4826.7832      39.061077      5426.76        300.08902      8081.0876      1.243834       0.83003864   
     34700  -4788.2832     -4826.3205      38.037263      5520.5978      292.22351      8055.7573      1.2477451      0.83003864   
     34800  -4788.658      -4826.6849      38.026937      5302.8872      292.14418      8041.5613      1.2499478      0.83003864   
     34900  -4789.9581     -4829.4745      39.516462      3360.8981      303.58754      8039.0923      1.2503317      0.83003864   
     35000  -4789.3963     -4829.8902      40.493931      4641.9412      311.097        8040.1581      1.2501659      0.76690389   
     35100  -4790.4897     -4827.736       37.246283      4643.3328      286.14676      8042.2069      1.2498474      0.76690389   
     35200  -4790.4072     -4827.652       37.244826      3183.6461      286.13556      8046.1183      1.2492399      0.76690389   
     35300  -4790.8353     -4828.1012      37.265883      3882.197       286.29733      8050.1589      1.2486128      0.76690389   
     35400  -4789.6645     -4828.168       38.50345       2767.0457      295.80501      8051.8562      1.2483496      0.76690389   
     35500  -4790.2362     -4827.4307      37.194532      1950.8758      285.74918      8053.6973      1.2480643      0.76690389   
     35600  -4790.3687     -4828.6155      38.246782      1616.3682      293.83315      8055.8764      1.2477267      0.76690389   
     35700  -4790.6582     -4829.0343      38.376091      4023.7893      294.82657      8057.2977      1.2475065      0.76690389   
     35800  -4791.6779     -4828.7747      37.096818      1863.8832      284.99849      8056.5842      1.247617       0.76690389   
     35900  -4790.8821     -4828.0001      37.118018      3645.2051      285.16135      8052.9186      1.2481849      0.76690389   
     36000  -4788.4931     -4827.1882      38.69514       1949.4848      297.27769      8048.6144      1.2488524      0.76191886   
     36100  -4788.0814     -4825.9637      37.882309      4544.2014      291.03306      8048.757       1.2488303      0.76191886   
     36200  -4787.9305     -4826.5249      38.594379      2320.3086      296.50359      8054.3206      1.2479677      0.76191886   
     36300  -4788.2134     -4827.0824      38.868997      5625.3773      298.61335      8064.012       1.2464679      0.76191886   
     36400  -4787.3285     -4826.3006      38.972093      2496.3343      299.40539      8074.0638      1.2449161      0.76191886   
     36500  -4788.8116     -4826.1116      37.299964      3449.0623      286.55916      8085.9096      1.2430923      0.76191886   
     36600  -4790.4814     -4828.6932      38.211826      2804.7202      293.5646       8093.7425      1.2418892      0.76191886   
     36700  -4789.6737     -4827.0513      37.377609      4296.3247      287.15568      8093.7128      1.2418938      0.76191886   
     36800  -4789.8806     -4828.3051      38.424507      4009.7726      295.19853      8087.2345      1.2428886      0.76191886   
     36900  -4789.7908     -4827.1349      37.344099      3208.7878      286.89824      8077.1623      1.2444385      0.76191886   
     37000  -4789.3021     -4826.0893      36.787182      1969.8564      282.61968      8070.4725      1.24547        0.74363327   
     37100  -4789.543      -4828.2601      38.717102      4468.1921      297.44641      8070.1955      1.2455128      0.74363327   
     37200  -4788.5929     -4827.4459      38.85294       1725.9682      298.48999      8070.4776      1.2454692      0.74363327   
     37300  -4787.8529     -4828.4573      40.604468      1007.6314      311.94621      8067.3402      1.2459536      0.74363327   
     37400  -4788.2218     -4825.8314      37.609616      2781.9816      288.93808      8059.0579      1.2472341      0.74363327   
     37500  -4787.1518     -4826.1824      39.03054       1527.1276      299.85442      8050.5142      1.2485577      0.74363327   
     37600  -4787.2485     -4824.3919      37.143388      1574.6041      285.35626      8044.5137      1.249489       0.74363327   
     37700  -4786.5881     -4827.2286      40.640529      3271.6795      312.22325      8048.8823      1.2488109      0.74363327   
     37800  -4786.7195     -4826.8854      40.165841      3980.1521      308.57643      8061.7154      1.2468229      0.74363327   
     37900  -4786.8958     -4825.7866      38.890847      3542.5505      298.78122      8081.0996      1.2438322      0.74363327   
     38000  -4788.307      -4826.946       38.638953      4520.1172      296.84603      8105.173       1.2401378      0.72171632   
     38100  -4788.1872     -4827.1612      38.973937      2289.7452      299.41956      8129.5721      1.2364158      0.72171632   
     38200  -4788.37       -4827.2503      38.880293      5951.6408      298.70014      8141.8491      1.2345515      0.72171632   
     38300  -4786.7809     -4826.8987      40.117831      5872.9526      308.20759      8144.3063      1.234179       0.72171632   
     38400  -4787.4965     -4826.2671      38.7706        4415.5361      297.85741      8136.0387      1.2354331      0.72171632   
     38500  -4787.2211     -4826.2182      38.997053      4701.9817      299.59715      8117.5447      1.2382478      0.72171632   
     38600  -4787.3331     -4827.1859      39.852798      4128.9164      306.17146      8091.4904      1.2422349      0.72171632   
     38700  -4787.641      -4826.6317      38.990709      6083.9271      299.54842      8062.907       1.2466387      0.72171632   
     38800  -4787.1847     -4825.7694      38.584713      4717.2777      296.42932      8037.1139      1.2506395      0.72171632   
     38900  -4788.3377     -4827.6354      39.297642      7940.715       301.90644      8018.1081      1.2536039      0.72171632   
     39000  -4786.9424     -4825.7751      38.832678      5677.6619      298.33433      8013.5496      1.254317       0.72714236   
     39100  -4787.4249     -4827.3203      39.895354      1555.3337      306.4984       8024.254       1.2526438      0.72714236   
     39200  -4787.7548     -4827.2406      39.48579       1269.586       303.3519       8041.8715      1.2498996      0.72714236   
     39300  -4789.6211     -4827.5284      37.907276      3397.7625      291.22488      8064.8738      1.2463346      0.72714236   
     39400  -4790.6122     -4827.9162      37.303985      4859.7198      286.59006      8087.2512      1.2428861      0.72714236   
     39500  -4789.8088     -4828.1795      38.370726      4897.4368      294.78536      8103.9804      1.2403203      0.72714236   
     39600  -4789.9365     -4828.4417      38.505193      3774.4054      295.81841      8109.5434      1.2394695      0.72714236   
     39700  -4789.09       -4826.5992      37.509142      1458.1623      288.16619      8109.1103      1.2395357      0.72714236   
     39800  -4786.7874     -4826.5576      39.770156      3864.8434      305.53656      8103.1004      1.240455       0.72714236   
     39900  -4787.0657     -4826.4959      39.430213      4965.6974      302.92492      8095.0184      1.2416935      0.72714236   
     40000  -4788.2976     -4827.7397      39.442034      3809.9573      303.01574      8089.4468      1.2425487      0.71858007   
     40100  -4788.7846     -4826.8363      38.051687      5639.8951      292.33432      8085.581       1.2431428      0.71858007   
     40200  -4788.6012     -4826.703       38.101765      3031.9011      292.71905      8083.5956      1.2434481      0.71858007   
     40300  -4787.7492     -4827.381       39.631807      382.84649      304.47369      8083.2419      1.2435025      0.71858007   
     40400  -4788.69       -4826.5297      37.839744      2047.9513      290.70606      8080.7493      1.2438861      0.71858007   
     40500  -4788.0179     -4826.864       38.846104      1940.1077      298.43748      8074.7663      1.2448077      0.71858007   
     40600  -4788.3657     -4826.8753      38.509598      4776.9042      295.85225      8065.9327      1.246171       0.71858007   
     40700  -4788.5948     -4826.649       38.054207      2227.9477      292.35368      8059.6452      1.2471432      0.71858007   
     40800  -4788.7403     -4826.8429      38.102604      5657.9214      292.7255       8054.8437      1.2478866      0.71858007   
     40900  -4787.6619     -4826.1944      38.532429      2845.884       296.02765      8052.4768      1.2482534      0.71858007   
     41000  -4786.4715     -4826.4981      40.026613      2402.0034      307.5068       8053.867       1.248038       0.77736617   
     41100  -4785.2921     -4826.0107      40.718548      4978.6012      312.82264      8054.9879      1.2478643      0.77736617   
     41200  -4787.3352     -4825.8226      38.487428      8316.8707      295.68193      8058.2421      1.2473603      0.77736617   
     41300  -4787.3951     -4826.8766      39.481481      6084.7582      303.3188       8065.4171      1.2462507      0.77736617   
     41400  -4786.6806     -4826.673       39.992374      2250.6473      307.24376      8076.5865      1.2445272      0.77736617   
     41500  -4786.6201     -4825.7985      39.178419      4957.5313      300.99051      8087.3273      1.2428743      0.77736617   
     41600  -4787.8915     -4828.5509      40.659462      3607.3138      312.36871      8095.9068      1.2415572      0.77736617   
     41700  -4789.1333     -4828.021       38.887698      3910.9713      298.75703      8097.1739      1.241363       0.77736617   
     41800  -4789.076      -4828.2129      39.13686       793.76857      300.67123      8087.9286      1.242782       0.77736617   
     41900  -4788.4074     -4826.866       38.458584      2711.8381      295.46033      8069.8874      1.2455603      0.77736617   
     42000  -4788.4935     -4826.449       37.955434      3610.1822      291.59485      8045.8972      1.2492742      0.72847121   
     42100  -4787.8982     -4826.692       38.793756      4658.1031      298.03531      8021.5081      1.2530726      0.72847121   
     42200  -4788.1738     -4827.9768      39.802969      7395.0648      305.78865      8001.4816      1.2562088      0.72847121   
     42300  -4787.6229     -4826.9572      39.334323      7955.3335      302.18825      7988.3698      1.2582707      0.72847121   
     42400  -4787.1677     -4827.063       39.89534       8956.9441      306.4983       7987.7728      1.2583647      0.72847121   
     42500  -4787.3985     -4826.4037      39.005199      4022.8865      299.65973      7999.9689      1.2564463      0.72847121   
     42600  -4787.0402     -4827.5682      40.52799       4164.7948      311.35866      8019.9951      1.253309       0.72847121   
     42700  -4785.5923     -4825.6724      40.080143      3441.1888      307.91805      8048.4605      1.2488763      0.72847121   
     42800  -4785.8717     -4825.7529      39.881226      5306.4708      306.38986      8087.1999      1.2428939      0.72847121   
     42900  -4784.6131     -4825.5784      40.965369      3784.3194      314.71885      8130.7416      1.236238       0.72847121   
     43000  -4785.6993     -4825.1861      39.486823      2296.5509      303.35983      8170.7749      1.230181       0.80884079   
     43100  -4786.5504     -4825.3176      38.767232     -907.35941      297.83154      8199.6033      1.2258559      0.80884079   
     43200  -4785.3403     -4825.7287      40.388437      160.90358      310.28654      8207.1502      1.2247286      0.80884079   
     43300  -4785.9781     -4824.0676      38.089488      778.92391      292.62473      8189.7357      1.2273329      0.80884079   
     43400  -4785.9847     -4824.113       38.128288      2198.9503      292.92281      8147.9401      1.2336286      0.80884079   
     43500  -4785.6174     -4825.7343      40.116917      2460.1895      308.20058      8090.3071      1.2424166      0.80884079   
     43600  -4784.2535     -4823.6815      39.428086      5841.2749      302.90859      8033.6773      1.2511744      0.80884079   
     43700  -4783.486      -4826.3502      42.864221      7956.439       329.3069       7990.1071      1.2579971      0.80884079   
     43800  -4783.7558     -4825.5014      41.745577      10949.126      320.71285      7962.6896      1.2623287      0.80884079   
     43900  -4787.1227     -4826.4001      39.277356      4069.6113      301.75059      7958.0028      1.2630721      0.80884079   
     44000  -4785.3773     -4825.7761      40.398836      4775.5303      310.36643      7969.2372      1.2612916      0.71626309   
     44100  -4786.6742     -4828.0029      41.32863       3459.3283      317.50963      7993.044       1.2575349      0.71626309   
     44200  -4786.3248     -4827.142       40.817132      5953.7286      313.58002      8024.6511      1.2525818      0.71626309   
     44300  -4787.5876     -4827.0033      39.415609      4471.8958      302.81273      8062.2401      1.2467418      0.71626309   
     44400  -4788.3052     -4827.053       38.747857      4408.8929      297.68269      8105.4927      1.2400889      0.71626309   
     44500  -4788.4591     -4826.0763      37.617155      5354.8607      288.996        8148.2959      1.2335747      0.71626309   
     44600  -4788.1075     -4827.0575      38.949936      2409.3641      299.23517      8177.2647      1.2292046      0.71626309   
     44700  -4789.2049     -4826.6501      37.44524      -46.713498      287.67525      8182.3319      1.2284434      0.71626309   
     44800  -4788.3966     -4826.4242      38.027627     -17.555382      292.14948      8167.8079      1.2306278      0.71626309   
     44900  -4788.4568     -4827.7009      39.244175      303.93682      301.49568      8132.4771      1.2359742      0.71626309   
     45000  -4789.5593     -4828.1818      38.622478      3512.3605      296.71945      8083.1038      1.2435238      0.69458632   
     45100  -4789.508      -4828.3815      38.873441      5882.4004      298.64749      8032.3584      1.2513799      0.69458632   
     45200  -4790.0856     -4829.1443      39.058765      7372.1783      300.07125      7989.091       1.2581571      0.69458632   
     45300  -4787.3469     -4827.5924      40.245534      5588.0865      309.18868      7960.4729      1.2626802      0.69458632   
     45400  -4786.9211     -4826.1366      39.2155        6768.4971      301.27538      7956.9138      1.263245       0.69458632   
     45500  -4787.1636     -4826.3669      39.203321      5878.6162      301.18182      7977.2843      1.2600192      0.69458632   
     45600  -4787.8722     -4827.8452      39.972946      5970.3852      307.09451      8013.1965      1.2543723      0.69458632   
     45700  -4788.1564     -4828.3567      40.200225      1050.5388      308.84059      8056.9748      1.2475566      0.69458632   
     45800  -4789.5799     -4827.3025      37.722575      5734.9141      289.8059       8093.3556      1.2419486      0.69458632   
     45900  -4789.6484     -4829.2621      39.613702      6699.8875      304.33459      8115.9548      1.2384903      0.69458632   
     46000  -4787.9937     -4826.4333      38.439602      1910.6315      295.3145       8123.1526      1.2373929      0.83885817   
     46100  -4787.2414     -4826.3913      39.149929      1715.2609      300.77163      8122.6918      1.2374631      0.83885817   
     46200  -4786.9279     -4827.1073      40.179401      5184.1264      308.68061      8113.6854      1.2388368      0.83885817   
     46300  -4786.0134     -4826.8356      40.822166      7150.5531      313.61869      8097.0079      1.2413884      0.83885817   
     46400  -4788.7984     -4826.7232      37.924808      5526.5813      291.35956      8078.6514      1.2442091      0.83885817   
     46500  -4787.9554     -4827.9082      39.952827      4843.2142      306.93994      8057.3932      1.2474918      0.83885817   
     46600  -4788.5669     -4825.8456      37.278786      4332.0493      286.39646      8034.1215      1.2511053      0.83885817   
     46700  -4787.5363     -4826.7585      39.222237      7461.6444      301.32714      8014.0371      1.2542407      0.83885817   
     46800  -4787.6755     -4826.7621      39.086627      7650.2452      300.28531      8006.8378      1.2553685      0.83885817   
     46900  -4786.8862     -4827.4334      40.547142      2909.236       311.5058       8013.7599      1.2542841      0.83885817   
     47000  -4787.8139     -4826.4115      38.597608      3048.5746      296.52839      8034.0921      1.2511098      0.77904745   
     47100  -4788.6558     -4827.8211      39.165293      1376.7713      300.88966      8062.2466      1.2467408      0.77904745   
     47200  -4789.6959     -4827.4765      37.780561     -535.57269      290.25138      8088.0897      1.2427572      0.77904745   
     47300  -4789.4677     -4827.582       38.11434      -1198.761       292.81566      8103.7864      1.24035        0.77904745   
     47400  -4788.491      -4826.5754      38.084394      3407.1956      292.5856       8104.7923      1.2401961      0.77904745   
     47500  -4788.7189     -4827.572       38.853129      5243.7396      298.49145      8101.835       1.2406488      0.77904745   
     47600  -4788.3875     -4828.3175      39.929951      1240.9192      306.7642       8096.5738      1.241455       0.77904745   
     47700  -4789.6981     -4826.8462      37.148105      2825.8911      285.3925       8084.7031      1.2432778      0.77904745   
     47800  -4790.2507     -4828.2858      38.035064      4054.7486      292.20662      8064.319       1.2464204      0.77904745   
     47900  -4791.1553     -4827.9903      36.834924      3592.5426      282.98647      8032.249       1.2513969      0.77904745   
     48000  -4790.2842     -4827.8212      37.536958      6324.8039      288.37989      7995.8888      1.2570875      0.77179363   
     48100  -4791.26       -4828.9141      37.654101      5924.1721      289.27984      7966.2227      1.2617689      0.77179363   
     48200  -4790.5199     -4828.7995      38.279559      8723.9648      294.08496      7950.3659      1.2642854      0.77179363   
     48300  -4791.0724     -4828.6097      37.537297      6632.953       288.38249      7949.7914      1.2643768      0.77179363   
     48400  -4790.9886     -4828.9492      37.960601      1156.8703      291.63455      7962.6534      1.2623344      0.77179363   
     48500  -4792.0681     -4829.6319      37.563761      3195.1348      288.5858       7986.5845      1.258552       0.77179363   
     48600  -4792.945      -4829.0683      36.123343      4173.4566      277.51971      8018.7904      1.2534972      0.77179363   
     48700  -4791.4914     -4829.4242      37.932861      501.15286      291.42143      8051.8237      1.2483547      0.77179363   
     48800  -4790.3158     -4827.9466      37.63084       4318.6989      289.10114      8076.4234      1.2445524      0.77179363   
     48900  -4789.6679     -4827.5977      37.929834     -18.692217      291.39818      8090.0245      1.24246        0.77179363   
     49000  -4789.2835     -4827.4263      38.142741     -2.8816262      293.03385      8088.6495      1.2426712      0.74999662   
     49100  -4789.3839     -4828.592       39.208063      5516.5108      301.21825      8077.0899      1.2444497      0.74999662   
     49200  -4787.317      -4826.4334      39.116439      1727.5576      300.51434      8059.9846      1.2470907      0.74999662   
     49300  -4788.1132     -4826.4881      38.374956      230.81357      294.81786      8042.7024      1.2497704      0.74999662   
     49400  -4788.1757     -4827.1851      39.009379      7340.6832      299.69185      8023.4374      1.2527712      0.74999662   
     49500  -4788.5934     -4825.5935      37.000103      10123.343      284.25547      8004.9097      1.2556708      0.74999662   
     49600  -4788.0143     -4827.003       38.98872       4716.3566      299.53313      7995.342       1.2571734      0.74999662   
     49700  -4788.794      -4827.8031      39.009098      3110.6857      299.68969      7996.0888      1.257056       0.74999662   
     49800  -4789.1784     -4828.6053      39.426871      4938.2969      302.89925      8005.5575      1.2555692      0.74999662   
     49900  -4789.8682     -4827.8557      37.987513      5505.8606      291.8413       8020.0852      1.2532949      0.74999662   
     50000  -4789.8944     -4827.6015      37.707045      2728.7467      289.68659      8039.2022      1.2503146      0.68806978   
     50100  -4790.7504     -4829.0948      38.344317      4515.8988      294.58247      8059.8283      1.2471149      0.68806978   
     50200  -4791.6778     -4828.5703      36.892563      2552.9442      283.42928      8079.1029      1.2441396      0.68806978   
     50300  -4789.7095     -4827.2467      37.537168      1188.0192      288.3815       8091.9342      1.2421668      0.68806978   
     50400  -4788.0813     -4827.246       39.164658      1400.108       300.88478      8094.0871      1.2418364      0.68806978   
     50500  -4788.3358     -4826.972       38.636244      3831.5971      296.82521      8085.1415      1.2432104      0.68806978   
     50600  -4785.8261     -4825.7594      39.933307      2252.481       306.78998      8076.8649      1.2444843      0.68806978   
     50700  -4787.4247     -4826.5448      39.120086      4317.5288      300.54236      8074.0497      1.2449182      0.68806978   
     50800  -4787.4748     -4825.6788      38.203965      3973.3073      293.50421      8072.5061      1.2451563      0.68806978   
     50900  -4787.9566     -4826.3714      38.414773      3236.2589      295.12375      8074.7123      1.2448161      0.68806978   
     51000  -4788.0772     -4827.8707      39.793509      3039.8231      305.71597      8078.7239      1.244198       0.72987939   
     51100  -4788.6164     -4826.85        38.233585      5652.5871      293.73176      8083.1328      1.2435193      0.72987939   
     51200  -4790.1288     -4828.4714      38.342629      3043.2343      294.5695       8082.4412      1.2436257      0.72987939   
     51300  -4790.2269     -4828.084       37.857115      6775.5382      290.83951      8078.3233      1.2442597      0.72987939   
     51400  -4789.4545     -4829.173       39.718433      4652.34        305.1392       8072.814       1.2451088      0.72987939   
     51500  -4789.3385     -4828.7747      39.436272      4762.8194      302.97148      8061.3793      1.2468749      0.72987939   
     51600  -4790.417      -4827.9764      37.559391      5059.3684      288.55222      8046.7712      1.2491385      0.72987939   
     51700  -4791.2715     -4829.2963      38.024792      6316.4346      292.1277       8032.48        1.2513609      0.72987939   
     51800  -4791.6375     -4827.9086      36.271076      2975.5923      278.65467      8024.7555      1.2525655      0.72987939   
     51900  -4792.6813     -4830.3309      37.649657      6885.9045      289.2457       8022.6454      1.2528949      0.72987939   
     52000  -4792.0348     -4830.4511      38.416334      6433.8796      295.13574      8020.4652      1.2532355      0.71461097   
     52100  -4791.4713     -4827.4244      35.953088      9350.112       276.21171      8020.0257      1.2533042      0.71461097   
     52200  -4789.9126     -4828.608       38.695476      4147.4463      297.28027      8021.1642      1.2531263      0.71461097   
     52300  -4789.0279     -4827.1821      38.154192      4368.5671      293.12183      8027.1239      1.2521959      0.71461097   
     52400  -4786.4613     -4827.5602      41.098907      4593.3233      315.74477      8042.3308      1.2498282      0.71461097   
     52500  -4785.4201     -4824.5792      39.159097      5547.9055      300.84206      8065.7727      1.2461958      0.71461097   
     52600  -4784.7259     -4824.7898      40.06394       6380.2854      307.79357      8093.2625      1.2419629      0.71461097   
     52700  -4785.4944     -4825.8809      40.386539      3954.035       310.27196      8122.9058      1.2374305      0.71461097   
     52800  -4786.0629     -4827.0809      41.017994      3111.2464      315.12315      8148.9233      1.2334797      0.71461097   
     52900  -4786.0013     -4826.085       40.083737      1829.5629      307.94567      8166.0519      1.2308925      0.71461097   
     53000  -4786.5092     -4823.9327      37.423575     -3293.5006      287.50881      8167.5499      1.2306667      0.74867574   
     53100  -4788.1116     -4826.9952      38.883628      3515.6635      298.72576      8155.0087      1.2325593      0.74867574   
     53200  -4788.5947     -4827.2074      38.612682      7970.8735      296.6442       8126.8562      1.236829       0.74867574   
     53300  -4789.3256     -4827.5277      38.202038      5924.3977      293.4894       8088.9252      1.2426288      0.74867574   
     53400  -4790.1583     -4829.3347      39.176348      2876.5902      300.9746       8044.403       1.2495062      0.74867574   
     53500  -4789.031      -4826.2509      37.219918      7720.7995      285.94421      7997.1137      1.2568949      0.74867574   
     53600  -4788.7719     -4827.8736      39.101702      8094.4424      300.40112      7961.5558      1.2625085      0.74867574   
     53700  -4789.0774     -4828.2718      39.194393      4916.9683      301.11323      7944.2829      1.2652535      0.74867574   
     53800  -4788.1424     -4827.6546      39.51221       4091.377       303.55488      7948.8738      1.2645227      0.74867574   
     53900  -4787.0199     -4825.5449      38.525004      6163.0069      295.97061      7971.8614      1.2608764      0.74867574   
     54000  -4787.6301     -4827.8613      40.231124      7089.3456      309.07798      8011.0829      1.2547032      0.72751831   
     54100  -4787.6527     -4825.3462      37.693498      6929.8094      289.58251      8056.5155      1.2476277      0.72751831   
     54200  -4788.2678     -4827.3334      39.065543      4642.4209      300.12333      8100.8477      1.2408         0.72751831   
     54300  -4788.9392     -4827.537       38.597849      3630.4547      296.53025      8131.9884      1.2360485      0.72751831   
     54400  -4788.4732     -4827.0579      38.584712      3389.1543      296.42932      8149.7569      1.2333536      0.72751831   
     54500  -4786.2322     -4825.7559      39.523667      4341.5049      303.64289      8154.202       1.2326812      0.72751831   
     54600  -4786.888      -4827.6564      40.768399      960.14425      313.20562      8148.0836      1.2336068      0.72751831   
     54700  -4786.6355     -4826.8343      40.198763      636.10886      308.82936      8129.7019      1.2363961      0.72751831   
     54800  -4787.921      -4826.9977      39.076712      5825.3886      300.20914      8104.9685      1.2401691      0.72751831   
     54900  -4788.4641     -4826.6649      38.20075       3057.5403      293.47951      8072.91        1.245094       0.72751831   
     55000  -4787.8272     -4827.9204      40.093232      3779.542       308.01861      8036.8204      1.2506851      0.77910005   
     55100  -4788.2467     -4826.8202      38.573491      6983.8884      296.34311      8003.4423      1.2559011      0.77910005   
     55200  -4786.8542     -4826.09        39.235764      8115.4013      301.43106      7982.8774      1.2591364      0.77910005   
     55300  -4787.7683     -4828.6581      40.889777      5435.1705      314.13812      7979.0596      1.2597389      0.77910005   
     55400  -4788.166      -4828.555       40.388941      4975.3029      310.29041      7989.9407      1.2580233      0.77910005   
     55500  -4788.075      -4828.1899      40.114928      3847.7013      308.1853       8010.8148      1.2547452      0.77910005   
     55600  -4787.368      -4825.3249      37.956861      6464.182       291.60581      8034.3891      1.2510636      0.77910005   
     55700  -4785.9833     -4824.7856      38.802232      1877.5335      298.10043      8059.6983      1.247135       0.77910005   
     55800  -4786.4208     -4825.1356      38.714809      1828.7048      297.42879      8084.3937      1.2433254      0.77910005   
     55900  -4787.9931     -4826.0772      38.084129      3021.0931      292.58356      8111.1337      1.2392265      0.77910005   
     56000  -4788.7533     -4828.3415      39.58815       782.99998      304.13829      8134.2478      1.2357051      0.72995583   
     56100  -4790.0039     -4828.0889      38.084981      1119.7789      292.59011      8143.0737      1.2343658      0.72995583   
     56200  -4789.3673     -4828.052       38.684683      3185.8966      297.19735      8134.9792      1.235594       0.72995583   
     56300  -4788.9371     -4827.2528      38.315674      1053.0165      294.36242      8106.2712      1.2399698      0.72995583   
     56400  -4789.989      -4828.6694      38.680353      1399.4393      297.16408      8059.022       1.2472396      0.72995583   
     56500  -4789.1406     -4827.4849      38.344278      4101.153       294.58217      8003.5343      1.2558866      0.72995583   
     56600  -4788.3265     -4828.6398      40.313336      5122.6729      309.70958      7953.767       1.2637448      0.72995583   
     56700  -4788.1838     -4827.4726      39.28878       6224.4052      301.83836      7922.0315      1.2688073      0.72995583   
     56800  -4786.504      -4826.4651      39.961116      8916.2367      307.00362      7916.8654      1.2696353      0.72995583   
     56900  -4787.9759     -4827.3752      39.399249      9857.7985      302.68704      7941.2005      1.2657446      0.72995583   
     57000  -4787.808      -4828.0015      40.193477      7210.7967      308.78875      7988.715       1.2582163      0.78690624   
     57100  -4788.631      -4827.3943      38.76334       6812.4325      297.80164      8049.2972      1.2487465      0.78690624   
     57200  -4788.2246     -4826.7058      38.481174      590.23859      295.63388      8107.5228      1.2397784      0.78690624   
[...]
    386300  -4788.3839     -4827.4626      39.078769      5890.4886      300.22494      8104.6564      1.2402169      0.69075835   
    386400  -4788.4569     -4827.5589      39.102024      6127.7174      300.4036       8064.2483      1.2464313      0.69075835   
    386500  -4788.2139     -4826.4149      38.20104       644.64056      293.48174      8022.5502      1.2529098      0.69075835   
    386600  -4788.4844     -4828.4614      39.976973      3506.1964      307.12544      7987.1456      1.2584636      0.69075835   
    386700  -4787.988      -4826.282       38.294014      7442.287       294.19601      7964.8433      1.2619874      0.69075835   
    386800  -4787.44       -4827.0021      39.562121      7062.6761      303.93832      7962.6087      1.2623415      0.69075835   
    386900  -4787.9066     -4827.5529      39.64629       2247.1642      304.58495      7976.3162      1.2601722      0.69075835   
    387000  -4788.273      -4827.0527      38.779693      3216.4563      297.92727      8002.7557      1.2560088      0.7177767    
    387100  -4788.1214     -4827.3802      39.258852      5377.8632      301.60843      8038.7437      1.2503859      0.7177767    
    387200  -4786.4298     -4826.0876      39.657866      6065.4118      304.67389      8078.3429      1.2442566      0.7177767    
    387300  -4787.3973     -4826.6081      39.210782     -237.16071      301.23914      8117.1252      1.2383118      0.7177767    
    387400  -4786.0723     -4826.5155      40.443214      1725.8107      310.70737      8140.6811      1.2347286      0.7177767    
    387500  -4784.4627     -4824.7236      40.260876     -3048.2053      309.30654      8147.7885      1.2336515      0.7177767    
    387600  -4784.4012     -4823.8566      39.455418      695.11809      303.11857      8143.3591      1.2343225      0.7177767    
    387700  -4784.3491     -4825.8456      41.496531      4117.0176      318.79954      8128.1172      1.2366372      0.7177767    
    387800  -4784.8253     -4826.2347      41.409459      3745.0391      318.1306       8103.7011      1.2403631      0.7177767    
    387900  -4785.9228     -4827.4755      41.552674      1045.8392      319.23086      8073.6777      1.2449756      0.7177767    
    388000  -4787.3584     -4825.8353      38.476926      2475.5519      295.60125      8046.7936      1.249135       0.69459859   
    388100  -4785.8678     -4827.1147      41.246964      6096.3492      316.88223      8020.0976      1.2532929      0.69459859   
    388200  -4786.2802     -4826.6525      40.372223      5561.903       310.16198      8000.9409      1.2562937      0.69459859   
    388300  -4786.6107     -4825.5945      38.983776      4003.5832      299.49515      7997.4899      1.2568358      0.69459859   
    388400  -4787.2129     -4826.5182      39.30525       3008.0041      301.96489      8007.9999      1.2551863      0.69459859   
    388500  -4786.6646     -4826.2422      39.577609      2660.7883      304.05731      8025.9953      1.252372       0.69459859   
    388600  -4787.0131     -4826.8176      39.804505      3018.2835      305.80045      8051.1422      1.2484603      0.69459859   
    388700  -4788.4116     -4827.6407      39.229075      3522.3388      301.37967      8077.7435      1.244349       0.69459859   
    388800  -4787.3529     -4826.6378      39.284831      5457.4323      301.80802      8100.4226      1.2408651      0.69459859   
    388900  -4788.404      -4828.4129      40.008862      2625.6176      307.37043      8116.5556      1.2383987      0.69459859   
    389000  -4787.9352     -4828.1057      40.170507      2355.9386      308.61228      8115.7565      1.2385206      0.72877241   
    389100  -4787.3621     -4826.0895      38.727404      2378.4004      297.52556      8102.1368      1.2406026      0.72877241   
    389200  -4786.9695     -4826.7313      39.761803      5683.1472      305.47239      8083.2997      1.2434936      0.72877241   
    389300  -4786.5274     -4827.4515      40.924098      6388.1255      314.40179      8064.5415      1.246386       0.72877241   
    389400  -4787.8994     -4826.5982      38.698792      3692.3114      297.30574      8050.8097      1.2485119      0.72877241   
    389500  -4788.9766     -4828.1495      39.17289       2889.7836      300.94803      8042.6169      1.2497837      0.72877241   
    389600  -4787.7932     -4826.7702      38.977053      3543.6971      299.4435       8035.7093      1.2508581      0.72877241   
    389700  -4786.9673     -4827.4663      40.499005      5001.9712      311.13599      8027.8202      1.2520873      0.72877241   
    389800  -4785.932      -4825.0678      39.13576       5427.5585      300.66277      8024.6952      1.2525749      0.72877241   
    389900  -4786.295      -4825.3226      39.02757       8860.7288      299.8316       8036.4433      1.2507438      0.72877241   
    390000  -4786.6958     -4825.6694      38.973569      5779.0317      299.41674      8059.8798      1.2471069      0.76837933   
    390100  -4787.3165     -4826.7436      39.427056      3593.7908      302.90067      8087.8456      1.2427947      0.76837933   
    390200  -4787.2694     -4826.1151      38.845747      3605.3166      298.43473      8111.8483      1.2391173      0.76837933   
    390300  -4786.3246     -4825.7952      39.470555      2958.7642      303.23486      8127.3597      1.2367524      0.76837933   
    390400  -4787.0774     -4826.8599      39.782479      3668.4927      305.63124      8135.7019      1.2354843      0.76837933   
    390500  -4787.1454     -4827.3846      40.239146      2003.0665      309.13961      8135.7555      1.2354761      0.76837933   
    390600  -4787.6574     -4826.0268      38.369433      4545.7389      294.77542      8127.0679      1.2367968      0.76837933   
    390700  -4786.3502     -4826.1743      39.824147      3915.8482      305.95135      8111.8555      1.2391162      0.76837933   
    390800  -4788.6802     -4826.9821      38.30194       3691.1481      294.2569       8095.0872      1.2416829      0.76837933   
    390900  -4787.7833     -4827.0837      39.30046       4178.1442      301.9281       8077.9357      1.2443193      0.76837933   
    391000  -4788.3597     -4828.1712      39.811487      3234.7569      305.85409      8058.2113      1.2473651      0.69718566   
    391100  -4788.6013     -4826.5852      37.983917      6719.4798      291.81367      8042.9015      1.2497395      0.69718566   
    391200  -4788.6661     -4827.9336      39.267541      8822.4507      301.67519      8035.8098      1.2508424      0.69718566   
    391300  -4788.3555     -4828.6831      40.327596      6911.4486      309.81913      8034.5441      1.2510395      0.69718566   
    391400  -4788.9562     -4828.3643      39.408142      5943.724       302.75536      8039.9724      1.2501948      0.69718566   
    391500  -4788.5511     -4826.9881      38.43704       1068.3181      295.29482      8054.3876      1.2479573      0.69718566   
    391600  -4789.337      -4827.0214      37.684393      978.77384      289.51257      8072.3132      1.245186       0.69718566   
    391700  -4789.4168     -4828.2158      38.798933      2717.6118      298.07508      8087.135       1.2429039      0.69718566   
    391800  -4789.5535     -4827.8743      38.320837      4469.6069      294.40208      8094.8051      1.2417262      0.69718566   
    391900  -4789.432      -4826.2182      36.786132      3767.4698      282.61162      8096.4638      1.2414718      0.69718566   
    392000  -4790.434      -4827.7866      37.352651      1688.7752      286.96394      8099.0703      1.2410723      0.74535879   
    392100  -4788.6331     -4828.1281      39.49503       220.14108      303.42289      8098.1492      1.2412134      0.74535879   
    392200  -4787.8283     -4827.3818      39.553584      4599.1847      303.87273      8097.2933      1.2413447      0.74535879   
    392300  -4788.4262     -4826.4416      38.015407      6680.9542      292.0556       8092.0208      1.2421535      0.74535879   
    392400  -4788.2082     -4827.0601      38.851879      5454.462       298.48184      8083.2597      1.2434998      0.74535879   
    392500  -4789.0228     -4828.0861      39.063297      3309.8016      300.10608      8068.8578      1.2457193      0.74535879   
    392600  -4788.2563     -4827.8945      39.638228      2286.9758      304.52301      8051.907       1.2483417      0.74535879   
    392700  -4788.3343     -4826.5087      38.174421      3816.9603      293.27723      8036.9367      1.250667       0.74535879   
    392800  -4788.9908     -4827.9207      38.929969      4607.5994      299.08178      8031.1009      1.2515758      0.74535879   
    392900  -4789.0156     -4827.2684      38.252792      3036.2854      293.87932      8031.4532      1.2515209      0.74535879   
    393000  -4790.1521     -4827.5036      37.351506      3209.7826      286.95514      8038.7647      1.2503826      0.78114309   
    393100  -4789.5356     -4828.6663      39.13074       3983.432       300.62421      8048.6796      1.2488423      0.78114309   
    393200  -4789.2038     -4827.6939      38.490069      741.10119      295.70222      8061.8127      1.2468079      0.78114309   
    393300  -4789.2787     -4827.4214      38.142727      1626.2205      293.03374      8073.3415      1.2450274      0.78114309   
    393400  -4789.1202     -4826.8152      37.694949      5524.5952      289.59366      8080.5737      1.2439131      0.78114309   
    393500  -4788.6963     -4828.7836      40.087333      6583.3318      307.97329      8085.6516      1.2431319      0.78114309   
    393600  -4790.7432     -4827.9363      37.193094      7809.8719      285.73813      8085.5401      1.2431491      0.78114309   
    393700  -4790.6025     -4829.2062      38.603633      4227.2499      296.57468      8076.2631      1.2445771      0.78114309   
    393800  -4790.4892     -4827.8984      37.409186      3992.4617      287.39827      8059.8142      1.247117       0.78114309   
    393900  -4790.0356     -4828.2378      38.202249      4266.6023      293.49102      8040.2562      1.2501507      0.78114309   
    394000  -4789.0388     -4827.3982      38.359448      5421.1445      294.69872      8023.0997      1.252824       0.74655375   
    394100  -4789.5521     -4828.2105      38.658386      3984.3768      296.99532      8011.8065      1.2545899      0.74655375   
    394200  -4788.5361     -4828.4676      39.9315        3540.8657      306.7761       8009.8586      1.254895       0.74655375   
    394300  -4788.8686     -4825.9515      37.082953      4980.8758      284.89196      8016.8964      1.2537934      0.74655375   
    394400  -4789.3336     -4829.4351      40.101496      1260.9347      308.0821       8036.2182      1.2507788      0.74655375   
    394500  -4789.6241     -4828.1338      38.50967       2626.2982      295.8528       8057.0165      1.2475501      0.74655375   
    394600  -4789.4173     -4826.1192      36.701853      4317.0336      281.96415      8077.4414      1.2443955      0.74655375   
    394700  -4790.592      -4827.5729      36.980873      3319.396       284.10773      8094.4547      1.24178        0.74655375   
    394800  -4789.5945     -4828.5699      38.975378      3483.3947      299.43063      8100.5995      1.240838       0.74655375   
    394900  -4787.1947     -4827.014       39.819303      1835.4913      305.91414      8092.7368      1.2420436      0.74655375   
    395000  -4788.7526     -4827.0256      38.273022      3537.9131      294.03474      8075.2823      1.2447282      0.75121699   
    395100  -4788.2873     -4827.6893      39.40195       4935.2478      302.70779      8056.0821      1.2476948      0.75121699   
    395200  -4787.7354     -4827.2657      39.530221      3299.3969      303.69325      8038.8847      1.250364       0.75121699   
    395300  -4786.7181     -4826.3381      39.620083      5858.4602      304.38361      8027.2338      1.2521788      0.75121699   
    395400  -4784.9996     -4826.8969      41.89722       4621.1544      321.87786      8025.9201      1.2523837      0.75121699   
    395500  -4786.4573     -4826.217       39.75968       5139.7367      305.45608      8032.8         1.2513111      0.75121699   
    395600  -4785.7781     -4825.7128      39.934761      3799.5888      306.80114      8047.9416      1.2489568      0.75121699   
    395700  -4786.6513     -4824.4293      37.777963      1531.2016      290.23142      8067.1596      1.2459815      0.75121699   
    395800  -4787.5432     -4826.4276      38.884343      4012.6915      298.73125      8087.5757      1.2428362      0.75121699   
    395900  -4788.3213     -4827.6496      39.328279      2903.1334      302.14181      8105.0563      1.2401557      0.75121699   
    396000  -4787.3606     -4826.5184      39.157738      2635.9416      300.83162      8113.8546      1.2388109      0.69342809   
    396100  -4786.264      -4824.1435      37.87952       4762.9829      291.01164      8113.1271      1.238922       0.69342809   
    396200  -4787.3947     -4828.7324      41.337684      3097.5119      317.57918      8106.6367      1.2399139      0.69342809   
    396300  -4788.0817     -4827.0887      39.007051      3353.2786      299.67396      8090.2319      1.2424281      0.69342809   
    396400  -4788.2042     -4826.71        38.505786      1812.3287      295.82296      8067.7431      1.2458914      0.69342809   
    396500  -4787.9242     -4826.3275      38.403237      3134.9617      295.03513      8044.4308      1.2495019      0.69342809   
    396600  -4788.483      -4826.9961      38.513117      2988.7556      295.87929      8024.052       1.2526753      0.69342809   
    396700  -4788.1461     -4828.6602      40.514116      1391.1956      311.25208      8006.9155      1.2553563      0.69342809   
    396800  -4787.046      -4826.6828      39.636788      2789.6631      304.51195      7996.5173      1.2569887      0.69342809   
    396900  -4788.5367     -4827.7763      39.239694      7510.2373      301.46126      7993.1712      1.2575149      0.69342809   
    397000  -4788.6071     -4827.1462      38.539067      2882.4847      296.07864      7999.982       1.2564443      0.78212315   
    397100  -4788.1323     -4827.7825      39.650245      1746.5236      304.61534      8016.8229      1.2538049      0.78212315   
    397200  -4788.2249     -4827.9712      39.746286      916.31808      305.35318      8035.8548      1.2508354      0.78212315   
    397300  -4788.2197     -4827.6239      39.404229      4199.0444      302.72531      8049.932       1.248648       0.78212315   
    397400  -4787.8027     -4827.4088      39.606026      5756.3742      304.27562      8060.3877      1.2470283      0.78212315   
    397500  -4787.0648     -4825.6947      38.629849      4134.9503      296.77609      8069.6212      1.2456014      0.78212315   
    397600  -4788.7364     -4827.2521      38.515646      1633.2243      295.89872      8075.8334      1.2446433      0.78212315   
    397700  -4790.2058     -4827.9352      37.72938       1040.8234      289.85818      8073.5206      1.2449998      0.78212315   
    397800  -4789.1111     -4829.1791      40.068031      5613.1485      307.825        8060.4032      1.2470259      0.78212315   
    397900  -4787.9408     -4826.3025      38.361779      4599.2233      294.71662      8039.839       1.2502155      0.78212315   
    398000  -4788.2968     -4827.1682      38.871342      3344.2417      298.63137      8020.3025      1.2532609      0.78103443   
    398100  -4787.7614     -4827.8339      40.072486      5436.1453      307.85923      8003.2054      1.2559382      0.78103443   
    398200  -4788.4857     -4827.9798      39.494137      6527.9648      303.41603      7991.2851      1.2578117      0.78103443   
    398300  -4788.2835     -4828.3257      40.042133      7875.9387      307.62604      7986.9278      1.2584979      0.78103443   
    398400  -4788.4195     -4827.0965      38.676997      5545.7027      297.1383       7990.9245      1.2578684      0.78103443   
    398500  -4787.2322     -4828.2019      40.969649      2629.538       314.75173      7999.9355      1.2564516      0.78103443   
    398600  -4787.7226     -4826.3299      38.607346      3431.2575      296.60321      8012.8659      1.2544241      0.78103443   
    398700  -4788.0936     -4827.6103      39.516659      4300.0543      303.58906      8032.6959      1.2513273      0.78103443   
    398800  -4788.4525     -4828.3795      39.927045      2036.3251      306.74187      8058.4754      1.2473242      0.78103443   
    398900  -4789.0606     -4826.962       37.901449      3132.221       291.18011      8083.2865      1.2434957      0.78103443   
    399000  -4789.3319     -4827.8842      38.55237       1199.1209      296.18085      8100.2003      1.2408991      0.70433691   
    399100  -4787.6143     -4827.0036      39.389327      3897.0714      302.61082      8105.0707      1.2401535      0.70433691   
    399200  -4788.3367     -4827.3305      38.9938        4383.9112      299.57216      8098.1583      1.2412121      0.70433691   
    399300  -4787.8007     -4826.9716      39.170908      3273.6073      300.9328       8080.2679      1.2439602      0.70433691   
    399400  -4787.7456     -4828.2447      40.499091      3835.1418      311.13665      8057.7391      1.2474382      0.70433691   
    399500  -4786.9395     -4827.3193      40.379812      6019.5799      310.22027      8035.3585      1.2509127      0.70433691   
    399600  -4786.1258     -4827.26        41.134218      7016.4938      316.01605      8021.7228      1.253039       0.70433691   
    399700  -4786.7065     -4825.7768      39.07031       2786.6326      300.15995      8016.709       1.2538227      0.70433691   
    399800  -4788.9491     -4827.4165      38.467404      298.19957      295.52809      8019.3087      1.2534162      0.70433691   
    399900  -4788.6294     -4827.7398      39.110398      2847.9292      300.46793      8025.1694      1.2525009      0.70433691   
    400000  -4788.1474     -4827.9391      39.791604      5349.8197      305.70134      8034.6558      1.2510221      0.75190745   
    400100  -4787.6599     -4827.034       39.374129      4192.9515      302.49406      8048.0763      1.2489359      0.75190745   
    400200  -4788.3084     -4826.8149      38.506516      6662.7046      295.82857      8064.8862      1.2463327      0.75190745   
    400300  -4789.2658     -4827.6226      38.356817      4095.8028      294.6785       8083.36        1.2434844      0.75190745   
    400303  -4789.3459     -4827.1636      37.817715      6078.6283      290.53682      8083.8616      1.2434072      0.75190745   
Loop time of 546.441 on 2 procs for 200000 steps with 1008 atoms

Performance: 15.811 ns/day, 1.518 hours/ns, 366.005 timesteps/s, 368.933 katom-step/s
99.5% CPU use with 2 MPI tasks x 1 OpenMP threads

MPI task timing breakdown:
Section |  min time  |  avg time  |  max time  |%varavg| %total
---------------------------------------------------------------
Pair    | 298.09     | 300.77     | 303.44     |  15.4 | 55.04
Neigh   | 7.8389     | 7.9308     | 8.0227     |   3.3 |  1.45
Comm    | 41.478     | 45.881     | 50.285     |  65.0 |  8.40
Output  | 0.3022     | 0.30512    | 0.30804    |   0.5 |  0.06
Modify  | 187.51     | 189.16     | 190.82     |  12.0 | 34.62
Other   |            | 2.394      |            |       |  0.44

Nlocal:            504 ave         508 max         500 min
Histogram: 1 0 0 0 0 0 0 0 0 1
Nghost:         2665.5 ave        2666 max        2665 min
Histogram: 1 0 0 0 0 0 0 0 0 1
Neighs:              0 ave           0 max           0 min
Histogram: 2 0 0 0 0 0 0 0 0 0
FullNghs:        72796 ave       73724 max       71868 min
Histogram: 1 0 0 0 0 0 0 0 0 1

Total # of neighbors = 145592
Ave neighs/atom = 144.43651
Neighbor list builds = 19984
Dangerous builds = 19904
Total wall time: 0:18:11
