LAMMPS (7 Feb 2024 - Update 1)
KOKKOS mode with Kokkos version 4.2.0 is enabled (src/KOKKOS/kokkos.cpp:72)
  will use up to 4 GPU(s) per node
  using 1 OpenMP thread(s) per MPI task
Reading data file ...
  triclinic box = (0 0 0) to (24.989956 24.989919 23.167336) with tilt (-0.22207236 -0.16357316 -0.098737559)
  2 by 2 by 1 MPI processor grid
  reading atoms ...
  1920 atoms
  read_data CPU = 0.011 seconds
ACE/AL version: 2023.11.25
Loading /home/cicn/cicn607503/pd/pot_dir/interim_potential_ladder_step_1.yaml
Total number of basis functions
	H: 23 (r=1) 664 (r>1)
	O: 23 (r=1) 664 (r>1)
Mapping LAMMPS atom type #1(H) -> ACE species type #0
Mapping LAMMPS atom type #2(O) -> ACE species type #1
Loading ASI /home/cicn/cicn607503/pd/pot_dir/interim_potential_ladder_step_1.asi
LINEAR ASI is loaded
Switching to 'neigh_modify every 1 delay 0 check yes' setting during minimization
Neighbor list info ...
  update: every = 1 steps, delay = 0 steps, check = yes
  max neighbors/atom: 2000, page size: 100000
  master list distance cutoff = 6.5
  ghost atom cutoff = 6.5
  binsize = 6.5, bins = 4 4 4
  1 neighbor lists, perpetual/occasional/extra = 1 0 0
  (1) pair pace/extrapolation/kk, perpetual
      attributes: full, newton on, kokkos_device
      pair build: full/bin/kk/device
      stencil: full/bin/3d
      bin: kk/device
Setting up cg/kk style minimization ...
  Unit style    : metal
  Current step  : 0
WARNING: Fix with atom-based arrays not compatible with sending data in Kokkos communication, switching to classic exchange/border communication (src/KOKKOS/comm_kokkos.cpp:666)
WARNING: Fix with atom-based arrays not compatible with Kokkos sorting on device, switching to classic host sorting (src/KOKKOS/atom_kokkos.cpp:218)
Per MPI rank memory allocation (min/avg/max) = 423.1 | 425.1 | 428.5 Mbytes
   Step         TotEng         PotEng         KinEng         Press           Temp          Volume        Density     c_max_pace_gamma
         0  -9257.6624     -9257.6624      0              4199.2215      0              14467.932      1.3233249      0.59040828   
       100  -9273.0754     -9273.0754      0             -8062.4723      0              14467.932      1.3233249      0.59040828   
       200  -9273.115      -9273.115       0             -8132.5793      0              14467.932      1.3233249      0.59040828   
       300  -9273.1151     -9273.1151      0             -8129.1373      0              14467.932      1.3233249      0.59040828   
       330  -9273.1151     -9273.1151      0             -8129.2551      0              14467.932      1.3233249      0.59040828   
Loop time of 1.36661 on 4 procs for 330 steps with 1920 atoms

99.7% CPU use with 4 MPI tasks x 1 OpenMP threads

Minimization stats:
  Stopping criterion = force tolerance
  Energy initial, next-to-last, final = 
     -9257.66239234842  -9273.11512032473  -9273.11512032963
  Force two-norm initial, final = 10.318152 0.00048118279
  Force max component initial, final = 0.72934274 3.9574739e-05
  Final line search alpha, max atom move = 1 3.9574739e-05
  Iterations, force evaluations = 330 660

MPI task timing breakdown:
Section |  min time  |  avg time  |  max time  |%varavg| %total
---------------------------------------------------------------
Pair    | 0.85996    | 0.8847     | 0.92984    |   2.9 | 64.74
Neigh   | 0.0020705  | 0.0022268  | 0.0024635  |   0.3 |  0.16
Comm    | 0.19759    | 0.24276    | 0.26885    |   5.6 | 17.76
Output  | 0.00045112 | 0.00045158 | 0.00045252 |   0.0 |  0.03
Modify  | 0.14737    | 0.15033    | 0.15334    |   0.6 | 11.00
Other   |            | 0.08614    |            |       |  6.30

Nlocal:            480 ave         483 max         478 min
Histogram: 1 0 1 0 1 0 0 0 0 1
Nghost:         2633.5 ave        2637 max        2632 min
Histogram: 2 0 1 0 0 0 0 0 0 1
Neighs:              0 ave           0 max           0 min
Histogram: 4 0 0 0 0 0 0 0 0 0
FullNghs:        75282 ave       75862 max       74860 min
Histogram: 1 0 0 2 0 0 0 0 0 1

Total # of neighbors = 301128
Ave neighs/atom = 156.8375
Neighbor list builds = 5
Dangerous builds = 0
Setting up Verlet run ...
  Unit style    : metal
  Current step  : 330
  Time step     : 0.0005
WARNING: Fix with atom-based arrays not compatible with sending data in Kokkos communication, switching to classic exchange/border communication (src/KOKKOS/comm_kokkos.cpp:666)
WARNING: Fix with atom-based arrays not compatible with Kokkos sorting on device, switching to classic host sorting (src/KOKKOS/atom_kokkos.cpp:218)
Per MPI rank memory allocation (min/avg/max) = 424.6 | 426.3 | 427.6 Mbytes
   Step         TotEng         PotEng         KinEng         Press           Temp          Volume        Density     c_max_pace_gamma
       330  -9186.2975     -9273.1151      86.817576     -1719.8118      350            14467.932      1.3233249      0.59040828   
       400  -9172.653      -9218.1339      45.480898     -5761.8595      183.35359      14398.351      1.3297199      0.59040828   
       500  -9152.9661     -9206.9848      54.018736      4169.0428      217.77338      14132.527      1.3547311      0.59040828   
       600  -9136.8941     -9204.1121      67.218008      9752.3442      270.98548      13821.394      1.3852275      0.59040828   
       700  -9127.9628     -9200.688       72.725218      15603.215      293.18748      13600.619      1.4077135      0.59040828   
       800  -9118.8434     -9193.925       75.081661      18839.684      302.68734      13479.681      1.4203433      0.59040828   
       900  -9112.9373     -9190.0016      77.06436       20094.261      310.68047      13443.949      1.4241184      0.59040828   
      1000  -9107.7094     -9188.3259      80.616524      23983.546      325.00082      13485.007      1.4197824      0.7375791    
      1100  -9107.1969     -9186.5503      79.353446      17924.953      319.9088       13588.13       1.4090073      0.7375791    
      1200  -9109.4575     -9189.3279      79.870378      14468.906      321.99278      13724.433      1.3950139      0.7375791    
      1300  -9109.2808     -9191.2036      81.922796      13863.19       330.26698      13855.137      1.3818539      0.7375791    
      1400  -9107.2897     -9188.3789      81.089144      15707.461      326.90616      13949.86       1.3724707      0.7375791    
      1500  -9106.3819     -9186.8633      80.481403      13318.02       324.45609      13998.375      1.3677141      0.7375791    
      1600  -9104.6785     -9186.8515      82.173046      13961.059      331.27585      14005.236      1.367044       0.7375791    
      1700  -9101.7301     -9186.0015      84.271379      12218.042      339.73515      13979.999      1.3695119      0.7375791    
      1800  -9098.0193     -9183.3193      85.299959      13640.42       343.88181      13935.94       1.3738416      0.7375791    
      1900  -9096.3488     -9183.487       87.138218      15579.021      351.29265      13886.845      1.3786987      0.7375791    
      2000  -9093.5894     -9181.7983      88.208837      13707.442      355.60879      13845.371      1.3828286      0.6767691    
      2100  -9092.3419     -9179.5724      87.230494      14184.624      351.66465      13820.621      1.3853049      0.6767691    
      2200  -9094.1694     -9181.5785      87.40901       14082.314      352.38433      13817.292      1.3856388      0.6767691    
      2300  -9096.7801     -9183.4193      86.639257      18065.505      349.28112      13833.317      1.3840336      0.6767691    
      2400  -9096.2386     -9182.7596      86.52093       17824.099      348.80409      13864.252      1.3809453      0.6767691    
      2500  -9098.052      -9183.332       85.280019      14323.228      343.80143      13902.55       1.3771412      0.6767691    
      2600  -9096.4124     -9183.4406      87.028227      14675.858      350.84923      13936.735      1.3737632      0.6767691    
      2700  -9096.1904     -9183.2962      87.105793      16143.512      351.16193      13959.177      1.3715547      0.6767691    
      2800  -9096.3683     -9181.0719      84.703579      13108.48       341.47754      13969.36       1.3705549      0.6767691    
      2900  -9096.3252     -9181.8534      85.528169      15295.652      344.80183      13966.223      1.3708628      0.6767691    
      3000  -9096.6145     -9180.9518      84.337325      13928.109      340.00101      13949.873      1.3724695      0.69007955   
      3100  -9098.8702     -9185.6631      86.792896      14507.543      349.9005       13923.924      1.3750272      0.69007955   
      3200  -9098.7349     -9182.7791      84.044146      14285.102      338.81908      13887.843      1.3785996      0.69007955   
      3300  -9097.6783     -9184.1473      86.469037      16532.803      348.59488      13852.456      1.3821213      0.69007955   
      3400  -9097.9969     -9183.0813      85.084391      15402.727      343.01276      13823.455      1.385021       0.69007955   
      3500  -9099.6865     -9184.0099      84.323355      15262.575      339.94469      13803.781      1.386995       0.69007955   
      3600  -9098.1404     -9183.7668      85.626487      17796.014      345.19819      13803.105      1.3870629      0.69007955   
      3700  -9099.2463     -9183.9315      84.685216      15235.663      341.40351      13823.951      1.3849712      0.69007955   
      3800  -9099.3169     -9183.2987      83.98172       15095.747      338.56741      13864.228      1.3809477      0.69007955   
      3900  -9096.4253     -9183.0558      86.630445      16425.781      349.24559      13913.445      1.3760629      0.69007955   
      4000  -9093.0112     -9179.4258      86.414607      16232.755      348.37545      13967.547      1.3707327      0.63251015   
      4100  -9092.6157     -9180.8819      88.266204      13623.973      355.84006      14017.362      1.3658615      0.63251015   
      4200  -9092.6977     -9181.456       88.758319      10257.083      357.82399      14053.755      1.3623244      0.63251015   
      4300  -9092.3318     -9180.2412      87.909486      12327.411      354.40197      14061.467      1.3615773      0.63251015   
      4400  -9092.2157     -9180.5638      88.348096      10474.858      356.1702       14035.037      1.3641414      0.63251015   
      4500  -9092.591      -9180.1492      87.558229      10714.423      352.9859       13979.377      1.3695729      0.63251015   
      4600  -9091.1073     -9177.7756      86.668266      13108.425      349.39806      13902.315      1.3771645      0.63251015   
      4700  -9091.9447     -9180.0721      88.127323      16469.409      355.28017      13823.607      1.3850057      0.63251015   
      4800  -9091.6535     -9178.7582      87.104728      19375.741      351.15764      13758.675      1.391542       0.63251015   
      4900  -9092.6427     -9179.5157      86.872976      17776.621      350.22334      13729.293      1.3945201      0.63251015   
      5000  -9093.9634     -9181.1178      87.154415      17077.251      351.35795      13746.989      1.392725       0.68068527   
      5100  -9094.0827     -9181.6575      87.574802      17479.56       353.05271      13803.539      1.3870193      0.68068527   
      5200  -9095.3255     -9182.7043      87.378847      16254.594      352.26273      13886.3        1.3787528      0.68068527   
      5300  -9095.049      -9178.5981      83.549096      15887.627      336.82331      13978.961      1.3696136      0.68068527   
      5400  -9097.0252     -9182.8297      85.804481      13233.545      345.91577      14058.247      1.3618892      0.68068527   
      5500  -9094.2882     -9182.2991      88.010859      13362.424      354.81065      14101.31       1.3577302      0.68068527   
      5600  -9096.2928     -9180.7477      84.454889      12984.557      340.47496      14098.49       1.3580018      0.68068527   
      5700  -9095.3368     -9181.3623      86.025519      15618.609      346.80687      14048.599      1.3628244      0.68068527   
      5800  -9095.1086     -9181.0873      85.978653      16785.921      346.61793      13968.318      1.3706572      0.68068527   
      5900  -9093.5009     -9180.9857      87.484766      16798.766      352.68974      13874.904      1.3798852      0.68068527   
      6000  -9094.8275     -9185.1556      90.328136      18454.417      364.15262      13794.147      1.3879636      0.6864977    
      6100  -9094.262      -9181.058       86.796012      21044.216      349.91306      13741.461      1.3932853      0.6864977    
      6200  -9096.9124     -9181.4282      84.515777      16510.091      340.72043      13731.175      1.3943289      0.6864977    
      6300  -9098.777      -9185.2881      86.511162      17068.377      348.76471      13759.213      1.3914877      0.6864977    
      6400  -9097.8556     -9183.305       85.449459      17258.023      344.48451      13814.777      1.385891       0.6864977    
      6500  -9097.7145     -9181.7149      84.000402      12579.314      338.64273      13885.485      1.3788337      0.6864977    
      6600  -9097.969      -9184.3875      86.41848       10823.374      348.39107      13949.531      1.3725031      0.6864977    
      6700  -9097.5311     -9183.2213      85.690253      14693.157      345.45526      13992.918      1.3682474      0.6864977    
      6800  -9096.5763     -9181.8206      85.24433       14690.405      343.65755      14011.516      1.3664313      0.6864977    
      6900  -9095.1285     -9182.7597      87.631225      13294.891      353.28018      14005.234      1.3670443      0.6864977    
      7000  -9091.241      -9180.9003      89.659224      14591.754      361.45594      13977.7        1.3697372      0.67194457   
      7100  -9091.2893     -9179.0638      87.774448      16608.052      353.85757      13939.275      1.373513       0.67194457   
      7200  -9089.4264     -9178.8452      89.418863      17182.848      360.48694      13902.412      1.3771549      0.67194457   
      7300  -9093.3501     -9181.6354      88.285274      12325.503      355.91694      13876.251      1.3797513      0.67194457   
      7400  -9092.9663     -9179.5477      86.581485      18028.144      349.04821      13861.343      1.3812352      0.67194457   
      7500  -9090.2989     -9180.6369      90.337938      14939.274      364.19213      13863.522      1.381018       0.67194457   
      7600  -9090.6601     -9178.5161      87.855993      13892.951      354.18632      13880.367      1.3793421      0.67194457   
      7700  -9091.4811     -9180.426       88.944908      14176.002      358.57621      13909.127      1.3764901      0.67194457   
      7800  -9091.0428     -9179.4259      88.38312       18663.188      356.3114       13941.668      1.3732772      0.67194457   
      7900  -9094.7395     -9181.2851      86.545647      14172.106      348.90373      13972.217      1.3702747      0.67194457   
      8000  -9094.055      -9180.7912      86.73621       13671.742      349.67198      13989.835      1.368549       0.70474181   
      8100  -9092.1988     -9181.2512      89.052409      15179.735      359.0096       13993.544      1.3681862      0.70474181   
      8200  -9090.6943     -9178.0262      87.331914      15644.009      352.07352      13983.331      1.3691856      0.70474181   
      8300  -9089.9443     -9176.0123      86.067983      16280.463      346.97806      13966.2        1.370865       0.70474181   
      8400  -9090.5707     -9178.6366      88.065857      18123.34       355.03237      13945.699      1.3728803      0.70474181   
      8500  -9088.7014     -9177.4497      88.748306      16011.134      357.78362      13919.678      1.3754466      0.70474181   
      8600  -9089.3482     -9177.6854      88.33719       15872.881      356.12623      13893.219      1.3780662      0.70474181   
      8700  -9088.8675     -9177.3122      88.444705      15626.26       356.55968      13877.141      1.3796627      0.70474181   
      8800  -9091.1344     -9180.259       89.124585      13742.021      359.30057      13877.761      1.3796011      0.70474181   
      8900  -9090.1056     -9177.0593      86.953731      11889.391      350.5489       13889.881      1.3783973      0.70474181   
      9000  -9092.2665     -9182.082       89.815423      12419.54       362.08564      13915.313      1.3758782      0.70978862   
      9100  -9093.1394     -9181.1383      87.998904      15569.168      354.76245      13940.678      1.3733747      0.70978862   
      9200  -9095.6781     -9182.4982      86.820087      15562.763      350.01012      13963.67       1.3711134      0.70978862   
      9300  -9096.6785     -9184.5814      87.902838      15807.988      354.37517      13975.205      1.3699817      0.70978862   
      9400  -9095.128      -9179.9913      84.863238      16605.132      342.1212       13969.056      1.3705847      0.70978862   
      9500  -9092.7877     -9179.2061      86.41835       13386.896      348.39054      13948.799      1.3725752      0.70978862   
      9600  -9092.9147     -9178.0671      85.152425      16868.344      343.28704      13922.867      1.3751316      0.70978862   
      9700  -9090.2654     -9183.3113      93.045812      18189.733      375.10877      13900.289      1.3773652      0.70978862   
      9800  -9089.7233     -9179.041       89.317715      16942.408      360.07916      13886.13       1.3787696      0.70978862   
      9900  -9089.7882     -9177.0734      87.285253      14923.935      351.88541      13889.202      1.3784647      0.70978862   
     10000  -9089.3014     -9176.6604      87.359063      12834.863      352.18297      13913.494      1.3760579      0.63112167   
     10100  -9090.1755     -9178.5434      88.367969      11903.021      356.25032      13953.497      1.372113       0.63112167   
     10200  -9092.8713     -9178.3486      85.477329      15346.619      344.59687      13997.415      1.3678079      0.63112167   
     10300  -9092.5016     -9179.9411      87.439478      14415.663      352.50716      14035.856      1.3640617      0.63112167   
     10400  -9092.0723     -9179.6218      87.5495        13686.676      352.95071      14059.114      1.3618052      0.63112167   
     10500  -9093.4362     -9182.7579      89.321764      11498.068      360.09549      14059.158      1.361801       0.63112167   
     10600  -9093.7349     -9181.6791      87.944144      15715.558      354.54169      14033.991      1.364243       0.63112167   
     10700  -9091.6958     -9179.3691      87.6733        18729.05       353.4498       13986.629      1.3688627      0.63112167   
     10800  -9088.52       -9179.0643      90.544329      19822.94       365.02419      13937.619      1.3736761      0.63112167   
     10900  -9087.0176     -9175.9666      88.94899       17394.92       358.59267      13901.401      1.377255       0.63112167   
     11000  -9089.1202     -9179.5315      90.411239      18123.472      364.48764      13888.405      1.3785438      0.6173865    
     11100  -9088.4756     -9179.0291      90.553479      16837.855      365.06107      13898.91       1.3775019      0.6173865    
     11200  -9089.8712     -9177.7703      87.899132      13220.074      354.36023      13927.756      1.374649       0.6173865    
     11300  -9091.0858     -9180.8529      89.767091      17688.903      361.8908       13967.571      1.3707304      0.6173865    
     11400  -9091.3646     -9178.5947      87.230069      16846.711      351.66294      14010.221      1.3665576      0.6173865    
     11500  -9092.9796     -9179.6352      86.655616      17182.835      349.34707      14042.993      1.3633685      0.6173865    
     11600  -9094.8363     -9180.7989      85.962621      13735.673      346.5533       14057.28       1.3619829      0.6173865    
     11700  -9093.58       -9181.1341      87.554101      15719.618      352.96925      14048.969      1.3627886      0.6173865    
     11800  -9093.7033     -9181.6151      87.911771      15381.482      354.41118      14021.801      1.3654291      0.6173865    
     11900  -9094.5644     -9181.2854      86.720962      13151.11       349.61051      13982.695      1.3692478      0.6173865    
     12000  -9093.8664     -9181.7905      87.924132      14235.484      354.46102      13939.532      1.3734876      0.69747064   
     12100  -9093.7965     -9179.6344      85.837955      15665.097      346.05071      13901.057      1.3772891      0.69747064   
     12200  -9093.203      -9181.281       88.077978      16087.838      355.08124      13878.387      1.3795389      0.69747064   
     12300  -9093.6502     -9179.6589      86.00868       15893.476      346.73898      13874.882      1.3798874      0.69747064   
     12400  -9093.1312     -9179.4382      86.307075      16232.801      347.94194      13889.549      1.3784303      0.69747064   
     12500  -9090.7824     -9178.6492      87.866788      14117.536      354.22984      13919.842      1.3754305      0.69747064   
     12600  -9092.3663     -9180.6817      88.315377      14173.624      356.0383       13958.212      1.3716495      0.69747064   
     12700  -9094.1871     -9181.038       86.850924      14588.677      350.13444      13991.763      1.3683604      0.69747064   
     12800  -9093.1029     -9180.9587      87.855795      13980.745      354.18552      14018.467      1.3657538      0.69747064   
     12900  -9092.0065     -9180.6663      88.659786      15084.59       357.42676      14034.483      1.3641952      0.69747064   
     13000  -9095.2006     -9181.5018      86.301227      14704.672      347.91837      14038.078      1.3638459      0.65211209   
     13100  -9096.5772     -9180.1457      83.568434      14463.088      336.90127      14022.852      1.3653267      0.65211209   
     13200  -9097.145      -9183.3065      86.161484      11425.624      347.355        13989.782      1.3685542      0.65211209   
     13300  -9095.6396     -9181.9155      86.275905      14961.228      347.81628      13946.36       1.3728152      0.65211209   
     13400  -9095.8644     -9183.4928      87.628421      15557.382      353.26887      13906.607      1.3767395      0.65211209   
     13500  -9097.5021     -9182.3989      84.896817      12540.086      342.25657      13873.309      1.3800438      0.65211209   
     13600  -9096.1719     -9180.8727      84.700764      15026.763      341.4662       13852.403      1.3821266      0.65211209   
     13700  -9096.6904     -9181.3439      84.653468      15997.723      341.27552      13853.113      1.3820558      0.65211209   
     13800  -9095.7404     -9178.8258      83.085461      13658.58       334.95419      13872.541      1.3801203      0.65211209   
     13900  -9095.3182     -9182.426       87.10779       14848.019      351.16998      13908.902      1.3765123      0.65211209   
     14000  -9095.92       -9181.2425      85.3225        18425.436      343.97269      13957.93       1.3716772      0.6685275    
     14100  -9096.7839     -9182.2194      85.435442      15810.375      344.428        14007.605      1.3668129      0.6685275    
     14200  -9095.4208     -9180.63        85.209237      15645.628      343.51607      14040.386      1.3636217      0.6685275    
     14300  -9096.1527     -9182.3385      86.185769      11741.83       347.45291      14050.003      1.3626883      0.6685275    
     14400  -9097.438      -9182.8278      85.38979       11793.587      344.24396      14036.36       1.3640128      0.6685275    
     14500  -9098.0269     -9182.5398      84.512936      17038.983      340.70898      13998.196      1.3677316      0.6685275    
     14600  -9096.7385     -9181.7847      85.046241      13435.286      342.85896      13944.135      1.3730342      0.6685275    
     14700  -9098.6647     -9184.4595      85.794852      15657.16       345.87695      13883.768      1.3790042      0.6685275    
     14800  -9098.9782     -9183.8798      84.901578      16500.678      342.27576      13824.894      1.3848768      0.6685275    
     14900  -9098.7507     -9182.6768      83.926085      19272.542      338.34312      13781.277      1.3892599      0.6685275    
     15000  -9096.1435     -9185.0189      88.875437      17270.051      358.29615      13765.784      1.3908234      0.67850838   
     15100  -9095.0643     -9182.6342      87.569883      17148.229      353.03288      13788.199      1.3885624      0.67850838   
     15200  -9095.447      -9182.5991      87.152116      13652.261      351.34868      13846.253      1.3827405      0.67850838   
     15300  -9097.5929     -9181.4181      83.825238      13796.168      337.93656      13925.25       1.3748963      0.67850838   
     15400  -9098.6532     -9180.6101      81.956914      14478.833      330.40452      14010.399      1.3665403      0.67850838   
     15500  -9100.3687     -9182.4522      82.083482      12938.007      330.91478      14077.841      1.3599937      0.67850838   
     15600  -9099.0287     -9184.4542      85.425495      11452.056      344.38791      14108.248      1.3570625      0.67850838   
     15700  -9095.0515     -9180.3761      85.324577      13147.486      343.98106      14092.321      1.3585963      0.67850838   
     15800  -9094.417      -9180.8162      86.399131      14038.461      348.31306      14040.344      1.3636258      0.67850838   
     15900  -9093.4975     -9181.1064      87.608826      14735.013      353.18988      13964.868      1.3709957      0.67850838   
     16000  -9090.4296     -9179.4342      89.004572      16962.367      358.81675      13883.592      1.3790217      0.66624008   
     16100  -9089.0538     -9179.0123      89.958526      17051.018      362.66255      13820.22       1.3853451      0.66624008   
     16200  -9089.5614     -9180.4504      90.889016      17548.999      366.41377      13791.003      1.3882801      0.66624008   
     16300  -9090.5736     -9179.9542      89.38057       17735.755      360.33256      13794.841      1.3878938      0.66624008   
     16400  -9094.4144     -9180.5604      86.146001      15093.95       347.29258      13831.687      1.3841966      0.66624008   
     16500  -9095.7766     -9179.1557      83.37905       16226.391      336.13778      13891.959      1.3781912      0.66624008   
     16600  -9095.5012     -9181.0223      85.521099      15021.119      344.77333      13957.438      1.3717255      0.66624008   
     16700  -9098.245      -9180.7102      82.465138      13462.951      332.4534       14013.051      1.3662817      0.66624008   
     16800  -9100.0369     -9183.0981      83.061284      15866.092      334.85673      14045.711      1.3631047      0.66624008   
     16900  -9099.8514     -9185.5521      85.700699      14125.178      345.49737      14047.974      1.3628851      0.66624008   
     17000  -9099.5682     -9183.0529      83.484682      14568.705      336.56363      14018.055      1.3657939      0.77575368   
     17100  -9097.873      -9184.108       86.234945      14681.852      347.65116      13964.548      1.3710272      0.77575368   
     17200  -9096.0981     -9182.1255      86.027392      15469.354      346.81442      13899.627      1.3774308      0.77575368   
     17300  -9095.6936     -9181.678       85.984379      16461.644      346.64101      13835.581      1.3838071      0.77575368   
     17400  -9094.5072     -9181.2424      86.735218      18567.556      349.66798      13789.366      1.3884448      0.77575368   
     17500  -9094.1454     -9181.7946      87.649245      18077.266      353.35282      13774.78       1.3899151      0.77575368   
     17600  -9096.0813     -9182.8932      86.811899      15952.412      349.97711      13792.139      1.3881657      0.77575368   
     17700  -9097.2735     -9181.4313      84.157783      15833.185      339.2772       13835.418      1.3838233      0.77575368   
     17800  -9099.3652     -9184.9544      85.589199      10582.949      345.04787      13892.532      1.3781343      0.77575368   
     17900  -9098.2407     -9184.585       86.344337      13408.84       348.09216      13946.295      1.3728216      0.77575368   
     18000  -9098.0471     -9184.0582      86.011088      15710.437      346.74869      13986.075      1.3689169      0.70589378   
     18100  -9095.3865     -9183.6055      88.219022      15078.164      355.64985      14005.263      1.3670415      0.70589378   
     18200  -9093.9138     -9181.4115      87.497701      12684.218      352.74188      14001.023      1.3674555      0.70589378   
     18300  -9093.3448     -9181.7125      88.367621      13664.628      356.24892      13979.047      1.3696052      0.70589378   
     18400  -9091.5499     -9181.8805      90.330595      12260.229      364.16253      13948.679      1.372587       0.70589378   
     18500  -9092.7734     -9179.7143      86.940869      18140.68       350.49705      13916.607      1.3757501      0.70589378   
     18600  -9096.0736     -9182.2121      86.138447      16764.829      347.26213      13892.847      1.378103       0.70589378   
     18700  -9095.8457     -9180.4464      84.60065       18975.009      341.06259      13875.872      1.379789       0.70589378   
     18800  -9095.0496     -9182.848       87.798414      15542.787      353.95419      13865.703      1.3808009      0.70589378   
     18900  -9096.8307     -9182.6018      85.771117      10499.817      345.78126      13863.082      1.3810619      0.70589378   
     19000  -9094.8866     -9179.9674      85.080784      15319.351      342.99822      13865.054      1.3808655      0.72701401   
     19100  -9093.3195     -9180.5159      87.196458      12959.541      351.52744      13875.115      1.3798642      0.72701401   
     19200  -9093.9142     -9180.5124      86.598266      15558.921      349.11586      13892.147      1.3781725      0.72701401   
     19300  -9094.9976     -9182.1494      87.151831      17032.02       351.34753      13914.36       1.3759724      0.72701401   
     19400  -9096.5245     -9182.0626      85.538123      13495.987      344.84196      13935.852      1.3738503      0.72701401   
     19500  -9095.3367     -9182.9976      87.660914      13528.947      353.39987      13950.341      1.3724234      0.72701401   
     19600  -9095.8871     -9181.8723      85.98517       17096.676      346.6442       13951.252      1.3723338      0.72701401   
     19700  -9096.3969     -9180.7827      84.385867      13041.973      340.1967       13940.426      1.3733995      0.72701401   
     19800  -9095.9207     -9182.9974      87.076712      17419.742      351.04469      13917.032      1.3757082      0.72701401   
     19900  -9091.4832     -9177.9586      86.475431      16354.995      348.62066      13886.235      1.3787592      0.72701401   
     20000  -9089.9305     -9177.3487      87.418225      14537.419      352.42148      13864.331      1.3809375      0.70223446   
     20100  -9088.2921     -9177.3708      89.078709      17373.253      359.11563      13856.231      1.3817448      0.70223446   
     20200  -9086.9177     -9178.932       92.014322      16431.621      370.95038      13868.078      1.3805644      0.70223446   
     20300  -9087.2902     -9176.5669      89.276673      16947.942      359.9137       13899.249      1.3774683      0.70223446   
     20400  -9090.8897     -9177.3567      86.467068      13533.496      348.58694      13945.765      1.3728738      0.70223446   
     20500  -9093.3464     -9179.181       85.834607      12214.785      346.03722      13992.484      1.3682899      0.70223446   
     20600  -9095.321      -9180.0898      84.768836      10141.36       341.74062      14023.86       1.3652286      0.70223446   
     20700  -9095.3924     -9182.609       87.216556      12570.093      351.60846      14025.927      1.3650274      0.70223446   
     20800  -9097.0096     -9183.1324      86.122838      13727.252      347.1992       14001.074      1.3674504      0.70223446   
     20900  -9096.6214     -9182.3133      85.691872      15539.196      345.46179      13951.471      1.3723122      0.70223446   
     21000  -9096.8479     -9182.746       85.89803       11412.817      346.2929       13893.033      1.3780846      0.76562244   
     21100  -9096.2364     -9181.4819      85.245498      14959.641      343.66226      13836.966      1.3836685      0.76562244   
     21200  -9097.7584     -9182.271       84.512576      17216.276      340.70752      13800.361      1.3873387      0.76562244   
     21300  -9096.9373     -9182.1524      85.215071      18564.897      343.53959      13784.521      1.3889329      0.76562244   
     21400  -9095.162      -9181.8459      86.683907      17520.522      349.46112      13793.325      1.3880463      0.76562244   
     21500  -9093.3854     -9180.3466      86.961188      15942.963      350.57896      13825.185      1.3848477      0.76562244   
     21600  -9091.4546     -9179.0881      87.63354       17224.755      353.28951      13878.573      1.3795204      0.76562244   
     21700  -9091.2131     -9177.344       86.130928      16593.856      347.23182      13948.803      1.3725748      0.76562244   
     21800  -9089.8487     -9179.0325      89.183747      13162.179      359.53908      14019.501      1.365653       0.76562244   
     21900  -9090.5762     -9178.9172      88.340967      15151.117      356.14146      14074.881      1.3602797      0.76562244   
     22000  -9088.7836     -9179.3172      90.533598      15961.639      364.98092      14105.423      1.3573343      0.69349735   
     22100  -9090.8812     -9179.389       88.507823      12751.946      356.81413      14105.328      1.3573434      0.69349735   
     22200  -9089.9455     -9176.6635      86.71807       12084.198      349.59885      14070.851      1.3606693      0.69349735   
     22300  -9090.1401     -9178.281       88.14091       13323.828      355.33494      14014.041      1.3661852      0.69349735   
     22400  -9093.1248     -9179.8972      86.77236       14013.952      349.81771      13953.369      1.3721256      0.69349735   
     22500  -9092.7568     -9182.1964      89.439573      13124.966      360.57042      13899.649      1.3774286      0.69349735   
     22600  -9095.8478     -9178.3497      82.501836      19015.143      332.60134      13853.18       1.3820491      0.69349735   
     22700  -9094.4729     -9180.9208      86.44794       14162.982      348.50983      13825.848      1.3847813      0.69349735   
     22800  -9092.8048     -9183.1143      90.309531      13525.449      364.07761      13823.268      1.3850397      0.69349735   
     22900  -9094.6556     -9180.5771      85.921438      14775.664      346.38727      13840.779      1.3832874      0.69349735   
     23000  -9095.6649     -9181.7276      86.062647      15165.814      346.95655      13875.831      1.379793       0.69921391   
     23100  -9094.427      -9182.5425      88.115524      14688.769      355.2326       13919.269      1.375487       0.69921391   
     23200  -9093.5095     -9179.5127      86.003188      13095.726      346.71684      13961.592      1.3713174      0.69921391   
     23300  -9096.3821     -9183.3879      87.005814      15664.658      350.75887      13994.702      1.368073       0.69921391   
     23400  -9097.5619     -9182.595       85.03308       13830.888      342.80591      14005.53       1.3670153      0.69921391   
     23500  -9095.3607     -9180.3023      84.941667      13761.241      342.43738      13990.9        1.3684448      0.69921391   
     23600  -9096.3608     -9180.5992      84.238383      15393.3        339.60213      13963.226      1.3711569      0.69921391   
     23700  -9097.3366     -9184.9433      87.606684      13454.5        353.18124      13927.925      1.3746322      0.69921391   
     23800  -9098.3071     -9183.242       84.934864      13355.114      342.40995      13888.185      1.3785657      0.69921391   
     23900  -9096.8507     -9181.0324      84.18177       14826.346      339.3739       13856.121      1.3817557      0.69921391   
     24000  -9094.2425     -9181.4962      87.253692      16284.439      351.75818      13837.784      1.3835867      0.6641869    
     24100  -9094.2307     -9179.7628      85.532123      16254.999      344.81777      13837.901      1.383575       0.6641869    
     24200  -9094.4189     -9182.4152      87.996327      15857.529      354.75206      13860.952      1.3812741      0.6641869    
     24300  -9094.5829     -9181.7948      87.211886      16268.793      351.58964      13905.467      1.3768523      0.6641869    
     24400  -9095.1544     -9179.6866      84.532238      13753.749      340.78679      13957.585      1.3717111      0.6641869    
     24500  -9092.5298     -9179.0463      86.516572      12413.469      348.78652      14006.22       1.366948       0.6641869    
     24600  -9095.864      -9178.5753      82.71133       15713.913      333.44591      14039.877      1.3636711      0.6641869    
     24700  -9096.5613     -9182.0907      85.52936       13179.559      344.80663      14052.346      1.3624611      0.6641869    
     24800  -9096.8683     -9180.5852      83.716963      13747.777      337.50006      14038.472      1.3638076      0.6641869    
     24900  -9095.7745     -9183.5942      87.819734      13020.258      354.04014      13998.327      1.3677187      0.6641869    
     25000  -9094.0379     -9181.7987      87.760852      14927.519      353.80276      13935.866      1.3738489      0.6817022    
     25100  -9093.3759     -9181.7387      88.362801      16760.67       356.22948      13866.246      1.3807468      0.6817022    
     25200  -9095.0195     -9181.4557      86.436265      15007.029      348.46277      13812.988      1.3860705      0.6817022    
     25300  -9096.6983     -9182.4597      85.761356      17058.879      345.74191      13785.429      1.3888415      0.6817022    
     25400  -9095.8853     -9180.7166      84.831347      18808.969      341.99263      13784.493      1.3889357      0.6817022    
     25500  -9098.119      -9183.55        85.431026      18941.393      344.4102       13815.896      1.3857788      0.6817022    
     25600  -9097.103      -9183.0045      85.901472      17426.369      346.30678      13868.753      1.3804972      0.6817022    
     25700  -9096.3831     -9183.3982      87.015147      13334.894      350.79649      13934.428      1.3739907      0.6817022    
     25800  -9097.7419     -9182.2631      84.521245      10648.537      340.74247      13995.751      1.3679705      0.6817022    
     25900  -9096.763      -9181.7692      85.006198      10766.465      342.69753      14040.645      1.3635965      0.6817022    
     26000  -9095.6607     -9181.3865      85.725868      13369.433      345.59884      14054.907      1.3622128      0.70031527   
     26100  -9095.7682     -9179.683       83.914818      15885.794      338.2977       14035.77       1.3640701      0.70031527   
     26200  -9092.9049     -9179.2727      86.367786      15966.999      348.1867       13988.995      1.3686312      0.70031527   
     26300  -9095.8579     -9182.6631      86.80521       12938.815      349.95015      13929.002      1.374526       0.70031527   
     26400  -9093.8748     -9181.2648      87.389984      16963.326      352.30763      13873.043      1.3800703      0.70031527   
     26500  -9090.7286     -9182.7416      92.013068      19458.854      370.94532      13839.999      1.3833653      0.70031527   
     26600  -9088.0461     -9176.6706      88.624455      15743.071      357.28433      13837.778      1.3835874      0.70031527   
     26700  -9091.3557     -9179.561       88.205357      19321.867      355.59476      13867.15       1.3806568      0.70031527   
     26800  -9089.3763     -9180.211       90.834712      16679.923      366.19485      13922.791      1.3751392      0.70031527   
     26900  -9090.7398     -9178.9076      88.167854      16328.187      355.44357      13991.161      1.3684193      0.70031527   
     27000  -9089.1863     -9178.7706      89.584355      16854.21       361.15411      14051.018      1.3625899      0.64462679   
     27100  -9092.1773     -9179.8176      87.640279      12693.383      353.31668      14096.691      1.3581751      0.64462679   
     27200  -9091.6266     -9180.4265      88.799933      11914.267      357.99175      14115.602      1.3563555      0.64462679   
     27300  -9092.3631     -9179.2832      86.920079      12161.74       350.41324      14101.202      1.3577406      0.64462679   
     27400  -9093.709      -9181.0747      87.365726      13334.449      352.20983      14057.694      1.3619428      0.64462679   
     27500  -9094.9716     -9179.7159      84.744334      14597.177      341.64184      13989.804      1.368552       0.64462679   
     27600  -9093.6426     -9180.584       86.941359      16472.853      350.49902      13910.214      1.3763825      0.64462679   
     27700  -9093.8163     -9182.4699      88.653583      15032.373      357.40175      13840.705      1.3832947      0.64462679   
     27800  -9095.6077     -9182.6345      87.026785      15242.962      350.84341      13800.098      1.3873651      0.64462679   
     27900  -9097.7109     -9184.103       86.392129      18337.6        348.28483      13792.037      1.388176       0.64462679   
     28000  -9094.3499     -9180.7735      86.423541      15301.452      348.41147      13812.805      1.3860888      0.68741404   
     28100  -9097.391      -9183.8952      86.504219      15373.138      348.73672      13856.087      1.3817592      0.68741404   
     28200  -9095.666      -9180.6336      84.967521      16519.716      342.54161      13905.066      1.376892       0.68741404   
     28300  -9094.9335     -9182.5258      87.592287      13261.695      353.1232       13949.66       1.3724904      0.68741404   
     28400  -9095.1895     -9181.3592      86.169687      13181.44       347.38807      13981.175      1.3693967      0.68741404   
     28500  -9095.5365     -9181.772       86.235463      10118.307      347.65324      13996.541      1.3678933      0.68741404   
     28600  -9095.8985     -9181.8905      85.992044      13363.419      346.67191      13993.683      1.3681727      0.68741404   
     28700  -9095.5265     -9181.2646      85.73809       13825.089      345.64811      13975.209      1.3699813      0.68741404   
     28800  -9094.5667     -9181.5513      86.984567      16543.778      350.67321      13949.285      1.3725273      0.68741404   
     28900  -9094.1021     -9180.6376      86.535448      14842.311      348.86262      13924.819      1.3749388      0.68741404   
     29000  -9093.2602     -9179.3869      86.126716      15094.955      347.21484      13903.921      1.3770054      0.68614023   
     29100  -9093.9531     -9183.767       89.81389       14811.852      362.07946      13886.94       1.3786892      0.68614023   
     29200  -9092.8068     -9180.6183      87.811489      16739.488      354.0069       13876.504      1.3797261      0.68614023   
     29300  -9090.2087     -9179.4102      89.201442      13678.729      359.61041      13878.121      1.3795653      0.68614023   
     29400  -9090.3782     -9176.6022      86.223954      16660.117      347.60685      13892.583      1.3781292      0.68614023   
     29500  -9093.4997     -9179.9346      86.434867      16072.517      348.45713      13921.89       1.3752281      0.68614023   
     29600  -9097.3485     -9184.1459      86.797403      15777.708      349.91867      13951.015      1.3723571      0.68614023   
     29700  -9095.3324     -9181.2505      85.918108      15467.382      346.37384      13968.714      1.3706183      0.68614023   
     29800  -9094.0809     -9179.7923      85.711415      17950.651      345.54058      13979.208      1.3695894      0.68614023   
     29900  -9094.3455     -9183.8186      89.473132      13730.361      360.70572      13985.653      1.3689583      0.68614023   
     30000  -9094.2475     -9180.4131      86.16561       12663.843      347.37164      13979.654      1.3695457      0.64938371   
     30100  -9096.3557     -9183.1674      86.811753      15994.596      349.97652      13959.506      1.3715224      0.64938371   
     30200  -9094.8388     -9181.671       86.83214       12127.97       350.05871      13926.646      1.3747585      0.64938371   
     30300  -9097.7694     -9183.7316      85.962133      15641.772      346.55133      13886.378      1.378745       0.64938371   
     30400  -9095.3181     -9182.1348      86.816727      17111.954      349.99657      13842.681      1.3830973      0.64938371   
     30500  -9093.818      -9182.5056      88.687581      16734.158      357.53881      13811.296      1.3862403      0.64938371   
     30600  -9092.8997     -9181.1721      88.27242       19464.033      355.86512      13804.055      1.3869674      0.64938371   
     30700  -9094.1343     -9180.2344      86.100122      19973.412      347.10763      13824.166      1.3849497      0.64938371   
     30800  -9094.1695     -9182.613       88.443533      15817.271      356.55495      13867.658      1.3806062      0.64938371   
     30900  -9092.3903     -9179.149       86.758642      13433.739      349.76241      13924.333      1.3749868      0.64938371   
     31000  -9092.143      -9179.3004      87.157423      12163.66       351.37007      13983.449      1.369174       0.72291761   
     31100  -9090.1658     -9179.7062      89.540425      11719.858      360.977        14033.169      1.3643229      0.72291761   
     31200  -9090.5516     -9178.6203      88.068749      12705.083      355.04403      14061.817      1.3615435      0.72291761   
     31300  -9089.4673     -9177.9133      88.445945      13653.72       356.56467      14063.011      1.3614279      0.72291761   
     31400  -9091.7603     -9181.2145      89.454228      15140.922      360.62951      14038.883      1.3637676      0.72291761   
     31500  -9090.7197     -9177.6276      86.907867      15286.516      350.364        13994.929      1.3680508      0.72291761   
     31600  -9091.1164     -9179.4208      88.304475      14430.435      355.99435      13942.216      1.3732232      0.72291761   
     31700  -9093.3386     -9182.2943      88.955709      16441.987      358.61976      13890.256      1.3783601      0.72291761   
     31800  -9093.1337     -9180.8246      87.690878      18503.921      353.52066      13842.71       1.3830944      0.72291761   
     31900  -9094.0427     -9181.2172      87.174496      17930.857      351.4389       13814.689      1.3858998      0.72291761   
     32000  -9092.2561     -9178.7059      86.449828      16677.252      348.51745      13814.904      1.3858782      0.68994434   
     32100  -9092.6239     -9181.1874      88.563581      17377.4        357.03892      13842.137      1.3831517      0.68994434   
     32200  -9095.2817     -9181.9262      86.644465      14914.593      349.30211      13889.775      1.3784079      0.68994434   
     32300  -9098.2568     -9184.2849      86.028077      14292.122      346.81718      13943.34       1.3731125      0.68994434   
     32400  -9097.7711     -9182.112       84.340979      15068.764      340.01574      13978.696      1.3696395      0.68994434   
     32500  -9097.1767     -9181.9193      84.742564      12676.721      341.63471      13989.705      1.3685618      0.68994434   
     32600  -9096.6713     -9183.0004      86.329132      12529.683      348.03086      13977.479      1.3697588      0.68994434   
     32700  -9097.3294     -9182.1403      84.810868      11389.121      341.91007      13948.348      1.3726195      0.68994434   
     32800  -9095.8578     -9183.3689      87.511118      14242.998      352.79597      13910.794      1.376325       0.68994434   
     32900  -9095.2876     -9180.4523      85.164774      14910.424      343.33682      13874.533      1.379922       0.68994434   
     33000  -9093.2299     -9180.0002      86.770339      15990.342      349.80956      13853.045      1.3820625      0.74050817   
     33100  -9094.2446     -9182.1448      87.900148      13826.44       354.36432      13847.256      1.3826404      0.74050817   
     33200  -9091.9829     -9179.303       87.320068      15263.897      352.02577      13856.478      1.3817202      0.74050817   
     33300  -9091.7459     -9178.1687      86.422751      15824.63       348.40828      13885.136      1.3788684      0.74050817   
     33400  -9093.1757     -9182.7022      89.526437      20981.14       360.92061      13926.285      1.3747942      0.74050817   
     33500  -9093.9275     -9180.2506      86.323071      14362.361      348.00643      13967.555      1.370732       0.74050817   
     33600  -9095.0912     -9182.7963      87.705117      10312.067      353.57807      14001.176      1.3674404      0.74050817   
     33700  -9094.7604     -9180.6126      85.852226      11066.734      346.10825      14021.421      1.3654661      0.74050817   
     33800  -9090.3522     -9175.7776      85.425401      15084.82       344.38753      14024.668      1.3651499      0.74050817   
     33900  -9091.9086     -9178.9515      87.042892      14547.537      350.90835      14012.698      1.3663161      0.74050817   
     34000  -9091.9475     -9180.0982      88.15068       13196.648      355.37433      13992.493      1.368289       0.79816208   
     34100  -9094.8779     -9181.0621      86.184247      16027.435      347.44677      13964.842      1.3709983      0.79816208   
     34200  -9093.0468     -9179.9452      86.898394      15964.205      350.32581      13927.437      1.3746804      0.79816208   
     34300  -9091.5215     -9179.484       87.96251       14701.393      354.61573      13892.449      1.3781426      0.79816208   
     34400  -9093.8294     -9179.3393      85.509919      14180.348      344.72825      13866.289      1.3807425      0.79816208   
     34500  -9094.9507     -9183.4898      88.539047      19404.59       356.94001      13859.495      1.3814193      0.79816208   
     34600  -9096.9877     -9181.0533      84.065606      18621.901      338.90559      13865.68       1.3808031      0.79816208   
     34700  -9095.6005     -9182.034       86.433453      16808.425      348.45143      13882.606      1.3791196      0.79816208   
     34800  -9095.7044     -9182.171       86.466659      15624.541      348.5853       13910.371      1.3763669      0.79816208   
     34900  -9094.3393     -9180.8332      86.493907      17600.169      348.69515      13941.033      1.3733397      0.79816208   
     35000  -9094.3095     -9180.0404      85.730908      15547.786      345.61916      13975.034      1.3699984      0.64929272   
     35100  -9091.6815     -9180.1032      88.421673      14678.589      356.46682      14000.955      1.367462       0.64929272   
     35200  -9092.7434     -9179.9927      87.249349      15287.584      351.74067      14010.514      1.3665291      0.64929272   
     35300  -9091.0806     -9180.1786      89.098031      16525.316      359.19352      14005.037      1.3670635      0.64929272   
     35400  -9092.6146     -9179.5495      86.93493       14483.252      350.47311      13986.559      1.3688695      0.64929272   
     35500  -9094.8314     -9181.2232      86.391802      12959.393      348.28351      13960.716      1.3714035      0.64929272   
     35600  -9091.8379     -9178.2445      86.406661      16822.359      348.34342      13927.607      1.3746637      0.64929272   
     35700  -9091.3318     -9181.4948      90.16295       14629.825      363.48668      13900.554      1.377339       0.64929272   
     35800  -9090.1634     -9176.3187      86.155304      16531.39       347.33009      13877.535      1.3796236      0.64929272   
     35900  -9092.8509     -9178.8208      85.969941      16842.112      346.58281      13870.536      1.3803198      0.64929272   
     36000  -9094.4331     -9181.3082      86.875119      14843.343      350.23198      13881.469      1.3792326      0.70633518   
     36100  -9093.6819     -9178.2651      84.583181      17669.325      340.99216      13905.955      1.376804       0.70633518   
     36200  -9093.5878     -9180.0915      86.503717      14882.929      348.73469      13939.616      1.3734793      0.70633518   
     36300  -9093.7355     -9181.4504      87.714891      12890.631      353.61747      13973.413      1.3701574      0.70633518   
     36400  -9093.707      -9178.3548      84.647827      14139.937      341.25278      14001.754      1.367384       0.70633518   
     36500  -9093.9172     -9179.6083      85.691096      15867.414      345.45866      14019.458      1.3656572      0.70633518   
     36600  -9094.0979     -9180.1027      86.004793      14438.142      346.72331      14022.101      1.3653999      0.70633518   
     36700  -9094.1297     -9181.1475      87.017723      12830.707      350.80688      14005.499      1.3670184      0.70633518   
     36800  -9095.0317     -9181.2247      86.193026      15862.802      347.48216      13974.133      1.3700867      0.70633518   
     36900  -9092.6084     -9179.9772      87.368821      13881.508      352.22231      13938.192      1.3736196      0.70633518   
     37000  -9090.748      -9180.5104      89.762406      17645.003      361.87191      13907.114      1.3766892      0.70762807   
     37100  -9092.122      -9181.0273      88.905324      16888.257      358.41663      13887.793      1.3786046      0.70762807   
     37200  -9091.879      -9180.3258      88.446799      18080.27       356.56811      13888.755      1.378509       0.70762807   
     37300  -9090.2324     -9178.6854      88.453034      18227.558      356.59325      13907.091      1.3766915      0.70762807   
     37400  -9091.3403     -9179.1479      87.807534      18011.79       353.99096      13939.906      1.3734508      0.70762807   
     37500  -9092.3103     -9180.7533      88.443031      13235.483      356.55292      13980.254      1.3694869      0.70762807   
     37600  -9092.7058     -9180.9535      88.247627      14025.885      355.76517      14018.674      1.3657337      0.70762807   
     37700  -9093.1067     -9178.9811      85.874393      13156.675      346.19761      14044.713      1.3632015      0.70762807   
     37800  -9092.8926     -9180.0843      87.191688      14005.645      351.50821      14050.936      1.3625978      0.70762807   
     37900  -9092.6241     -9180.6892      88.065075      14613.112      355.02922      14037.794      1.3638735      0.70762807   
     38000  -9092.6196     -9180.5985      87.978991      12491.867      354.68217      14009.745      1.3666041      0.70743324   
     38100  -9090.8962     -9180.8154      89.919154      14983.131      362.50383      13970.783      1.3704153      0.70743324   
     38200  -9090.514      -9178.2485      87.734532      15911.493      353.69665      13927.168      1.3747069      0.70743324   
     38300  -9091.1853     -9180.2963      89.110997      16054.017      359.24579      13892.03       1.3781841      0.70743324   
     38400  -9092.172      -9182.0225      89.8505        17806.318      362.22706      13867.891      1.380583       0.70743324   
     38500  -9092.8279     -9180.1756      87.347699      16336.754      352.13716      13856.388      1.3817291      0.70743324   
     38600  -9095.2415     -9181.4096      86.168068      17703.009      347.38154      13864.553      1.3809154      0.70743324   
     38700  -9094.8118     -9180.878       86.066175      17559.258      346.97077      13891.765      1.3782103      0.70743324   
     38800  -9095.1991     -9182.2541      87.05498       17506.24       350.95708      13930.331      1.3743948      0.70743324   
     38900  -9096.0418     -9182.5853      86.543555      14706.108      348.8953       13966.259      1.3708592      0.70743324   
     39000  -9094.0813     -9179.4236      85.342314      13269.02       344.05256      13990.43       1.3684908      0.65689647   
     39100  -9091.3799     -9179.7188      88.338859      13418.84       356.13296      14000.517      1.3675048      0.65689647   
     39200  -9093.6305     -9178.2215      84.590968      15988.569      341.02356      13994.67       1.3680762      0.65689647   
     39300  -9094.8239     -9182.2559      87.431967      13072.977      352.47688      13976.42       1.3698626      0.65689647   
     39400  -9094.7834     -9180.6622      85.878819      15803.205      346.21545      13947.879      1.3726656      0.65689647   
     39500  -9093.0912     -9178.6306      85.53945       11960.338      344.84731      13919.649      1.3754495      0.65689647   
     39600  -9094.9574     -9182.9119      87.954519      14047.983      354.58352      13893.972      1.3779914      0.65689647   
     39700  -9095.7543     -9180.2846      84.530371      17940.55       340.77927      13871.873      1.3801867      0.65689647   
     39800  -9092.6908     -9180.9779      88.287136      17324.373      355.92444      13860.723      1.381297       0.65689647   
     39900  -9090.6209     -9179.1526      88.531646      15835.302      356.91017      13867.993      1.3805728      0.65689647   
     40000  -9091.6013     -9179.0777      87.476343      15763.881      352.65578      13892.807      1.378107       0.64127526   
     40100  -9093.8097     -9180.6         86.790367      16479.144      349.89031      13931.726      1.3742572      0.64127526   
     40200  -9090.0086     -9179.9062      89.897539      13941.357      362.41669      13972.495      1.3702474      0.64127526   
     40300  -9093.6778     -9179.6417      85.963863      13667.081      346.55831      14006.4        1.3669304      0.64127526   
     40400  -9092.8442     -9180.0579      87.213709      15231.647      351.59699      14022.912      1.3653209      0.64127526   
     40500  -9091.3906     -9179.9933      88.602661      15349.589      357.19646      14021.741      1.3654349      0.64127526   
     40600  -9091.3979     -9179.6607      88.262836      14437.655      355.82648      14003.686      1.3671954      0.64127526   
     40700  -9092.511      -9178.9682      86.457178      15367.828      348.54708      13975.706      1.3699326      0.64127526   
     40800  -9092.4749     -9182.3229      89.848021      13600.006      362.21706      13942.049      1.3732397      0.64127526   
     40900  -9094.2229     -9179.7506      85.527674      16037.553      344.79984      13906.446      1.3767554      0.64127526   
     41000  -9092.3756     -9181.1311      88.755524      13947.947      357.81272      13879.187      1.3794594      0.69476437   
     41100  -9092.3922     -9179.4104      87.018233      15533.635      350.80894      13866.868      1.3806849      0.69476437   
     41200  -9089.7549     -9180.398       90.643128      16328.013      365.42249      13876.222      1.3797542      0.69476437   
     41300  -9089.0246     -9177.2774      88.252807      17613.039      355.78605      13901.592      1.3772361      0.69476437   
     41400  -9089.6242     -9178.6426      89.018457      14289.643      358.87272      13946.636      1.372788       0.69476437   
     41500  -9089.9285     -9180.738       90.809472      13564.79       366.0931       13996.915      1.3678568      0.69476437   
     41600  -9089.3922     -9181.5912      92.199047      14559.67       371.69508      14039.017      1.3637547      0.69476437   
     41700  -9092.4585     -9181.2375      88.779023      11843.686      357.90746      14060.022      1.3617173      0.69476437   
     41800  -9093.1043     -9180.7261      87.62179       14113.651      353.24214      14053.887      1.3623117      0.69476437   
     41900  -9092.7683     -9178.162       85.393676      15086.183      344.25963      14017.795      1.3658193      0.69476437   
     42000  -9093.1958     -9180.3417      87.145843      15028.015      351.32339      13964.289      1.3710526      0.69261524   
     42100  -9090.1841     -9177.983       87.798858      14860.08       353.95598      13905.468      1.3768523      0.69261524   
     42200  -9091.5115     -9181.1373      89.62584       16772.168      361.32135      13856.951      1.381673       0.69261524   
     42300  -9090.3116     -9177.4864      87.174741      17363.471      351.43989      13829.12       1.3844536      0.69261524   
     42400  -9091.0088     -9178.9991      87.990361      16557.698      354.72801      13832.165      1.3841488      0.69261524   
     42500  -9092.3634     -9180.8261      88.462696      15735.137      356.6322       13862.669      1.3811031      0.69261524   
     42600  -9091.6519     -9180.4123      88.760344      15962.735      357.83215      13911.524      1.3762529      0.69261524   
     42700  -9091.813      -9179.8616      88.048564      13802.233      354.96265      13968.595      1.37063        0.69261524   
     42800  -9090.9819     -9179.6262      88.644246      11665.655      357.36411      14014.671      1.3661238      0.69261524   
     42900  -9089.4726     -9178.696       89.22343       12286.454      359.69906      14040.479      1.3636126      0.69261524   
     43000  -9089.0974     -9177.5209      88.423478      15056.725      356.4741       14044.664      1.3632063      0.73438545   
     43100  -9089.0067     -9177.6478      88.641149      13647.874      357.35163      14034.786      1.3641658      0.73438545   
     43200  -9087.3016     -9175.7056      88.404053      14100.073      356.39579      14013.774      1.3662111      0.73438545   
     43300  -9086.623      -9176.5121      89.889109      12209.132      362.3827       13988.828      1.3686475      0.73438545   
     43400  -9087.5034     -9179.4163      91.912922      15481.854      370.54159      13960.423      1.3714323      0.73438545   
     43500  -9089.6784     -9177.9787      88.300249      18499.475      355.97731      13930.372      1.3743908      0.73438545   
     43600  -9088.463      -9177.219       88.756009      15544.701      357.81468      13908.624      1.3765399      0.73438545   
     43700  -9089.8702     -9178.3902      88.520067      19129.942      356.86349      13895.472      1.3778427      0.73438545   
     43800  -9090.5892     -9180.4453      89.856139      13502.122      362.24979      13897.034      1.3776879      0.73438545   
     43900  -9090.3252     -9179.989       89.663716      18014.545      361.47405      13913.538      1.3760537      0.73438545   
     44000  -9089.7659     -9176.4265      86.660549      13215.375      349.36695      13937.579      1.37368        0.7328532    
     44100  -9091.1167     -9178.9633      87.846612      13146.77       354.1485       13963.272      1.3711524      0.7328532    
     44200  -9093.3929     -9179.4445      86.051606      17217.192      346.91203      13984.95       1.369027       0.7328532    
     44300  -9094.38       -9184.4221      90.042065      13034.903      362.99934      13992.661      1.3682726      0.7328532    
     44400  -9093.4392     -9181.0473      87.608092      11354.735      353.18692      13978.828      1.3696266      0.7328532    
     44500  -9093.4655     -9179.558       86.092587      12783.092      347.07725      13952.907      1.372171       0.7328532    
     44600  -9092.6638     -9181.6685      89.004704      16368.386      358.81728      13922.277      1.3751899      0.7328532    
     44700  -9091.3286     -9180.1303      88.801691      16136.313      357.99884      13891.973      1.3781898      0.7328532    
     44800  -9092.678      -9179.6529      86.9749        16966.052      350.63424      13872.969      1.3800777      0.7328532    
     44900  -9094.6925     -9180.0159      85.323341      15243.205      343.97608      13870.109      1.3803622      0.7328532    
     45000  -9092.0865     -9178.966       86.879516      17372.011      350.24971      13878.484      1.3795292      0.72446785   
     45100  -9092.6456     -9180.3296      87.683978      16132.405      353.49285      13895.246      1.3778651      0.72446785   
     45200  -9092.687      -9180.0936      87.406545      14276.091      352.37439      13920.823      1.3753335      0.72446785   
     45300  -9092.6439     -9180.1005      87.456582      15977.824      352.57611      13951.486      1.3723108      0.72446785   
     45400  -9091.1458     -9178.9829      87.83714       13925.762      354.11031      13974.41       1.3700596      0.72446785   
     45500  -9090.8532     -9179.4661      88.61287       13660.319      357.23762      13985.62       1.3689614      0.72446785   
     45600  -9092.1683     -9179.952       87.78365       14762.908      353.89467      13984.561      1.3690652      0.72446785   
     45700  -9092.3616     -9180.9915      88.629925      14346.014      357.30638      13970.854      1.3704083      0.72446785   
     45800  -9092.1457     -9181.0449      88.899273      13807.526      358.39224      13945.422      1.3729075      0.72446785   
     45900  -9090.4787     -9178.493       88.014292      16933.592      354.82449      13916.128      1.3757976      0.72446785   
     46000  -9091.178      -9178.9756      87.797613      13951.454      353.95096      13891.836      1.3782034      0.77278251   
     46100  -9092.1265     -9180.4211      88.294569      14846.634      355.95441      13880.338      1.379345       0.77278251   
     46200  -9093.0168     -9179.9315      86.914705      17461.286      350.39157      13880.027      1.3793759      0.77278251   
     46300  -9094.3346     -9180.9711      86.636499      16239.712      349.27         13889.866      1.3783988      0.77278251   
     46400  -9094.1553     -9181.3299      87.174608      14278.08       351.43935      13903.217      1.3770752      0.77278251   
     46500  -9093.2443     -9181.3178      88.073466      16346.801      355.06305      13920.97       1.375319       0.77278251   
     46600  -9092.9972     -9179.8686      86.871404      13214.176      350.217        13943.371      1.3731095      0.77278251   
     46700  -9094.4984     -9181.6097      87.111268      10520.071      351.184        13964.996      1.3709832      0.77278251   
     46800  -9094.7928     -9181.4862      86.693342      13018.956      349.49916      13978.895      1.36962        0.77278251   
     46900  -9093.5787     -9181.0361      87.457456      16583.614      352.57964      13981.335      1.369381       0.77278251   
     47000  -9092.5311     -9180.1656      87.634509      14098.439      353.29341      13969.651      1.3705263      0.69390033   
     47100  -9093.5588     -9181.9005      88.341646      14997.556      356.1442       13950.927      1.3723657      0.69390033   
     47200  -9094.6184     -9180.9154      86.297074      17162.064      347.90162      13926.266      1.374796       0.69390033   
     47300  -9095.4338     -9180.5561      85.122323      17365.229      343.16568      13896.233      1.3777672      0.69390033   
     47400  -9097.8408     -9181.4409      83.600161      15932.352      337.02918      13868.081      1.3805641      0.69390033   
     47500  -9094.499      -9182.1867      87.687719      15494.095      353.50793      13848.831      1.3824831      0.69390033   
     47600  -9094.4631     -9182.8084      88.345264      13353.385      356.15878      13843.912      1.3829743      0.69390033   
     47700  -9093.2217     -9178.3683      85.146653      15613.514      343.26377      13857.122      1.3816559      0.69390033   
     47800  -9092.1457     -9180.4004      88.25464       14529.802      355.79344      13889.368      1.3784482      0.69390033   
     47900  -9093.9092     -9181.3969      87.487645      15098.736      352.70134      13930.623      1.374366       0.69390033   
     48000  -9093.4901     -9181.9732      88.483022      16303.502      356.71415      13966.819      1.3708043      0.70403015   
     48100  -9093.4602     -9180.1177      86.6575        15010.271      349.35466      13991.198      1.3684157      0.70403015   
     48200  -9095.7726     -9181.6356      85.862972      11234.11       346.15157      13999.301      1.3676237      0.70403015   
     48300  -9096.3222     -9182.6382      86.316003      16255.256      347.97794      13986.588      1.3688667      0.70403015   
     48400  -9095.2973     -9183.1083      87.811055      16817.252      354.00515      13955.783      1.3718883      0.70403015   
     48500  -9095.3165     -9181.8969      86.580414      14803.286      349.04389      13915.098      1.3758994      0.70403015   
     48600  -9092.941      -9180.8998      87.958872      16791.548      354.60107      13874.592      1.3799162      0.70403015   
     48700  -9092.4726     -9180.994       88.521431      17428.97       356.86899      13844.399      1.3829256      0.70403015   
     48800  -9092.8233     -9180.2873      87.464025      15308.991      352.60612      13831.347      1.3842307      0.70403015   
     48900  -9092.4301     -9179.8097      87.379616      15159.739      352.26583      13840.169      1.3833483      0.70403015   
     49000  -9093.0199     -9182.1457      89.125826      14599.052      359.30557      13867.142      1.3806576      0.63454937   
     49100  -9094.5046     -9181.6055      87.100876      16656.603      351.14211      13904.589      1.3769393      0.63454937   
     49200  -9097.0354     -9182.0191      84.983707      17318.323      342.60686      13943.467      1.3731         0.63454937   
     49300  -9098.1701     -9183.6331      85.462971      12122.414      344.53899      13972.751      1.3702223      0.63454937   
     49400  -9097.766      -9182.2398      84.473741      13149.794      340.55097      13981.137      1.3694004      0.63454937   
     49500  -9097.047      -9183.3757      86.328756      11860.879      348.02935      13966.878      1.3707984      0.63454937   
     49600  -9096.8363     -9179.998       83.161727      13964.624      335.26166      13934.727      1.3739612      0.63454937   
     49700  -9096.3025     -9182.9663      86.663888      14851.399      349.38042      13894.062      1.3779825      0.63454937   
     49800  -9093.8036     -9183.7032      89.899653      17255.173      362.42521      13852.115      1.3821553      0.63454937   
     49900  -9092.6817     -9180.1112      87.429449      15145.7        352.46673      13820.983      1.3852686      0.63454937   
     50000  -9095.9562     -9182.1607      86.204506      14325.449      347.52844      13809.248      1.3864459      0.82211971   
     50100  -9094.2704     -9179.2818      85.011483      18771.355      342.71884      13817.475      1.3856204      0.82211971   
     50200  -9093.0835     -9181.3337      88.250163      20264.124      355.77539      13845.629      1.3828028      0.82211971   
     50300  -9092.5977     -9178.7101      86.112379      15242.191      347.15704      13884.566      1.378925       0.82211971   
     50400  -9092.8702     -9178.7469      85.876656      13810.781      346.20673      13923.102      1.3751084      0.82211971   
     50500  -9092.8107     -9179.4622      86.651521      12037.697      349.33056      13955.572      1.371909       0.82211971   
     50600  -9094.6067     -9180.8656      86.25893       15678.612      347.74785      13972.636      1.3702335      0.82211971   
     50700  -9094.5824     -9181.3765      86.794045      15229.254      349.90514      13971.733      1.3703221      0.82211971   
     50800  -9093.9895     -9181.2627      87.273151      15963.417      351.83662      13958.376      1.3716334      0.82211971   
     50900  -9092.6004     -9181.6781      89.077625      14838.143      359.11125      13932.143      1.3742161      0.82211971   
     51000  -9092.2712     -9178.99        86.718744      17032.627      349.60156      13902.196      1.3771763      0.69001717   
     51100  -9090.3079     -9180.1448      89.836956      17484.828      362.17245      13879.552      1.3794231      0.69001717   
     51200  -9088.3824     -9178.4958      90.113372      18975.323      363.28681      13867.127      1.3806591      0.69001717   
     51300  -9090.8924     -9180.4064      89.513962      14688.899      360.87032      13868.159      1.3805563      0.69001717   
     51400  -9090.5981     -9177.933       87.334891      15759.105      352.08552      13880.294      1.3793494      0.69001717   
     51500  -9092.8056     -9179.3323      86.5267        17422.856      348.82735      13903.732      1.3770242      0.69001717   
     51600  -9092.9587     -9180.0243      87.065559      14357.997      350.99973      13932.471      1.3741837      0.69001717   
     51700  -9093.0546     -9183.3439      90.289236      11353.61       363.9958       13954.389      1.3720253      0.69001717   
     51800  -9090.6806     -9178.1558      87.475264      14235.795      352.65143      13961.95       1.3712823      0.69001717   
     51900  -9090.6915     -9178.5735      87.881941      13832.303      354.29092      13959.8        1.3714934      0.69001717   
     52000  -9095.6115     -9183.6307      88.019278      14391.031      354.84459      13945.407      1.3729089      0.73865098   
     52100  -9093.803      -9180.4926      86.689575      17216.867      349.48397      13915.94       1.3758162      0.73865098   
     52200  -9093.193      -9181.5866      88.393671      17352.068      356.35393      13879.581      1.3794202      0.73865098   
     52300  -9091.4079     -9180.5032      89.095288      14490.211      359.18246      13848.043      1.3825617      0.73865098   
     52400  -9094.8483     -9182.1719      87.323609      17056.744      352.04004      13830.009      1.3843645      0.73865098   
     52500  -9094.2682     -9182.6462      88.377991      16031.705      356.29072      13828.124      1.3845533      0.73865098   
     52600  -9094.6445     -9181.71        87.065463      14483.786      350.99934      13841.097      1.3832555      0.73865098   
     52700  -9095.8859     -9180.2868      84.4009        15332.817      340.25731      13866.133      1.380758       0.73865098   
     52800  -9094.7376     -9183.0369      88.299314      15892.929      355.97354      13896.161      1.3777743      0.73865098   
     52900  -9095.7091     -9182.0843      86.375128      12887.847      348.21629      13925.371      1.3748843      0.73865098   
     53000  -9097.3657     -9181.7065      84.340744      13006.373      340.01479      13947.295      1.3727232      0.70631658   
     53100  -9095.965      -9182.6695      86.704446      13532.548      349.54392      13959.368      1.3715359      0.70631658   
     53200  -9094.1786     -9181.1585      86.979896      14940.263      350.65438      13961.198      1.3713562      0.70631658   
     53300  -9091.8685     -9177.3058      85.437293      12855.569      344.43547      13953.722      1.3720909      0.70631658   
     53400  -9092.5223     -9181.5923      89.069977      12039.262      359.08042      13942.32       1.373213       0.70631658   
     53500  -9094.4242     -9181.0317      86.607505      14102.855      349.15311      13929.547      1.3744721      0.70631658   
     53600  -9095.2521     -9181.2014      85.949291      12880.061      346.49956      13915.841      1.3758259      0.70631658   
     53700  -9094.964      -9179.8542      84.890225      13124.227      342.23         13901.887      1.3772069      0.70631658   
     53800  -9094.9369     -9181.0364      86.099567      16971.22       347.10539      13890.984      1.3782879      0.70631658   
     53900  -9097.4836     -9184.3838      86.900237      16527.421      350.33324      13886.805      1.3787026      0.70631658   
     54000  -9097.3888     -9181.9221      84.533207      14338.71       340.7907       13885.057      1.3788762      0.68184689   
     54100  -9096.9222     -9183.8204      86.898158      15948.116      350.32486      13888.062      1.3785778      0.68184689   
     54200  -9096.8961     -9181.8933      84.997221      14251.511      342.66134      13895.187      1.377871       0.68184689   
     54300  -9095.1805     -9182.8152      87.63469       13705.814      353.29414      13906.779      1.3767224      0.68184689   
     54400  -9097.6202     -9183.8917      86.271581      11796.582      347.79885      13921.841      1.375233       0.68184689   
     54500  -9094.6818     -9180.6611      85.979232      14235.984      346.62027      13933.309      1.3741011      0.68184689   
     54600  -9094.9588     -9181.1899      86.231092      15316.582      347.63562      13940.099      1.3734317      0.68184689   
     54700  -9093.9981     -9180.1203      86.122164      13142.605      347.19648      13943.183      1.373128       0.68184689   
     54800  -9095.1209     -9180.1665      85.045579      16171.868      342.8563       13944.781      1.3729706      0.68184689   
     54900  -9091.9155     -9180.7824      88.866905      14206.487      358.26175      13941.713      1.3732728      0.68184689   
     55000  -9093.582      -9180.5861      87.004148      13175.23       350.75215      13933.156      1.3741162      0.67030465   
     55100  -9092.2323     -9179.5687      87.336354      11118.804      352.09142      13924.264      1.3749936      0.67030465   
     55200  -9091.0667     -9178.4177      87.350923      14754.219      352.15016      13915.782      1.3758317      0.67030465   
     55300  -9090.4944     -9177.4503      86.955917      16441.69       350.55771      13909.279      1.376475       0.67030465   
     55400  -9093.1197     -9181.5825      88.462831      15536.236      356.63275      13910.156      1.3763882      0.67030465   
     55500  -9094.4119     -9181.6936      87.281626      14547.519      351.87079      13913.197      1.3760873      0.67030465   
     55600  -9093.4999     -9182.9936      89.493696      15175.59       360.78862      13913.456      1.3760617      0.67030465   
     55700  -9095.7318     -9181.7182      85.986473      13974.061      346.64946      13915.355      1.375874       0.67030465   
     55800  -9093.5465     -9180.8349      87.288344      15092.32       351.89787      13919.169      1.3754969      0.67030465   
     55900  -9092.6242     -9180.5778      87.95357       17263.767      354.57969      13922.701      1.3751481      0.67030465   
     56000  -9093.7158     -9181.7538      88.038056      16170.035      354.92029      13923.769      1.3750426      0.69605607   
     56100  -9092.377      -9180.4104      88.033371      15850.284      354.9014       13923.384      1.3750805      0.69605607   
     56200  -9092.7826     -9180.2569      87.474276      14995.126      352.64745      13925.7        1.3748519      0.69605607   
     56300  -9097.2966     -9182.2346      84.937993      17219.905      342.42257      13929.729      1.3744542      0.69605607   
     56400  -9097.1271     -9182.6433      85.516226      13550.004      344.75368      13932.483      1.3741825      0.69605607   
     56500  -9093.8942     -9180.7228      86.828572      12589.685      350.04433      13928.263      1.3745989      0.69605607   
     56600  -9092.562      -9179.8678      87.305827      14192.579      351.96835      13924.083      1.3750115      0.69605607   
     56700  -9091.1776     -9179.5757      88.398082      17219.576      356.37172      13924.428      1.3749775      0.69605607   
     56800  -9089.9747     -9181.0437      91.068962      16197.19       367.13921      13927.131      1.3747106      0.69605607   
     56900  -9089.5088     -9179.9355      90.426628      15304.321      364.54968      13935.306      1.3739042      0.69605607   
     57000  -9086.92       -9177.9174      90.997421      14654.324      366.8508       13949.128      1.3725427      0.67140116   
     57100  -9088.4805     -9177.4708      88.990364      14649.79       358.75947      13968.605      1.370629       0.67140116   
     57200  -9090.4203     -9180.204       89.783704      13607.192      361.95777      13986.238      1.368901       0.67140116   
[...]
    386300  -9092.8035     -9181.7361      88.932628      14899.684      358.52671      13950.321      1.3724254      0.65403351   
    386400  -9093.7702     -9179.5359      85.765707      13031.131      345.75945      13932.847      1.3741466      0.65403351   
    386500  -9091.7689     -9178.3481      86.579132      15919.323      349.03873      13914.722      1.3759365      0.65403351   
    386600  -9091.1341     -9179.6957      88.561583      15482.743      357.03086      13899.614      1.3774321      0.65403351   
    386700  -9094.5464     -9181.9692      87.422751      15233.055      352.43973      13887.438      1.3786398      0.65403351   
    386800  -9094.8642     -9180.4939      85.629749      17705.849      345.21134      13877.403      1.3796367      0.65403351   
    386900  -9096.1199     -9182.9472      86.827327      12804.626      350.03931      13872.992      1.3800754      0.65403351   
    387000  -9094.2798     -9181.6155      87.335763      14203.611      352.08904      13874.019      1.3799732      0.72301372   
    387100  -9092.3884     -9180.2768      87.88842       19557.463      354.31704      13882.055      1.3791744      0.72301372   
    387200  -9093.1736     -9180.3893      87.215736      13704.231      351.60516      13901.189      1.3772761      0.72301372   
    387300  -9094.9719     -9183.0727      88.100868      15471.305      355.17351      13928.257      1.3745995      0.72301372   
    387400  -9098.1365     -9184.7086      86.572041      15456.116      349.01014      13952.057      1.3722546      0.72301372   
    387500  -9097.2184     -9183.2688      86.050375      13061.269      346.90707      13963.262      1.3711535      0.72301372   
    387600  -9095.4682     -9180.1541      84.685874      14155.552      341.40617      13959.463      1.3715266      0.72301372   
    387700  -9094.0066     -9183.3239      89.317289      14546.606      360.07745      13940.942      1.3733487      0.72301372   
    387800  -9095.5885     -9182.0016      86.413083      14097.608      348.36931      13911.736      1.3762318      0.72301372   
    387900  -9095.0763     -9181.9642      86.88787       16752.417      350.28338      13878.926      1.3794853      0.72301372   
    388000  -9096.7321     -9183.6716      86.939507      13893.149      350.49156      13849.516      1.3824147      0.68166362   
    388100  -9097.8641     -9185.7902      87.926025      16210.214      354.46865      13830.149      1.3843505      0.68166362   
    388200  -9096.9911     -9182.6488      85.657641      17162.84       345.32379      13821.925      1.3851743      0.68166362   
    388300  -9099.22       -9182.3738      83.153804      17153.326      335.22971      13830.532      1.3843122      0.68166362   
    388400  -9098.5096     -9184.49        85.980377      15276.387      346.62488      13853.079      1.3820591      0.68166362   
    388500  -9096.2552     -9182.7496      86.494383      14061.877      348.69706      13880.215      1.3793572      0.68166362   
    388600  -9097.849      -9181.0425      83.193562      13723.336      335.39         13907.861      1.3766153      0.68166362   
    388700  -9098.5878     -9184.6705      86.082681      13693.85       347.03731      13935.899      1.3738456      0.68166362   
    388800  -9096.9097     -9183.8572      86.947559      14552.788      350.52402      13952.895      1.3721722      0.68166362   
    388900  -9095.5574     -9181.8974      86.340019      14792.748      348.07476      13955.61       1.3719052      0.68166362   
    389000  -9094.8135     -9182.356       87.542471      18537.712      352.92237      13948.672      1.3725877      0.71545007   
    389100  -9093.9031     -9182.6158      88.712678      14293.462      357.63999      13933          1.3741315      0.71545007   
    389200  -9094.5484     -9178.6455      84.097101      16137.505      339.03256      13910.35       1.376369       0.71545007   
    389300  -9093.5881     -9184.4102      90.822126      11339.935      366.14411      13893.426      1.3780456      0.71545007   
    389400  -9093.7084     -9182.0055      88.297121      15622.162      355.9647       13881.998      1.3791801      0.71545007   
    389500  -9093.6684     -9182.6387      88.970335      15197.462      358.67872      13877.552      1.3796219      0.71545007   
    389600  -9092.5406     -9178.9819      86.441283      19281.611      348.48299      13881.975      1.3791823      0.71545007   
    389700  -9093.213      -9180.9482      87.735252      16686.029      353.69956      13896.883      1.3777028      0.71545007   
    389800  -9091.3844     -9180.006       88.621626      15980.799      357.27292      13915.846      1.3758254      0.71545007   
    389900  -9095.3545     -9181.3444      85.989857      15704.896      346.6631       13929.658      1.3744613      0.71545007   
    390000  -9096.1271     -9181.9048      85.777672      13376.896      345.80769      13942.392      1.3732059      0.67125056   
    390100  -9095.2038     -9183.3558      88.151964      12464.26       355.3795       13946.907      1.3727613      0.67125056   
    390200  -9095.3831     -9182.1088      86.725719      14006.533      349.62968      13940.669      1.3733756      0.67125056   
    390300  -9094.1232     -9181.9099      87.786705      16276.357      353.90698      13928.76       1.3745498      0.67125056   
    390400  -9094.8334     -9181.224       86.39066       11474.386      348.27891      13915.73       1.3758369      0.67125056   
    390500  -9096.1568     -9180.8446      84.687866      13086.096      341.4142       13903.426      1.3770544      0.67125056   
    390600  -9095.7314     -9184.1502      88.418839      13683.344      356.4554       13889.988      1.3783867      0.67125056   
    390700  -9095.7671     -9180.9773      85.21025       14561.442      343.52016      13873.883      1.3799867      0.67125056   
    390800  -9096.5897     -9180.4385      83.848794      14764.909      338.03153      13863.022      1.3810679      0.67125056   
    390900  -9096.9769     -9184.5634      87.586509      16767.737      353.09991      13861.43       1.3812266      0.67125056   
    391000  -9098.4132     -9183.7599      85.346652      15926.12       344.07005      13868.518      1.3805206      0.72788488   
    391100  -9096.5545     -9182.8851      86.330652      15908.008      348.03699      13883.341      1.3790466      0.72788488   
    391200  -9095.5092     -9181.4264      85.917232      11070.175      346.37032      13898.779      1.3775149      0.72788488   
    391300  -9094.6492     -9183.5889      88.939618      14191.691      358.55489      13912.816      1.376125       0.72788488   
    391400  -9093.4485     -9180.1372      86.688694      17598.274      349.48042      13924.811      1.3749396      0.72788488   
    391500  -9094.0633     -9181.1934      87.130083      15574.669      351.25985      13933.615      1.3740708      0.72788488   
    391600  -9094.8012     -9180.6316      85.830371      15209.828      346.02014      13934.278      1.3740055      0.72788488   
    391700  -9094.5571     -9184.2728      89.715742      15500.358      361.68379      13928.648      1.3745609      0.72788488   
    391800  -9091.7557     -9179.7106      87.954937      14734.475      354.5852       13917.899      1.3756225      0.72788488   
    391900  -9092.6777     -9180.0459      87.368187      14282.511      352.21975      13909.953      1.3764083      0.72788488   
    392000  -9092.569      -9179.137       86.567955      15124.938      348.99367      13903.499      1.3770472      0.70588034   
    392100  -9092.2918     -9180.6387      88.346959      16530.961      356.16562      13899.623      1.3774312      0.70588034   
    392200  -9091.9497     -9181.3961      89.446355      14767.764      360.59777      13896.906      1.3777006      0.70588034   
    392300  -9095.8849     -9181.4436      85.558734      16486.033      344.92505      13895.025      1.3778871      0.70588034   
    392400  -9096.2933     -9182.4262      86.132941      15701.206      347.23993      13893.399      1.3780483      0.70588034   
    392500  -9097.448      -9183.3243      85.876273      11547.306      346.20519      13886.687      1.3787143      0.70588034   
    392600  -9097.8613     -9182.9847      85.123422      14133.157      343.17011      13878.357      1.3795419      0.70588034   
    392700  -9097.4924     -9181.1627      83.670243      13059.097      337.31171      13872.31       1.3801432      0.70588034   
    392800  -9098.7494     -9183.9137      85.164341      15782.837      343.33508      13869.347      1.3804381      0.70588034   
    392900  -9097.5009     -9182.8049      85.304015      15641.75       343.89817      13867.011      1.3806706      0.70588034   
    393000  -9096.7705     -9182.5383      85.767842      13971.017      345.76806      13871.107      1.3802629      0.67906039   
    393100  -9095.778      -9181.844       86.066029      13144.363      346.97018      13882.173      1.3791627      0.67906039   
    393200  -9097.1018     -9181.7916      84.689798      15818.518      341.42198      13899.355      1.3774578      0.67906039   
    393300  -9099.2222     -9183.5291      84.306878      13249.527      339.87827      13919.874      1.3754273      0.67906039   
    393400  -9099.2131     -9181.9287      82.715689      14579.901      333.46348      13931.826      1.3742473      0.67906039   
    393500  -9100.0674     -9183.9463      83.878901      15429.979      338.1529       13935.028      1.3739316      0.67906039   
    393600  -9097.1087     -9182.8208      85.712137      15840.716      345.54349      13926.588      1.3747642      0.67906039   
    393700  -9096.1298     -9182.3657      86.235906      14856.913      347.65503      13911.687      1.3762367      0.67906039   
    393800  -9095.9185     -9185.0145      89.095984      15944.973      359.18527      13893.095      1.3780784      0.67906039   
    393900  -9098.8371     -9183.5465      84.709359      18657.356      341.50084      13869.891      1.3803839      0.67906039   
    394000  -9096.8732     -9181.6832      84.81003       16721.413      341.90669      13851.046      1.382262       0.71217905   
    394100  -9096.1857     -9183.0031      86.817397      15428.227      349.99928      13843.755      1.38299        0.71217905   
    394200  -9098.1178     -9182.1475      84.029778      15516.277      338.76115      13849.573      1.382409       0.71217905   
    394300  -9098.0844     -9183.2126      85.12818       12726.867      343.1893       13868.593      1.3805131      0.71217905   
    394400  -9097.5229     -9182.7867      85.263737      10976.54       343.73579      13895.093      1.3778803      0.71217905   
    394500  -9096.0725     -9180.9586      84.886032      14251.333      342.21309      13920.501      1.3753653      0.71217905   
    394600  -9095.7335     -9182.187       86.453494      11685.865      348.53222      13938.241      1.3736149      0.71217905   
    394700  -9092.4709     -9181.6105      89.139529      13955.67       359.36082      13948.251      1.372629       0.71217905   
    394800  -9093.2392     -9180.0719      86.832719      16237.863      350.06105      13954.755      1.3719893      0.71217905   
    394900  -9091.813      -9180.4466      88.633598      15791.068      357.32119      13963.615      1.3711188      0.71217905   
    395000  -9096.0435     -9181.0745      85.031028      13473.077      342.79763      13973.364      1.3701622      0.70383442   
    395100  -9093.0239     -9181.8758      88.85191       13930.835      358.2013       13972.143      1.3702819      0.70383442   
    395200  -9092.2445     -9179.2863      87.041794      14631.097      350.90392      13962.107      1.3712669      0.70383442   
    395300  -9093.4422     -9180.8026      87.360343      14744.499      352.18813      13948.228      1.3726313      0.70383442   
    395400  -9093.4656     -9182.3847      88.919093      14672.473      358.47214      13931.892      1.3742408      0.70383442   
    395500  -9091.5501     -9180.5344      88.984345      16719.227      358.7352       13919.052      1.3755086      0.70383442   
    395600  -9094.5626     -9180.1868      85.624242      15735.082      345.18914      13915.082      1.375901       0.70383442   
    395700  -9095.3863     -9182.1842      86.797891      16042.192      349.92064      13915.189      1.3758903      0.70383442   
    395800  -9096.6114     -9183.1426      86.531171      11564.87       348.84538      13918.824      1.375531       0.70383442   
    395900  -9098.6699     -9183.1463      84.47634       13337.272      340.56144      13916.984      1.3757129      0.70383442   
    396000  -9095.3559     -9183.0391      87.683152      14285.223      353.48952      13910.034      1.3764002      0.66013528   
    396100  -9096.4797     -9182.4958      86.01605       15024.009      346.76869      13903.293      1.3770676      0.66013528   
    396200  -9098.4806     -9183.3984      84.917864      11620.333      342.34142      13896.823      1.3777088      0.66013528   
    396300  -9098.2917     -9184.7939      86.502118      13032.762      348.72825      13886.136      1.3787691      0.66013528   
    396400  -9099.439      -9184.059       84.619942      12677.498      341.14036      13876.813      1.3796954      0.66013528   
    396500  -9098.2146     -9185.8642      87.649573      13697.255      353.35415      13873.506      1.3800243      0.66013528   
    396600  -9097.671      -9183.8972      86.226229      15104.429      347.61602      13876.805      1.3796961      0.66013528   
    396700  -9098.738      -9183.734       84.995946      16604.309      342.6562       13885.89       1.3787935      0.66013528   
    396800  -9097.3156     -9183.3483      86.032646      12650.146      346.8356       13901.014      1.3772934      0.66013528   
    396900  -9094.3543     -9183.577       89.222724      14459.199      359.69621      13924.27       1.374993       0.66013528   
    397000  -9093.8162     -9180.0266      86.210338      15933.492      347.55195      13948.31       1.3726233      0.64615339   
    397100  -9092.0368     -9180.9174      88.88062       13733.952      358.31704      13970.922      1.3704016      0.64615339   
    397200  -9093.9016     -9181.6907      87.789085      13922.528      353.91658      13985.936      1.3689305      0.64615339   
    397300  -9093.6356     -9180.0365      86.400845      15191.174      348.31997      13989.676      1.3685646      0.64615339   
    397400  -9095.543      -9180.4223      84.879331      15546.129      342.18608      13986.171      1.3689075      0.64615339   
    397500  -9093.5125     -9181.3973      87.884757      14508.998      354.30228      13972.756      1.3702218      0.64615339   
    397600  -9094.1888     -9182.2263      88.037492      14673.017      354.91802      13952.582      1.372203       0.64615339   
    397700  -9093.8229     -9179.8039      85.980932      14342.795      346.62712      13930.141      1.3744135      0.64615339   
    397800  -9094.3698     -9181.4158      87.046064      15865.435      350.92113      13910.639      1.3763404      0.64615339   
    397900  -9095.7729     -9184.1105      88.337589      14263.497      356.12784      13892.263      1.3781609      0.64615339   
    398000  -9094.7098     -9180.4582      85.748319      14876.668      345.68935      13877.725      1.3796047      0.73233237   
    398100  -9096.5601     -9182.8874      86.327338      14951.141      348.02363      13876.461      1.3797304      0.73233237   
    398200  -9097.7956     -9184.124       86.328427      13460.167      348.02802      13886.824      1.3787008      0.73233237   
    398300  -9097.8935     -9185.3226      87.429171      15329.646      352.46561      13904.683      1.37693        0.73233237   
    398400  -9096.9413     -9182.5811      85.63981       16871.326      345.2519       13924.105      1.3750094      0.73233237   
    398500  -9095.388      -9183.0005      87.612524      14775.402      353.20478      13942.24       1.3732208      0.73233237   
    398600  -9097.5765     -9181.6063      84.029764      18421.481      338.7611       13959.825      1.371491       0.73233237   
    398700  -9096.5283     -9180.6513      84.122962      14148.68       339.13682      13968.245      1.3706643      0.73233237   
    398800  -9096.7242     -9183.1598      86.435614      13310.194      348.46014      13967.85       1.370703       0.73233237   
    398900  -9095.4653     -9180.9366      85.471274      13014.248      344.57246      13955.96       1.3718709      0.73233237   
    399000  -9093.9288     -9181.85        87.92116       16483.064      354.44903      13934.613      1.3739724      0.65923719   
    399100  -9092.5286     -9180.3676      87.839049      15116.378      354.11801      13913.957      1.3760122      0.65923719   
    399200  -9093.2306     -9180.7319      87.501245      13554.091      352.75617      13900.281      1.377366       0.65923719   
    399300  -9091.5366     -9178.5087      86.97215       15121.599      350.62315      13896.361      1.3777546      0.65923719   
    399400  -9090.0698     -9179.5113      89.441544      13262.964      360.57837      13906.191      1.3767806      0.65923719   
    399500  -9092.5918     -9178.8315      86.239711      15188.833      347.67037      13924.441      1.3749762      0.65923719   
    399600  -9093.2613     -9180.2899      87.028589      15371.743      350.85069      13947.719      1.3726814      0.65923719   
    399700  -9091.7891     -9179.842       88.052878      17301.849      354.98004      13970.065      1.3704857      0.65923719   
    399800  -9094.6191     -9181.716       87.096847      13738.665      351.12586      13986.335      1.3688915      0.65923719   
    399900  -9094.8837     -9184.3518      89.46808       15850.234      360.68535      13989.964      1.3685364      0.65923719   
    400000  -9092.8488     -9182.0867      89.237868      17047.673      359.75727      13974.527      1.3700481      0.775478     
    400100  -9093.7579     -9180.667       86.909038      13049.116      350.36872      13948.943      1.372561       0.775478     
    400200  -9093.9927     -9182.4194      88.426658      16884.785      356.48692      13923.05       1.3751136      0.775478     
    400300  -9097.3014     -9184.0988      86.79741       16734.169      349.9187       13902.871      1.3771094      0.775478     
    400330  -9096.898      -9181.4146      84.516559      15133.19       340.72358      13898.381      1.3775543      0.775478     
Loop time of 562.693 on 4 procs for 200000 steps with 1920 atoms

Performance: 15.355 ns/day, 1.563 hours/ns, 355.434 timesteps/s, 682.433 katom-step/s
99.5% CPU use with 4 MPI tasks x 1 OpenMP threads

MPI task timing breakdown:
Section |  min time  |  avg time  |  max time  |%varavg| %total
---------------------------------------------------------------
Pair    | 275.93     | 281.9      | 295.16     |  46.2 | 50.10
Neigh   | 8.0003     | 8.3535     | 9.2175     |  17.3 |  1.48
Comm    | 65.538     | 78.92      | 86.495     |  89.9 | 14.03
Output  | 0.31245    | 0.31864    | 0.32619    |   0.9 |  0.06
Modify  | 189.51     | 190.79     | 192        |   7.6 | 33.91
Other   |            | 2.413      |            |       |  0.43

Nlocal:            480 ave         491 max         470 min
Histogram: 1 1 0 0 0 0 0 1 0 1
Nghost:           2690 ave        2696 max        2683 min
Histogram: 1 0 0 0 1 0 1 0 0 1
Neighs:              0 ave           0 max           0 min
Histogram: 4 0 0 0 0 0 0 0 0 0
FullNghs:      77559.5 ave       80031 max       75180 min
Histogram: 1 0 1 0 0 0 0 1 0 1

Total # of neighbors = 310238
Ave neighs/atom = 161.58229
Neighbor list builds = 20000
Dangerous builds = 20000
Total wall time: 0:18:47
