LAMMPS (7 Feb 2024 - Update 1)
KOKKOS mode with Kokkos version 4.2.0 is enabled (src/KOKKOS/kokkos.cpp:72)
  will use up to 2 GPU(s) per node
  using 1 OpenMP thread(s) per MPI task
package kokkos
package kokkos newton on neigh half

units		metal						## E in [eV], t in [ps], P in [10000 Pa], l in [A]
atom_style	atomic						## mass x y z vx vy vz

neighbor	0.5 bin						## neighbor list, skin = 0.5 Angstrom
neigh_modify	every 2 delay 10 check yes			## update of neighbor list

############################## main variables
variable        seed equal 92699

variable	temperature equal 310
variable	tempDamp equal 0.1

variable        pressure equal 100
variable        pressureDamp equal 1.0 				# This is 1 ps

##############################

read_data water.dat
Reading data file ...
  orthogonal box = (0 0 0) to (18.207572 23.629178 22.213196)
  1 by 2 by 1 MPI processor grid
  reading atoms ...
  864 atoms
  read_data CPU = 0.010 seconds

mass		1 1.008    # H
mass		2 15.9994  # O


pair_style	pace/extrapolation
ACE/AL version: 2023.11.25
pair_coeff	* * /home/cicn/cicn607503/pd/pot_dir/interim_potential_ladder_step_5.yaml /home/cicn/cicn607503/pd/pot_dir/interim_potential_ladder_step_5.asi H O
Loading /home/cicn/cicn607503/pd/pot_dir/interim_potential_ladder_step_5.yaml
Total number of basis functions
	H: 24 (r=1) 863 (r>1)
	O: 24 (r=1) 863 (r>1)
Mapping LAMMPS atom type #1(H) -> ACE species type #0
Mapping LAMMPS atom type #2(O) -> ACE species type #1
Loading ASI /home/cicn/cicn607503/pd/pot_dir/interim_potential_ladder_step_5.asi
LINEAR ASI is loaded

fix pace_gamma all pair 1000 pace/extrapolation gamma 1
compute max_pace_gamma all reduce max f_pace_gamma
variable dump_skip equal "c_max_pace_gamma < 10"

dump pace_dump all custom 1000 extrapolative_structures.dump id type x y z f_pace_gamma
dump_modify pace_dump skip v_dump_skip
dump_modify pace_dump element H O

variable max_pace_gamma equal c_max_pace_gamma

timestep	0.0005						## timestep = 0.0005*ps = 0.5 fs

thermo		100
thermo_style custom step etotal pe ke press temp vol density c_max_pace_gamma


min_style cg/kk
minimize 0.0 5.0e-4 10000 100000
Switching to 'neigh_modify every 1 delay 0 check yes' setting during minimization
Neighbor list info ...
  update: every = 1 steps, delay = 0 steps, check = yes
  max neighbors/atom: 2000, page size: 100000
  master list distance cutoff = 6.5
  ghost atom cutoff = 6.5
  binsize = 6.5, bins = 3 4 4
  1 neighbor lists, perpetual/occasional/extra = 1 0 0
  (1) pair pace/extrapolation/kk, perpetual
      attributes: full, newton on, kokkos_device
      pair build: full/bin/kk/device
      stencil: full/bin/3d
      bin: kk/device
WARNING: Fix with atom-based arrays not compatible with sending data in Kokkos communication, switching to classic exchange/border communication (src/KOKKOS/comm_kokkos.cpp:666)
WARNING: Fix with atom-based arrays not compatible with Kokkos sorting on device, switching to classic host sorting (src/KOKKOS/atom_kokkos.cpp:218)
Per MPI rank memory allocation (min/avg/max) = 449.3 | 453 | 456.7 Mbytes
   Step         TotEng         PotEng         KinEng         Press           Temp          Volume        Density     c_max_pace_gamma
         0  -4180.2701     -4180.2701      0              309.14185      0              9556.7825      0.90151666     0.58778244   
       100  -4182.3963     -4182.3963      0             -6479.0667      0              9556.7825      0.90151666     0.58778244   
       174  -4182.3964     -4182.3964      0             -6480.3888      0              9556.7825      0.90151666     0.58778244   
Loop time of 0.619898 on 2 procs for 174 steps with 864 atoms

99.7% CPU use with 2 MPI tasks x 1 OpenMP threads

Minimization stats:
  Stopping criterion = force tolerance
  Energy initial, next-to-last, final = 
      -4180.2701144618  -4182.39644829382  -4182.39644830578
  Force two-norm initial, final = 6.6050737 0.00039957885
  Force max component initial, final = 0.28115465 3.2573508e-05
  Final line search alpha, max atom move = 1 3.2573508e-05
  Iterations, force evaluations = 174 348

MPI task timing breakdown:
Section |  min time  |  avg time  |  max time  |%varavg| %total
---------------------------------------------------------------
Pair    | 0.42697    | 0.42785    | 0.42873    |   0.1 | 69.02
Neigh   | 0.00042915 | 0.00046257 | 0.000496   |   0.0 |  0.07
Comm    | 0.063686   | 0.06382    | 0.063953   |   0.1 | 10.30
Output  | 0.00015262 | 0.00015315 | 0.00015369 |   0.0 |  0.02
Modify  | 0.080308   | 0.081905   | 0.083502   |   0.6 | 13.21
Other   |            | 0.0457     |            |       |  7.37

Nlocal:            432 ave         433 max         431 min
Histogram: 1 0 0 0 0 0 0 0 0 1
Nghost:           2186 ave        2191 max        2181 min
Histogram: 1 0 0 0 0 0 0 0 0 1
Neighs:              0 ave           0 max           0 min
Histogram: 2 0 0 0 0 0 0 0 0 0
FullNghs:        46055 ave       46168 max       45942 min
Histogram: 1 0 0 0 0 0 0 0 0 1

Total # of neighbors = 92110
Ave neighs/atom = 106.6088
Neighbor list builds = 1
Dangerous builds = 0

################## equilibration of main calculation
# Equilibrate to specified number of ice

fix             3 all nph aniso ${pressure} ${pressure} ${pressureDamp}
fix             3 all nph aniso 100 ${pressure} ${pressureDamp}
fix             3 all nph aniso 100 100 ${pressureDamp}
fix             3 all nph aniso 100 100 1
fix             4 all temp/csvr ${temperature} ${temperature} ${tempDamp} ${seed}
fix             4 all temp/csvr 310 ${temperature} ${tempDamp} ${seed}
fix             4 all temp/csvr 310 310 ${tempDamp} ${seed}
fix             4 all temp/csvr 310 310 0.1 ${seed}
fix             4 all temp/csvr 310 310 0.1 92699
velocity 	all create ${temperature} ${seed} dist gaussian
velocity 	all create 310 ${seed} dist gaussian
velocity 	all create 310 92699 dist gaussian

run 200000
WARNING: Fix with atom-based arrays not compatible with sending data in Kokkos communication, switching to classic exchange/border communication (src/KOKKOS/comm_kokkos.cpp:666)
WARNING: Fix with atom-based arrays not compatible with Kokkos sorting on device, switching to classic host sorting (src/KOKKOS/atom_kokkos.cpp:218)
Per MPI rank memory allocation (min/avg/max) = 454.1 | 455.3 | 456.4 Mbytes
   Step         TotEng         PotEng         KinEng         Press           Temp          Volume        Density     c_max_pace_gamma
       174  -4147.8155     -4182.3964      34.580967     -2615.4331      310            9556.7825      0.90151666     0.58778244   
       200  -4145.742      -4160.4202      14.678171     -3091.3341      131.58201      9553.6877      0.90180869     0.58778244   
       300  -4138.122      -4160.1955      22.073494      675.92738      197.87715      9516.5603      0.90532696     0.58778244   
       400  -4132.1233     -4156.8992      24.775878     -840.54264      222.10259      9445.6882      0.91211973     0.58778244   
       500  -4127.4155     -4154.5654      27.149921      579.80429      243.38463      9353.1454      0.92114452     0.58778244   
       600  -4123.5759     -4151.218       27.642089      3569.1966      247.79664      9263.9112      0.93001739     0.58778244   
       700  -4122.5889     -4151.2475      28.658617      5466.4323      256.90929      9204.239       0.93604681     0.58778244   
       800  -4120.3356     -4151.4453      31.10967       3885.7395      278.88167      9188.6749      0.93763232     0.58778244   
       900  -4119.4698     -4150.8877      31.41789       1702.3486      281.6447       9225.4533      0.93389434     0.58778244   
      1000  -4116.5441     -4149.3151      32.770975      2015.4775      293.77438      9309.0851      0.92550433     0.73415413   
      1100  -4113.5637     -4147.0447      33.481089      2338.2188      300.14018      9423.5363      0.91426385     0.73415413   
      1200  -4112.8243     -4145.9085      33.084264      1035.4626      296.58286      9547.7033      0.90237394     0.73415413   
      1300  -4111.6565     -4145.5131      33.856601     -408.09087      303.50644      9652.0517      0.89261836     0.73415413   
      1400  -4109.9107     -4144.6459      34.735244     -3160.7528      311.38301      9723.8483      0.88602766     0.73415413   
      1500  -4108.6178     -4143.9021      35.284319      531.87664      316.30518      9763.4446      0.88243432     0.73415413   
      1600  -4107.5314     -4141.8701      34.338673     -1285.3068      307.82797      9773.4192      0.88153372     0.73415413   
      1700  -4108.6142     -4144.8848      36.270583     -579.52935      325.14651      9762.4992      0.88251978     0.73415413   
      1800  -4110.0277     -4142.7881      32.760384      663.93524      293.67944      9727.6121      0.88568484     0.73415413   
      1900  -4109.4237     -4142.6664      33.242628     -1175.5607      298.00251      9677.0205      0.89031521     0.73415413   
      2000  -4109.3015     -4145.555       36.25352       545.17158      324.99355      9621.465       0.895456       0.81872806   
      2100  -4109.6845     -4144.5942      34.909758      1618.0272      312.94744      9569.3728      0.90033054     0.81872806   
      2200  -4110.6552     -4143.9646      33.309385      1849.2222      298.60095      9529.2052      0.90412562     0.81872806   
      2300  -4110.687      -4143.5301      32.843124     -14.650688      294.42116      9503.2143      0.90659837     0.81872806   
      2400  -4110.3601     -4145.0259      34.665794      4869.2944      310.76044      9491.735       0.90769481     0.81872806   
      2500  -4109.4802     -4144.9314      35.451173      1864.0617      317.80093      9496.9183      0.9071994      0.81872806   
      2600  -4109.2079     -4144.3286      35.120665      3863.8728      314.83811      9520.1558      0.90498504     0.81872806   
      2700  -4108.6878     -4145.1728      36.485045      2155.6         327.06905      9564.4922      0.90078996     0.81872806   
      2800  -4109.7999     -4145.0589      35.258965      971.84826      316.0779       9618.9872      0.89568667     0.81872806   
      2900  -4109.2761     -4143.6435      34.367412     -417.18745      308.08559      9673.0455      0.89068108     0.81872806   
      3000  -4109.0618     -4142.8643      33.802473     -3495.4497      303.02122      9715.7205      0.88676888     0.85227965   
      3100  -4108.7828     -4142.2908      33.508027     -40.750017      300.38167      9742.3708      0.88434312     0.85227965   
      3200  -4109.9009     -4144.6812      34.780343      1709.2925      311.7873       9750.7712      0.88358125     0.85227965   
      3300  -4112.4636     -4146.3174      33.853866     -5401.0673      303.48193      9736.7917      0.88484984     0.85227965   
      3400  -4112.1039     -4145.7524      33.648508      2173.4294      301.641        9699.5145      0.8882505      0.85227965   
      3500  -4110.7154     -4144.508       33.792609     -1205.68        302.9328       9649.033       0.89289762     0.85227965   
      3600  -4109.5371     -4145.2146      35.677519      1114.7742      319.83001      9596.9043      0.89774768     0.85227965   
      3700  -4110.2288     -4145.716       35.487285      1604.4801      318.12466      9552.2276      0.90194654     0.85227965   
      3800  -4110.9446     -4144.3214      33.376786      2944.8948      299.20516      9520.5992      0.90494289     0.85227965   
      3900  -4110.7843     -4146.0778      35.293492     -2200.124       316.38741      9503.8363      0.90653903     0.85227965   
      4000  -4110.1968     -4145.4415      35.24471       3249.5712      315.95011      9502.9276      0.90662572     0.82640947   
      4100  -4109.6536     -4143.6313      33.97768       1772.0964      304.59186      9521.6452      0.90484348     0.82640947   
      4200  -4109.5839     -4143.1436      33.559691     -692.81232      300.84481      9554.9815      0.90168658     0.82640947   
      4300  -4109.8697     -4145.3419      35.472216     -3073.3432      317.98958      9596.0011      0.89783218     0.82640947   
      4400  -4111.4023     -4143.6229      32.220627     -2517.2068      288.84081      9637.3431      0.89398069     0.82640947   
      4500  -4110.8764     -4143.997       33.120594      1914.6429      296.90854      9673.1199      0.89067423     0.82640947   
      4600  -4109.9903     -4144.9499      34.959593      3281.5475      313.39419      9699.2198      0.88827749     0.82640947   
      4700  -4110.6253     -4144.3669      33.741596      90.489698      302.47549      9712.2378      0.88708687     0.82640947   
      4800  -4108.4707     -4143.434       34.963379     -1408.5033      313.42813      9712.8893      0.88702736     0.82640947   
      4900  -4107.6044     -4143.2651      35.660673     -2791.2008      319.67899      9701.3369      0.88808364     0.82640947   
      5000  -4107.4008     -4142.7839      35.383071     -876.99495      317.19044      9679.8412      0.89005578     0.8820169    
      5100  -4108.1172     -4143.335       35.217885      403.381        315.70964      9652.982       0.89253234     0.8820169    
      5200  -4107.7088     -4143.219       35.510182     -1501.1707      318.32992      9627.3996      0.89490402     0.8820169    
      5300  -4107.6873     -4145.0071      37.319868      1382.9202      334.55279      9608.5577      0.89665888     0.8820169    
      5400  -4107.799      -4144.9077      37.108699      4974.2407      332.65978      9598.8675      0.89756407     0.8820169    
      5500  -4108.9149     -4142.5743      33.659451     -2021.3037      301.7391       9598.8905      0.89756192     0.8820169    
      5600  -4110.2261     -4143.1958      32.969691      1978.5827      295.55577      9604.1369      0.89707161     0.8820169    
      5700  -4111.0005     -4145.279       34.278535      722.48039      307.28886      9608.141       0.89669776     0.8820169    
      5800  -4110.0835     -4143.7567      33.673156      2029.7651      301.86196      9612.9371      0.89625039     0.8820169    
      5900  -4110.2539     -4144.9055      34.651612     -663.86139      310.6333       9622.4088      0.89536817     0.8820169    
      6000  -4109.1314     -4144.4984      35.367028      1325.2879      317.04663      9632.3959      0.89443984     0.89226769   
      6100  -4108.5474     -4142.7577      34.21036      -2456.6462      306.67771      9644.8878      0.89328137     0.89226769   
      6200  -4109.0329     -4143.3104      34.277572      88.72075       307.28023      9658.1933      0.89205075     0.89226769   
      6300  -4109.6925     -4143.7572      34.064692     -566.46354      305.37187      9668.6088      0.89108979     0.89226769   
      6400  -4108.7423     -4144.0439      35.301627     -2622.378       316.46034      9676.9336      0.89032321     0.89226769   
      6500  -4108.3059     -4143.4388      35.132879      1522.6288      314.9476       9679.8837      0.89005187     0.89226769   
      6600  -4110.062      -4144.7147      34.652713     -1210.7714      310.64317      9674.3901      0.89055728     0.89226769   
      6700  -4109.8605     -4144.9831      35.122553      971.61095      314.85503      9658.0225      0.89206652     0.89226769   
      6800  -4109.5427     -4144.5194      34.976756     -147.47473      313.54805      9630.4617      0.89461948     0.89226769   
      6900  -4109.6186     -4144.6781      35.059491      2692.299       314.28971      9598.7485      0.8975752      0.89226769   
      7000  -4109.1573     -4145.7027      36.545467      2969.3704      327.61071      9573.6362      0.8999296      0.79402515   
      7100  -4108.8936     -4143.3512      34.457612     -752.51633      308.89419      9559.3062      0.90127865     0.79402515   
      7200  -4110.0068     -4144.5999      34.593114     -825.12813      310.1089       9556.6194      0.90153204     0.79402515   
      7300  -4109.1445     -4143.3776      34.233052      925.23927      306.88113      9562.9059      0.90093939     0.79402515   
      7400  -4110.1518     -4144.2945      34.142717      1181.6447      306.07132      9574.0085      0.8998946      0.79402515   
      7500  -4110.6018     -4145.3746      34.772783      209.19805      311.71953      9592.7288      0.89813845     0.79402515   
      7600  -4111.8222     -4145.9601      34.137986     -1140.8203      306.02892      9616.47        0.89592112     0.79402515   
      7700  -4110.6765     -4145.3691      34.692576      1262.9249      311.00052      9641.6341      0.89358282     0.79402515   
      7800  -4110.5468     -4145.5492      35.002443     -610.05185      313.77831      9667.3333      0.89120736     0.79402515   
      7900  -4109.3874     -4142.8636      33.476188     -248.58124      300.09624      9681.3048      0.88992122     0.79402515   
      8000  -4108.5895     -4143.7328      35.143364      221.03867      315.0416       9682.5973      0.88980243     0.86237149   
      8100  -4107.9086     -4141.7747      33.866008      1480.9693      303.59077      9669.3978      0.89101708     0.86237149   
      8200  -4108.7601     -4143.3216      34.561435     -748.49884      309.82491      9647.9473      0.8929981      0.86237149   
      8300  -4108.3042     -4142.6687      34.364517      1158.8576      308.05965      9622.1226      0.8953948      0.86237149   
      8400  -4108.6224     -4143.1827      34.560374     -871.60633      309.8154       9595.3621      0.89789197     0.86237149   
      8500  -4109.2646     -4142.9327      33.668122      462.53786      301.81683      9567.1657      0.90053825     0.86237149   
      8600  -4109.3687     -4144.8223      35.453587      2023.4418      317.82257      9540.5962      0.90304615     0.86237149   
      8700  -4109.9719     -4144.7839      34.811944      455.52455      312.07059      9525.1415      0.90451135     0.86237149   
      8800  -4108.6698     -4144.6995      36.029754      727.16771      322.98761      9526.4395      0.90438811     0.86237149   
      8900  -4109.5929     -4145.4686      35.8757        2475.8822      321.60659      9544.325       0.90269334     0.86237149   
      9000  -4110.4595     -4145.3277      34.868177      1617.9055      312.57469      9577.8451      0.89953413     0.83506239   
      9100  -4109.9021     -4144.5763      34.67417      -1186.2845      310.83551      9620.4811      0.89554758     0.83506239   
      9200  -4109.151      -4145.0198      35.86882       730.998        321.54492      9666.1305      0.89131825     0.83506239   
      9300  -4111.5342     -4145.2407      33.706537      2466.4321      302.1612       9707.7805      0.88749417     0.83506239   
      9400  -4109.3032     -4143.1702      33.867032      2044.7085      303.59996      9736.7877      0.8848502      0.83506239   
      9500  -4108.978      -4144.2784      35.300395      1585.1629      316.44929      9750.7502      0.88358315     0.83506239   
      9600  -4110.3496     -4144.1964      33.846761     -518.91827      303.41824      9748.2875      0.88380637     0.83506239   
      9700  -4110.769      -4144.4756      33.70667      -1521.3337      302.1624       9729.0294      0.88555582     0.83506239   
      9800  -4109.5819     -4144.367       34.785096     -3530.4272      311.82991      9690.1159      0.88911203     0.83506239   
      9900  -4110.1515     -4143.9448      33.793345      576.142        302.93939      9639.7034      0.89376179     0.83506239   
     10000  -4109.9969     -4144.3363      34.339381      1109.2905      307.83431      9586.3979      0.89873159     0.86052111   
     10100  -4110.7504     -4145.2648      34.514382      1195.8766      309.40311      9539.5108      0.90314889     0.86052111   
     10200  -4111.5812     -4144.8652      33.284046      1867.7402      298.37379      9501.2721      0.90678369     0.86052111   
     10300  -4110.7689     -4144.824       34.055065      1145.5751      305.28557      9476.6441      0.90914025     0.86052111   
     10400  -4111.0422     -4145.5493      34.507076      1650.4274      309.33761      9468.9096      0.90988286     0.86052111   
     10500  -4111.7178     -4146.1602      34.442458      1194.7159      308.75835      9480.2948      0.90879016     0.86052111   
     10600  -4111.3824     -4144.393       33.010513     -286.49997      295.92171      9510.5932      0.90589498     0.86052111   
     10700  -4111.3853     -4146.2009      34.815565     -863.15746      312.10305      9556.8825      0.90150722     0.86052111   
     10800  -4112.1616     -4145.1601      32.998441     -814.21438      295.8135       9607.3092      0.89677541     0.86052111   
     10900  -4110.4576     -4142.943       32.485338      466.11653      291.2138       9655.6756      0.89228335     0.86052111   
     11000  -4109.3247     -4143.1696      33.84489       385.27871      303.40147      9695.306       0.88863606     0.83116497   
     11100  -4108.9376     -4143.6086      34.670986     -1587.9457      310.80698      9717.4964      0.88660682     0.83116497   
     11200  -4108.0719     -4141.7554      33.683493      437.71712      301.95463      9719.5801      0.88641675     0.83116497   
     11300  -4109.3916     -4144.8954      35.503777     -1113.7043      318.27251      9704.1807      0.88782339     0.83116497   
     11400  -4110.0146     -4146.3259      36.3113       -253.77909      325.51152      9675.1196      0.89049014     0.83116497   
     11500  -4110.3649     -4143.5046      33.139612      168.39778      297.07902      9637.4009      0.89397532     0.83116497   
     11600  -4110.4266     -4144.0413      33.614756     -702.16995      301.33844      9601.7673      0.897293       0.83116497   
     11700  -4110.4986     -4144.5952      34.09661       486.22505      305.658        9570.7708      0.90019903     0.83116497   
     11800  -4109.5378     -4144.0575      34.519751     -1249.2351      309.45123      9546.7386      0.90246512     0.83116497   
     11900  -4110.2767     -4144.4778      34.201075      3089.4532      306.59447      9533.8527      0.90368489     0.83116497   
     12000  -4111.3066     -4144.784       33.477391     -165.20527      300.10704      9534.7361      0.90360116     0.82016287   
     12100  -4111.5337     -4145.4529      33.919238      1293.6267      304.06796      9544.8296      0.90264562     0.82016287   
     12200  -4111.3786     -4145.9288      34.550288      1329.2713      309.72498      9566.3727      0.90061289     0.82016287   
     12300  -4110.1264     -4143.3272      33.200856     -906.25187      297.62804      9593.6066      0.89805627     0.82016287   
     12400  -4111.4913     -4144.3881      32.89685      -87.906532      294.90279      9615.1215      0.89604677     0.82016287   
     12500  -4111.908      -4144.2969      32.388947      24.363854      290.34971      9627.0783      0.89493388     0.82016287   
     12600  -4110.3851     -4143.9151      33.530017     -291.59469      300.5788       9632.6071      0.89442022     0.82016287   
     12700  -4110.7862     -4145.3875      34.601215      1999.9082      310.18152      9629.7838      0.89468245     0.82016287   
     12800  -4110.1464     -4145.0246      34.878189      421.30988      312.66444      9621.5187      0.89545101     0.82016287   
     12900  -4108.6819     -4143.3277      34.64585      -1247.8371      310.58165      9610.7057      0.89645848     0.82016287   
     13000  -4109.2352     -4143.2302      33.994971      771.90541      304.74687      9598.2459      0.8976222      0.84079713   
     13100  -4110.3294     -4144.1875      33.858137     -2180.319       303.52022      9583.8116      0.89897411     0.84079713   
     13200  -4109.7638     -4145.3141      35.550258      2597.9343      318.68918      9565.4383      0.90070087     0.84079713   
     13300  -4110.5403     -4144.6302      34.089981     -1156.4903      305.59858      9547.7241      0.90237197     0.84079713   
     13400  -4110.3793     -4144.5067      34.127365     -120.84928      305.9337       9533.166       0.90374998     0.84079713   
     13500  -4108.6342     -4144.4131      35.778967      765.85435      320.73944      9526.4209      0.90438988     0.84079713   
     13600  -4108.7556     -4144.3115      35.555884      1346.8727      318.73961      9533.9889      0.90367198     0.84079713   
     13700  -4108.588      -4143.8622      35.274213      2926.6859      316.21458      9550.6796      0.90209273     0.84079713   
     13800  -4109.9111     -4143.752       33.840821     -1395.1171      303.36499      9573.5429      0.89993837     0.84079713   
     13900  -4111.2783     -4143.4447      32.166393     -3129.7427      288.35463      9603.1104      0.8971675      0.84079713   
     14000  -4111.0844     -4145.5542      34.46982      -2407.6995      309.00363      9630.7971      0.89458832     0.83802811   
     14100  -4111.0532     -4145.0779      34.02466      -319.42048      305.013        9650.026       0.89280574     0.83802811   
     14200  -4109.9981     -4143.6906      33.69247      -1444.7315      302.0351       9661.0544      0.89178657     0.83802811   
     14300  -4110.2987     -4143.7829      33.48416      -2295.6219      300.16771      9661.4555      0.89174955     0.83802811   
     14400  -4110.3531     -4144.7132      34.360097     -2975.3176      308.02003      9647.003       0.89308551     0.83802811   
     14500  -4110.0714     -4144.7038      34.632377     -362.0724       310.46087      9621.4825      0.89545437     0.83802811   
     14600  -4109.5807     -4144.195       34.614249      1770.848       310.29836      9592.8655      0.89812566     0.83802811   
     14700  -4109.3305     -4144.1012      34.770747      1295.0055      311.70128      9567.3237      0.90052337     0.83802811   
     14800  -4108.9145     -4143.7042      34.789645      299.90514      311.87069      9548.1748      0.90232938     0.83802811   
     14900  -4109.3096     -4144.3228      35.013211     -3426.7469      313.87484      9538.4363      0.90325063     0.83802811   
     15000  -4110.3165     -4145.8709      35.554379      391.4628       318.72613      9535.9469      0.90348642     0.86571913   
     15100  -4110.7873     -4144.9737      34.186401      3289.9567      306.46293      9536.5589      0.90342844     0.86571913   
     15200  -4111.3515     -4144.9227      33.571272      1973.5758      300.94862      9546.1362      0.90252206     0.86571913   
     15300  -4112.3872     -4146.764       34.376818      1934.1018      308.16992      9565.0079      0.9007414      0.86571913   
     15400  -4111.7781     -4145.9196      34.141526     -1326.3119      306.06065      9592.2717      0.89818125     0.86571913   
     15500  -4112.1443     -4142.6958      30.551509     -1154.7847      273.87806      9623.249       0.89529        0.86571913   
     15600  -4112.23       -4146.1454      33.915321     -2095.2707      304.03284      9651.4003      0.89267861     0.86571913   
     15700  -4112.5701     -4146.2745      33.704398     -324.81419      302.14203      9666.2511      0.89130714     0.86571913   
     15800  -4111.9548     -4146.0453      34.090478     -3036.0907      305.60303      9670.1123      0.89095125     0.86571913   
     15900  -4111.0253     -4145.3244      34.299119      1248.4854      307.47339      9662.9675      0.89161001     0.86571913   
     16000  -4109.925      -4144.8238      34.898875     -530.33089      312.84988      9642.3821      0.8935135      0.91354924   
     16100  -4109.8575     -4144.5151      34.65759       638.60358      310.68689      9611.3524      0.89639816     0.91354924   
     16200  -4109.3943     -4143.4023      34.00801       538.89785      304.86375      9571.1939      0.90015924     0.91354924   
     16300  -4112.0841     -4146.7657      34.681638     -632.67701      310.90246      9528.2544      0.90421584     0.91354924   
     16400  -4111.277      -4145.3693      34.092307      1122.7031      305.61942      9485.9634      0.90824708     0.91354924   
     16500  -4111.3634     -4145.1061      33.7427        2197.1595      302.48538      9461.3872      0.91060628     0.91354924   
     16600  -4111.3699     -4144.3596      32.989698     -358.21549      295.73512      9458.7248      0.91086259     0.91354924   
     16700  -4110.7923     -4145.0919      34.299586      1708.3739      307.47758      9476.2163      0.9091813      0.91354924   
     16800  -4112.3377     -4145.6259      33.288153     -3671.2762      298.41061      9511.007       0.90585556     0.91354924   
     16900  -4110.9311     -4146.3706      35.439485      1835.1189      317.69616      9555.7989      0.90160945     0.91354924   
     17000  -4110.1756     -4143.8679      33.692311      1640.3475      302.03368      9606.42        0.89685841     0.80346855   
     17100  -4110.7356     -4144.4946      33.758998     -892.94755      302.63149      9660.7422      0.89181539     0.80346855   
     17200  -4111.1278     -4145.5748      34.446994     -3046.8247      308.799        9712.4507      0.88706742     0.80346855   
     17300  -4110.281      -4144.0386      33.757593      1675.7879      302.61889      9748.3701      0.88379888     0.80346855   
     17400  -4110.3262     -4144.2803      33.954159     -695.66459      304.38101      9764.0504      0.88237957     0.80346855   
     17500  -4108.4943     -4144.0439      35.549611      1839.6321      318.68338      9755.5661      0.88314697     0.80346855   
     17600  -4107.4381     -4143.1541      35.715989     -1638.3543      320.17488      9724.854       0.88593604     0.80346855   
     17700  -4109.1917     -4144.1811      34.989438     -225.42455      313.66173      9677.7661      0.89024662     0.80346855   
     17800  -4108.063      -4143.3636      35.300586     -2035.9095      316.451        9619.4253      0.89564588     0.80346855   
     17900  -4107.4981     -4143.8988      36.400706      309.95889      326.31299      9563.2236      0.90090946     0.80346855   
     18000  -4109.0458     -4143.6421      34.59634       1849.8863      310.13782      9518.9601      0.90509872     0.81794111   
     18100  -4108.9331     -4143.5467      34.613584      4353.7715      310.2924       9495.657       0.9073199      0.81794111   
     18200  -4109.4431     -4144.7762      35.333163      1949.0611      316.74304      9494.4939      0.90743105     0.81794111   
     18300  -4109.7498     -4143.7851      34.035339     -1222.5504      305.10874      9512.4713      0.90571612     0.81794111   
     18400  -4110.4073     -4143.5618      33.154529      2318.5766      297.21274      9543.3146      0.90278891     0.81794111   
     18500  -4109.8758     -4144.0717      34.195886     -390.53849      306.54796      9581.3166      0.89920822     0.81794111   
     18600  -4110.5749     -4145.676       35.101056     -996.83118      314.66233      9612.124       0.8963262      0.81794111   
     18700  -4109.5983     -4144.6874      35.089054     -1764.487       314.55473      9632.9006      0.89439297     0.81794111   
     18800  -4111.05       -4144.4344      33.384368      2645.8101      299.27313      9643.1491      0.89344243     0.81794111   
     18900  -4110.8849     -4145.2531      34.368203     -232.33205      308.09268      9641.3545      0.89360873     0.81794111   
     19000  -4111.094      -4144.9472      33.853185     -1647.5863      303.47582      9629.9921      0.8946631      0.83310816   
     19100  -4110.8313     -4143.7974      32.966059     -1759.3856      295.52321      9611.5323      0.89638138     0.83310816   
     19200  -4110.8607     -4144.5255      33.664795     -2687.7676      301.78701      9589.9828      0.89839562     0.83310816   
     19300  -4110.2722     -4144.9771      34.704931      1387.3584      311.11127      9568.4188      0.90042031     0.83310816   
     19400  -4109.4417     -4143.4816      34.039868      507.12624      305.14934      9552.703       0.90190165     0.83310816   
     19500  -4110.8254     -4144.7444      33.919033      909.1071       304.06612      9548.2588      0.90232144     0.83310816   
     19600  -4110.4147     -4144.8189      34.404152      1044.8364      308.41495      9554.174       0.90176279     0.83310816   
     19700  -4110.538      -4146.497       35.959047      949.75768      322.35376      9570.8509      0.90019149     0.83310816   
     19800  -4110.4981     -4144.3427      33.844559      2309.8863      303.3985       9595.0065      0.89792525     0.83310816   
     19900  -4110.0051     -4143.7236      33.718485      833.79678      302.26831      9622.3521      0.89537345     0.83310816   
     20000  -4109.1625     -4143.4873      34.324807     -1980.6736      307.70367      9647.3775      0.89305084     0.83698986   
     20100  -4110.2155     -4144.0933      33.877719      1209.3319      303.69576      9663.6274      0.89154913     0.83698986   
     20200  -4110.3736     -4144.574       34.200348      929.46582      306.58796      9670.0254      0.89095925     0.83698986   
     20300  -4109.6578     -4143.9986      34.340812     -2645.1664      307.84714      9661.164       0.89177646     0.83698986   
     20400  -4109.1219     -4142.6939      33.571969      986.95064      300.95487      9643.6767      0.89339355     0.83698986   
     20500  -4109.7299     -4144.443       34.713036     -554.62724      311.18393      9625.4836      0.89508215     0.83698986   
     20600  -4110.3881     -4144.0711      33.682983     -1011.7884      301.95006      9607.0124      0.89680311     0.83698986   
     20700  -4110.9035     -4144.759       33.855568      2607.9588      303.49719      9592.21        0.89818703     0.83698986   
     20800  -4111.669      -4144.5114      32.842439      913.25737      294.41502      9576.2551      0.89968349     0.83698986   
     20900  -4110.3264     -4145.0114      34.685041      895.44548      310.93298      9560.0584      0.90120774     0.83698986   
     21000  -4111.7398     -4145.6746      33.934832      1554.7995      304.20775      9553.9213      0.90178664     0.93166743   
     21100  -4110.9158     -4144.3922      33.476418      29.188085      300.09831      9556.2151      0.90157019     0.93166743   
     21200  -4109.5683     -4144.7618      35.193496      2551.0259      315.49101      9567.0122      0.90055269     0.93166743   
     21300  -4108.7908     -4143.8968      35.106002     -166.87326      314.70666      9588.8923      0.8984978      0.93166743   
     21400  -4107.0876     -4142.9689      35.881285      680.89865      321.65667      9619.8951      0.89560214     0.93166743   
     21500  -4107.5901     -4142.0867      34.496556      1206.8452      309.24331      9658.1451      0.89205521     0.93166743   
     21600  -4107.6792     -4143.2548      35.575599     -1010.4762      318.91635      9694.1317      0.88874371     0.93166743   
     21700  -4107.0205     -4142.6514      35.630945      609.97432      319.4125       9721.6734      0.88622589     0.93166743   
     21800  -4106.3372     -4141.9416      35.604395      209.28874      319.17449      9735.5954      0.88495857     0.93166743   
     21900  -4106.8957     -4142.0897      35.194031     -435.27878      315.4958       9737.0847      0.88482322     0.93166743   
     22000  -4106.7447     -4143.1372      36.392473     -1708.3515      326.23919      9726.8604      0.88575329     0.79714451   
     22100  -4108.0015     -4142.6595      34.658055      1593.3788      310.69106      9702.4602      0.88798083     0.79714451   
     22200  -4108.0538     -4143.6007      35.546893      644.91234      318.65902      9669.1618      0.89103882     0.79714451   
     22300  -4110.4088     -4144.7553      34.346555      805.06095      307.89863      9630.7323      0.89459434     0.79714451   
     22400  -4108.6167     -4143.6301      35.013411      3132.8923      313.87663      9590.6245      0.89833551     0.79714451   
     22500  -4109.366      -4144.9492      35.583181      494.0881       318.98432      9552.6966      0.90190225     0.79714451   
     22600  -4109.4081     -4145.4883      36.080214      2044.9958      323.43996      9522.3739      0.90477424     0.79714451   
     22700  -4108.5872     -4143.3089      34.721647      1806.1824      311.26112      9503.9752      0.90652579     0.79714451   
     22800  -4109.0501     -4143.2354      34.18524       1497.4515      306.45252      9498.3345      0.90706413     0.79714451   
     22900  -4110.3021     -4143.7021      33.399958      4131.034       299.41289      9502.8099      0.90663695     0.79714451   
     23000  -4111.2401     -4145.5331      34.293011      2309.1406      307.41863      9519.5591      0.90504177     0.78520301   
     23100  -4111.2308     -4145.343       34.112265      57.286171      305.79834      9547.0809      0.90243277     0.78520301   
     23200  -4110.733      -4144.2489      33.515953     -1910.5042      300.45272      9580.2734      0.89930613     0.78520301   
     23300  -4110.6056     -4144.3612      33.755605      918.71346      302.60107      9614.9096      0.89606652     0.78520301   
     23400  -4109.627      -4143.17        33.542929      2348.2433      300.69454      9643.1655      0.89344091     0.78520301   
     23500  -4109.7636     -4145.1002      35.336588     -2224.3752      316.77375      9662.4174      0.89166078     0.78520301   
     23600  -4111.4677     -4144.1648      32.697154     -3497.9999      293.11262      9669.2099      0.89103439     0.78520301   
     23700  -4109.7164     -4143.2642      33.547861     -1187.475       300.73876      9663.0964      0.89159812     0.78520301   
     23800  -4110.025      -4144.8165      34.791501      734.89231      311.88733      9651.2157      0.89269568     0.78520301   
     23900  -4109.0083     -4142.5237      33.515424      1500.1499      300.44797      9632.3508      0.89444402     0.78520301   
     24000  -4110.2034     -4142.9412      32.737752      477.00723      293.47656      9608.9653      0.89662085     0.82262962   
     24100  -4109.2768     -4143.8366      34.559868     -1026.8556      309.81087      9582.2404      0.89912152     0.82262962   
     24200  -4108.2747     -4142.152       33.877275     -205.79925      303.69178      9554.3317      0.9017479      0.82262962   
     24300  -4109.8447     -4143.9322      34.087447      581.69302      305.57586      9545.7694      0.90255675     0.82262962   
     24400  -4110.3564     -4144.0918      33.735385     -59.069224      302.41981      9557.2462      0.90147291     0.82262962   
     24500  -4110.7653     -4143.7199      32.954642      915.78673      295.42086      9580.8634      0.89925075     0.82262962   
     24600  -4110.4856     -4143.2849      32.799288      1038.7266      294.02819      9610.66        0.89646274     0.82262962   
     24700  -4110.7026     -4145.605       34.902443      1564.1609      312.88187      9640.0475      0.89372989     0.82262962   
     24800  -4109.9583     -4145.696       35.73771      -760.78023      320.36959      9666.7914      0.89125732     0.82262962   
     24900  -4109.5266     -4143.3226      33.796022      136.01986      302.96339      9686.3101      0.88946136     0.82262962   
     25000  -4108.5942     -4144.0281      35.433868      1491.8697      317.64581      9698.2309      0.88836806     0.8766561    
     25100  -4108.1073     -4143.819       35.711704     -57.424456      320.13646      9699.2321      0.88827636     0.8766561    
     25200  -4108.5224     -4142.7375      34.215058      1425.938       306.71982      9690.5498      0.88907222     0.8766561    
     25300  -4110.6521     -4144.4452      33.793085      2463.4186      302.93706      9672.3368      0.89074634     0.8766561    
     25400  -4110.4367     -4145.5984      35.161707     -787.37365      315.20602      9647.5927      0.89303092     0.8766561    
     25500  -4109.7012     -4144.8838      35.182577     -1382.2952      315.39312      9618.5229      0.8957299      0.8766561    
     25600  -4110.4942     -4144.6955      34.201289     -3737.1687      306.5964       9591.0851      0.89829237     0.8766561    
     25700  -4110.7458     -4145.325       34.579197     -2034.3732      309.98414      9562.6211      0.90096622     0.8766561    
     25800  -4109.9311     -4143.9763      34.045215      2274.9613      305.19727      9538.3878      0.90325523     0.8766561    
     25900  -4110.1533     -4144.1001      33.946788      225.78183      304.31493      9525.055       0.90451957     0.8766561    
     26000  -4108.805      -4144.3021      35.497058      1450.91        318.21227      9526.5477      0.90437784     0.83340898   
     26100  -4108.9859     -4143.3752      34.389276     -1668.4531      308.2816       9545.367       0.9025948      0.83340898   
     26200  -4109.5788     -4144.2912      34.712385     -132.45728      311.1781       9582.4152      0.89910512     0.83340898   
     26300  -4109.091      -4145.3379      36.24684      -864.98684      324.93367      9631.9561      0.89448067     0.83340898   
     26400  -4109.8044     -4143.7347      33.930288      429.31846      304.16701      9682.4256      0.88981821     0.83340898   
     26500  -4107.2912     -4142.7189      35.427698     -382.04251      317.59049      9727.2627      0.88571666     0.83340898   
     26600  -4107.2558     -4142.2726      35.016866     -4241.9433      313.9076       9764.3029      0.88235675     0.83340898   
     26700  -4107.6121     -4142.1445      34.53237      -1652.3545      309.56436      9789.6054      0.88007619     0.83340898   
     26800  -4106.2168     -4142.3159      36.09902      -1281.5664      323.60854      9801.1513      0.87903944     0.83340898   
     26900  -4105.4593     -4141.6008      36.141552     -2605.7303      323.98982      9797.6938      0.87934965     0.83340898   
     27000  -4105.7865     -4141.657       35.870484      138.24105      321.55984      9781.1583      0.88083623     0.84836396   
     27100  -4107.6873     -4143.3278      35.640414     -1583.6885      319.49739      9752.5825      0.88341714     0.84836396   
     27200  -4108.885      -4143.2553      34.370278     -2508.0814      308.11129      9715.1542      0.88682057     0.84836396   
     27300  -4108.2752     -4142.499       34.223868      2671.6212      306.7988       9668.5543      0.89109482     0.84836396   
     27400  -4110.3807     -4145.714       35.333258     -1840.4957      316.74389      9620.0341      0.89558919     0.84836396   
     27500  -4108.7184     -4145.2953      36.576905      696.03913      327.89253      9573.2311      0.89996768     0.84836396   
     27600  -4109.5197     -4144.8028      35.283113      680.21412      316.29437      9540.6806      0.90303815     0.84836396   
     27700  -4110.0817     -4143.7207      33.638953      2489.7104      301.55535      9526.4183      0.90439012     0.84836396   
     27800  -4110.5862     -4145.2305      34.644297      1512.05        310.56772      9529.4702      0.90410048     0.84836396   
     27900  -4110.401      -4144.1775      33.77654       150.18441      302.78874      9549.2238      0.90223025     0.84836396   
     28000  -4109.9441     -4145.601       35.656889      874.30655      319.64507      9583.7671      0.89897829     0.80623259   
     28100  -4108.7539     -4143.6742      34.920269      919.34405      313.04166      9630.3396      0.89463082     0.80623259   
     28200  -4107.8621     -4142.1459      34.283834     -589.10213      307.33637      9681.8653      0.8898697      0.80623259   
     28300  -4108.7311     -4143.4203      34.689204     -969.63251      310.97029      9731.9943      0.88528603     0.80623259   
     28400  -4108.2855     -4143.6976      35.412139     -591.38781      317.45102      9772.1935      0.88164429     0.80623259   
     28500  -4109.9123     -4143.3235      33.411169     -483.03527      299.51339      9796.9876      0.87941304     0.80623259   
     28600  -4110.8347     -4144.7816      33.946966     -86.066251      304.31652      9800.9162      0.87906053     0.80623259   
     28700  -4111.2182     -4145.1599      33.94169      -414.15846      304.26922      9775.7803      0.88132081     0.80623259   
     28800  -4110.9757     -4144.9801      34.004413     -1705.1357      304.83151      9729.3562      0.88552607     0.80623259   
     28900  -4111.0556     -4144.5657      33.510015     -348.0699       300.39949      9675.8616      0.89042185     0.80623259   
     29000  -4111.5752     -4146.4691      34.893888      599.20148      312.80518      9625.7767      0.8950549      0.72202081   
     29100  -4112.4577     -4145.3724      32.914717      1493.8433      295.06296      9585.5838      0.89880791     0.72202081   
     29200  -4111.4936     -4145.2096      33.716013      3931.9859      302.24615      9556.8054      0.90151449     0.72202081   
     29300  -4109.6079     -4143.3709      33.763016      1787.5836      302.66751      9541.5161      0.90295907     0.72202081   
     29400  -4110.6281     -4145.54        34.911936     -2636.2931      312.96697      9548.9764      0.90225362     0.72202081   
     29500  -4110.5951     -4144.4029      33.807833     -1098.741       303.06927      9572.7055      0.90001709     0.72202081   
     29600  -4111.2062     -4144.2098      33.003599      660.04536      295.85974      9609.7182      0.89655059     0.72202081   
     29700  -4110.6497     -4144.4393      33.789615      2932.9288      302.90595      9653.8257      0.89245433     0.72202081   
     29800  -4111.4496     -4145.0274      33.577757     -400.35698      301.00676      9696.1582      0.88855797     0.72202081   
     29900  -4111.2714     -4144.3293      33.057916      127.95059      296.34666      9728.2602      0.88562583     0.72202081   
     30000  -4110.3834     -4143.7183      33.334852     -15.655294      298.82925      9753.8756      0.88330003     0.81165947   
     30100  -4110.1996     -4144.118       33.918344     -980.98389      304.05994      9763.8841      0.8823946      0.81165947   
     30200  -4110.0397     -4143.817       33.777377     -331.4839       302.79625      9759.8363      0.88276056     0.81165947   
     30300  -4109.3847     -4144.1106      34.725855     -1572.5636      311.29885      9746.1065      0.88400415     0.81165947   
     30400  -4109.7155     -4143.8375      34.122054      1505.6392      305.88609      9719.5409      0.88642032     0.81165947   
     30500  -4111.1423     -4145.2491      34.106832     -980.83523      305.74964      9685.5666      0.88952964     0.81165947   
     30600  -4111.2777     -4145.5912      34.313521      1939.7578      307.60249      9647.8462      0.89300745     0.81165947   
     30700  -4110.8667     -4144.782       33.915321      4304.0793      304.03284      9616.0539      0.89595989     0.81165947   
     30800  -4110.149      -4143.9944      33.845377     -2125.6802      303.40583      9594.6176      0.89796165     0.81165947   
     30900  -4110.826      -4145.5448      34.718773     -364.84907      311.23536      9581.587       0.89918283     0.81165947   
     31000  -4110.3801     -4143.8648      33.484697      1256.2509      300.17252      9581.0054      0.89923742     0.93919677   
     31100  -4109.9212     -4144.2128      34.291611      463.17036      307.40608      9595.4416      0.89788453     0.93919677   
     31200  -4108.9159     -4144.1568      35.240885      3224.607       315.91581      9619.4469      0.89564387     0.93919677   
     31300  -4109.3315     -4144.4342      35.102644     -913.86293      314.67656      9653.1261      0.89251901     0.93919677   
     31400  -4109.9947     -4143.6557      33.660989     -1205.6973      301.75289      9688.6089      0.88925033     0.93919677   
     31500  -4110.008      -4143.565       33.557039     -2272.3821      300.82103      9721.016       0.88628582     0.93919677   
     31600  -4110.1434     -4144.2806      34.137228     -1717.7217      306.02212      9748.644       0.88377405     0.93919677   
     31700  -4109.7215     -4145.4227      35.701198      1873.3996      320.04228      9764.6361      0.88232664     0.93919677   
     31800  -4109.0583     -4143.398       34.339671      1824.8733      307.83691      9767.6152      0.88205754     0.93919677   
     31900  -4108.7826     -4143.8346      35.052077      973.83829      314.22326      9760.4246      0.88270735     0.93919677   
     32000  -4108.2035     -4142.5538      34.350282     -1158.832       307.93203      9741.1218      0.88445651     0.80385549   
     32100  -4106.2499     -4142.6942      36.444324      1983.6542      326.70401      9713.2741      0.88699222     0.80385549   
     32200  -4106.6983     -4143.6566      36.95832      -2217.4467      331.31171      9680.5735      0.88998845     0.80385549   
     32300  -4108.1047     -4144.0946      35.989904     -345.27729      322.63037      9649.0176      0.89289905     0.80385549   
     32400  -4108.8521     -4144.6205      35.768375      337.84035      320.64449      9625.0111      0.89512609     0.80385549   
     32500  -4108.1597     -4143.3274      35.167777      1004.4355      315.26045      9606.2133      0.89687771     0.80385549   
     32600  -4108.6381     -4142.4158      33.777694      1184.694       302.79908      9597.056       0.89773349     0.80385549   
     32700  -4108.5224     -4145.4771      36.954751      2757.7407      331.27972      9598.6899      0.89758067     0.80385549   
     32800  -4109.4995     -4143.4964      33.996897      1846.6873      304.76412      9610.1454      0.89651074     0.80385549   
     32900  -4109.2893     -4144.4583      35.16898      -1413.5408      315.27123      9634.0029      0.89429064     0.80385549   
     33000  -4111.6236     -4144.2707      32.647129      2202.8181      292.66418      9660.8126      0.8918089      0.90438677   
     33100  -4112.2171     -4145.5587      33.341553     -1760.2711      298.88931      9685.3329      0.8895511      0.90438677   
     33200  -4111.0592     -4145.7445      34.685313     -855.98342      310.93541      9700.9551      0.8881186      0.90438677   
     33300  -4110.5292     -4144.6997      34.170498     -392.30485      306.32036      9701.1214      0.88810337     0.90438677   
     33400  -4110.588      -4143.3575      32.769501      346.96121      293.76118      9688.6188      0.88924941     0.90438677   
     33500  -4110.1627     -4144.7417      34.578993      1882.5398      309.98231      9666.2284      0.89130923     0.90438677   
     33600  -4110.2333     -4144.9969      34.763634     -1580.7293      311.63752      9637.2155      0.89399252     0.90438677   
     33700  -4109.2336     -4143.5792      34.345587     -1203.9097      307.88994      9604.9629      0.89699447     0.90438677   
     33800  -4109.4301     -4144.2293      34.799197      1563.5701      311.95632      9573.0535      0.89998437     0.90438677   
     33900  -4108.6153     -4144.5662      35.950925      1540.6675      322.28095      9548.686       0.90228107     0.90438677   
     34000  -4109.9575     -4144.0693      34.111823      3470.5661      305.79438      9541.0949      0.90299894     0.76789933   
     34100  -4111.031      -4144.6593      33.62825      -1602.8115      301.45941      9551.4232      0.9020225      0.76789933   
     34200  -4110.2491     -4144.8809      34.631773     -67.829933      310.45545      9576.713       0.89964047     0.76789933   
     34300  -4109.0769     -4142.8021      33.725225      2468.1672      302.32873      9610.4332      0.8964839      0.76789933   
     34400  -4109.8083     -4144.3232      34.514832      218.7644       309.40714      9649.6086      0.89284435     0.76789933   
     34500  -4110.0413     -4144.5008      34.459527      596.40929      308.91136      9687.7295      0.88933104     0.76789933   
     34600  -4109.542      -4144.0046      34.462591      148.95436      308.93882      9719.7959      0.88639707     0.76789933   
     34700  -4108.8814     -4144.4226      35.54124      -3509.3619      318.60834      9747.6727      0.88386211     0.76789933   
     34800  -4108.2124     -4142.8492      34.63685      -172.16681      310.50097      9760.3394      0.88271506     0.76789933   
     34900  -4107.1695     -4143.2235      36.054057     -1622.7729      323.20547      9759.4608      0.88279452     0.76789933   
     35000  -4107.7297     -4142.2798      34.550076      1522.1336      309.72308      9741.5997      0.88441312     0.86815966   
     35100  -4108.1813     -4140.9513      32.770023     -628.8506       293.76586      9712.6097      0.8870529      0.86815966   
     35200  -4108.395      -4144.234       35.839042     -1278.6676      321.27798      9672.9029      0.89069421     0.86815966   
     35300  -4108.1162     -4143.2164      35.100242      1291.1759      314.65503      9627.4789      0.89489665     0.86815966   
     35400  -4109.4483     -4144.1705      34.72219       1760.6495      311.26599      9587.7585      0.89860405     0.86815966   
     35500  -4108.6402     -4142.6875      34.047323      567.18953      305.21617      9550.6098      0.90209932     0.86815966   
     35600  -4107.559      -4141.9987      34.439726      717.17178      308.73385      9520.2638      0.90497477     0.86815966   
     35700  -4107.1989     -4142.1527      34.953827     -2.1001161      313.3425       9510.8281      0.9058726      0.86815966   
     35800  -4107.8092     -4141.9005      34.091311      1610.2806      305.6105       9526.5578      0.90437688     0.86815966   
     35900  -4107.8324     -4143.7624      35.929993      3181.2437      322.0933       9564.0794      0.90082885     0.86815966   
     36000  -4108.6076     -4144.3874      35.779866      1022.4758      320.74749      9616.0669      0.89595868     0.79761315   
     36100  -4109.1171     -4143.2801      34.162982     -685.75291      306.25299      9674.1851      0.89057615     0.79761315   
     36200  -4107.6862     -4142.4214      34.735179      716.01024      311.38243      9727.7021      0.88567665     0.79761315   
     36300  -4108.1073     -4143.934       35.826664      27.930365      321.16701      9765.642       0.88223576     0.79761315   
     36400  -4108.0581     -4143.9987      35.940627     -3163.2471      322.18863      9784.1035      0.88057108     0.79761315   
     36500  -4108.784      -4143.156       34.37202      -739.53364      308.1269       9781.9369      0.88076611     0.79761315   
     36600  -4109.4409     -4143.428       33.987059     -2441.1828      304.67593      9758.6248      0.88287016     0.79761315   
     36700  -4109.2644     -4143.5328      34.268334     -4860.6668      307.19742      9716.709       0.88667866     0.79761315   
     36800  -4108.2456     -4142.8352      34.589633     -123.81149      310.07769      9664.0048      0.89151431     0.79761315   
     36900  -4109.8647     -4145.3584      35.493633      1339.2265      318.18157      9611.7129      0.89636454     0.79761315   
     37000  -4109.3016     -4144.5732      35.271626      1148.3974      316.19139      9565.674       0.90067867     0.84399219   
     37100  -4109.2297     -4143.2943      34.064604      1655.0361      305.37109      9529.3554      0.90411137     0.84399219   
     37200  -4109.3025     -4143.1701      33.867514      1842.6512      303.60428      9508.2726      0.90611607     0.84399219   
     37300  -4111.4056     -4145.5534      34.147799      1834.8904      306.11688      9506.2419      0.90630963     0.84399219   
     37400  -4111.8786     -4146.1168      34.238247     -934.35902      306.9277       9523.0971      0.90470553     0.84399219   
     37500  -4111.8355     -4145.5883      33.752812     -387.32118      302.57603      9553.045       0.90186936     0.84399219   
     37600  -4111.9252     -4145.9288      34.00363       2040.7451      304.82448      9595.6241      0.89786745     0.84399219   
     37700  -4109.8456     -4144.0923      34.246737      1200.5557      307.00381      9644.5796      0.89330991     0.84399219   
     37800  -4109.8116     -4142.415       32.603419      1435.257       292.27234      9694.1627      0.88874087     0.84399219   
     37900  -4110.7263     -4142.9613      32.234966      1368.1273      288.96935      9733.0544      0.8851896      0.84399219   
     38000  -4109.9768     -4143.524       33.54715      -1434.4312      300.73238      9754.8693      0.88321005     0.80006607   
     38100  -4110.4062     -4145.3804      34.974205     -329.68709      313.52517      9756.8215      0.88303333     0.80006607   
     38200  -4110.5213     -4144.981       34.459719      343.75868      308.91308      9740.1443      0.88454527     0.80006607   
     38300  -4110.7595     -4143.9936      33.234145      1472.3801      297.92646      9706.0794      0.88764971     0.80006607   
     38400  -4109.7035     -4142.9711      33.26765      -3397.3347      298.22682      9658.1484      0.8920549      0.80006607   
     38500  -4110.3679     -4143.9962      33.628275     -185.79077      301.45963      9604.3866      0.89704829     0.80006607   
     38600  -4110.1967     -4144.9857      34.788944      221.31157      311.8644       9554.797       0.90170399     0.80006607   
     38700  -4111.3911     -4145.1256      33.734511      748.75677      302.41197      9518.075       0.90518289     0.80006607   
     38800  -4110.9671     -4145.449       34.481883      3056.1829      309.11177      9498.8233      0.90701746     0.80006607   
     38900  -4112.2599     -4146.0923      33.832404      534.77341      303.28953      9500.42        0.90686502     0.80006607   
     39000  -4111.887      -4145.0682      33.181157      2504.1366      297.45145      9516.6939      0.90531424     0.75250655   
     39100  -4110.5543     -4144.8693      34.31507       116.57771      307.61638      9549.4376      0.90221005     0.75250655   
     39200  -4110.6527     -4144.0359      33.383181      419.28692      299.26249      9591.5228      0.89825138     0.75250655   
     39300  -4110.9958     -4145.5178      34.522007     -3087.7257      309.47146      9642.9347      0.8934623      0.75250655   
     39400  -4111.0304     -4144.4241      33.393676     -2731.9035      299.35657      9692.8334      0.88886275     0.75250655   
     39500  -4111.4073     -4144.0579      32.650527     -1757.7113      292.69463      9733.412       0.88515708     0.75250655   
     39600  -4112.9599     -4145.3229      32.362965     -3308.8296      290.1168       9758.8356      0.88285109     0.75250655   
     39700  -4111.4847     -4144.0318      32.547072     -2320.4243      291.76722      9761.1205      0.88264443     0.75250655   
     39800  -4110.354      -4143.5095      33.155474      1291.2235      297.22121      9739.4511      0.88460823     0.75250655   
     39900  -4110.3735     -4144.2524      33.878808      1226.1103      303.70552      9701.5461      0.88806449     0.75250655   
     40000  -4109.8217     -4145.1898      35.368033      2282.5975      317.05563      9657.8552      0.89208198     0.82415639   
     40100  -4110.2285     -4144.6557      34.427225     -817.4943       308.62178      9614.2531      0.89612771     0.82415639   
     40200  -4111.1759     -4144.9011      33.725264      440.45399      302.32908      9578.1006      0.89951014     0.82415639   
     40300  -4110.462      -4144.6353      34.17332       888.79474      306.34567      9555.6527      0.90162324     0.82415639   
     40400  -4110.411      -4145.2926      34.881518      2358.0147      312.69429      9551.5672      0.90200889     0.82415639   
     40500  -4109.0454     -4143.2378      34.192368      2882.6987      306.51642      9567.2146      0.90053364     0.82415639   
     40600  -4108.196      -4143.4079      35.211893      1644.0335      315.65592      9598.7555      0.89757454     0.82415639   
     40700  -4109.1473     -4142.0601      32.912781      2556.7115      295.0456       9639.5812      0.89377313     0.82415639   
     40800  -4110.6624     -4144.647       33.984661     -1674.4314      304.65444      9680.3009      0.89001351     0.82415639   
     40900  -4110.0447     -4143.6681      33.623383     -696.15521      301.41577      9711.9353      0.8871145      0.82415639   
     41000  -4111.6251     -4145.6713      34.046229      259.02211      305.20636      9732.3248      0.88525597     0.77978484   
     41100  -4110.7801     -4144.5055      33.725391     -637.37756      302.33022      9737.9709      0.88474269     0.77978484   
     41200  -4110.3876     -4144.913       34.525449     -509.29295      309.50232      9727.4547      0.88569918     0.77978484   
     41300  -4110.2453     -4144.1666      33.921285     -632.65108      304.0863       9701.2478      0.88809179     0.77978484   
     41400  -4109.5585     -4144.2126      34.654044     -382.4159       310.6551       9667.1494      0.89122431     0.77978484   
     41500  -4109.4651     -4144.6585      35.193462     -205.83985      315.49069      9634.6022      0.89423501     0.77978484   
     41600  -4110.8183     -4143.8037      32.985374      3843.9595      295.69636      9605.2195      0.89697051     0.77978484   
     41700  -4112.0019     -4146.4278      34.425889      301.83637      308.60982      9578.9         0.89943507     0.77978484   
     41800  -4112.6891     -4146.2817      33.592623      3482.4148      301.14002      9555.5809      0.90163002     0.77978484   
     41900  -4111.4318     -4146.4338      35.001963      3865.7884      313.77401      9543.0576      0.90281322     0.77978484   
     42000  -4109.9675     -4143.331       33.363541      2303.8866      299.08643      9547.312       0.90241092     0.79358685   
     42100  -4110.0376     -4144.1668      34.129143     -575.81767      305.94964      9568.785       0.90038585     0.79358685   
     42200  -4109.1789     -4143.996       34.817054      1152.4413      312.1164       9600.6707      0.89739549     0.79358685   
     42300  -4109.4449     -4143.1903      33.745428     -3063.6347      302.50984      9643.7085      0.89339061     0.79358685   
     42400  -4109.3488     -4142.7988      33.449952      633.59382      299.86105      9688.904       0.88922324     0.79358685   
     42500  -4110.1977     -4144.9365      34.738849     -182.25786      311.41533      9730.6149      0.88541153     0.79358685   
     42600  -4110.9021     -4144.728       33.825905     -5386.4504      303.23127      9760.2211      0.88272576     0.79358685   
     42700  -4110.9432     -4144.7615      33.818337      1127.27        303.16343      9770.1917      0.88182493     0.79358685   
     42800  -4110.7484     -4144.746       33.997555      2324.192       304.77003      9763.5456      0.88242519     0.79358685   
     42900  -4110.3959     -4143.4992      33.103367     -727.24011      296.7541       9741.378       0.88443325     0.79358685   
     43000  -4111.0525     -4144.7932      33.740772      752.69444      302.4681       9708.4531      0.88743269     0.79230793   
     43100  -4110.6477     -4143.985       33.337308     -484.34444      298.85126      9663.1713      0.89159121     0.79230793   
     43200  -4109.8861     -4143.8166      33.930441     -2623.2909      304.16839      9612.6622      0.89627602     0.79230793   
     43300  -4110.2195     -4145.3215      35.101903      199.60974      314.66991      9569.5851      0.90031056     0.79230793   
     43400  -4110.8578     -4144.8601      34.002312      344.42335      304.81267      9541.5         0.9029606      0.79230793   
     43500  -4108.8151     -4143.0416      34.226546      3209.5501      306.8228       9528.48        0.90419443     0.79230793   
     43600  -4109.9206     -4144.4316      34.511075     -2010.4667      309.37346      9535.0564      0.9035708      0.79230793   
     43700  -4109.592      -4143.4326      33.840622     -2168.1199      303.3632       9554.8553      0.90169849     0.79230793   
     43800  -4109.5801     -4143.6831      34.103011      1310.0429      305.71538      9584.1524      0.89894215     0.79230793   
     43900  -4108.825      -4143.6576      34.832549      639.75985      312.2553       9626.7796      0.89496165     0.79230793   
     44000  -4109.0206     -4141.938       32.917359      2050.4789      295.08664      9679.1241      0.89012172     0.80298729   
     44100  -4108.4081     -4143.6567      35.24859      -887.74722      315.98489      9733.7719      0.88512436     0.80298729   
     44200  -4107.1693     -4142.2173      35.047968     -533.9178       314.18642      9779.9249      0.88094732     0.80298729   
     44300  -4107.6705     -4141.8756      34.205117     -2186.4012      306.63071      9810.4453      0.87820668     0.80298729   
     44400  -4106.3786     -4141.3961      35.017495     -1169.9044      313.91325      9817.7868      0.87754998     0.80298729   
     44500  -4105.5575     -4143.0461      37.488627     -817.69363      336.06563      9807.279       0.87849021     0.80298729   
     44600  -4106.8751     -4142.578       35.702896     -324.66224      320.0575       9779.4926      0.88098626     0.80298729   
     44700  -4107.0666     -4142.619       35.552373      3581.6625      318.70814      9737.5479      0.88478112     0.80298729   
     44800  -4106.5839     -4142.4093      35.825382     -547.29971      321.15552      9687.4281      0.88935871     0.80298729   
     44900  -4106.122      -4141.8726      35.750577     -3186.8822      320.48493      9637.4176      0.89397377     0.80298729   
     45000  -4107.2664     -4142.529       35.262647     -574.7973       316.1109       9594.4788      0.89797463     0.80993537   
     45100  -4109.3861     -4145.8618      36.475679     -1899.543       326.98509      9565.2029      0.90072304     0.80993537   
     45200  -4108.9288     -4143.8479      34.919067      1660.0513      313.03089      9549.2666      0.90222621     0.80993537   
     45300  -4109.4447     -4143.7149      34.270192      2226.4267      307.21407      9548.2059      0.90232643     0.80993537   
     45400  -4111.2649     -4144.2057      32.940835      951.9793       295.29709      9560.7722      0.90114045     0.80993537   
     45500  -4111.8946     -4144.4597      32.565019     -906.74167      291.9281       9580.6358      0.89927211     0.80993537   
     45600  -4111.8379     -4144.594       32.756056      1157.2004      293.64065      9604.2364      0.89706232     0.80993537   
     45700  -4111.3398     -4145.2454      33.905554      1124.2008      303.94529      9629.5748      0.89470187     0.80993537   
     45800  -4111.2912     -4144.4737      33.182498      162.67851      297.46348      9652.0113      0.8926221      0.80993537   
     45900  -4110.5272     -4145.3457      34.818548     -204.28531      312.12979      9672.9821      0.89068691     0.80993537   
     46000  -4109.6611     -4144.5965      34.935405     -2479.0591      313.17735      9692.6409      0.88888041     0.86404745   
     46100  -4109.8005     -4144.3297      34.5292        3146.7286      309.53594      9702.321       0.88799356     0.86404745   
     46200  -4109.9253     -4144.0222      34.096945      280.55676      305.661        9704.0325      0.88783695     0.86404745   
     46300  -4110.0476     -4143.8834      33.835729      132.77228      303.31934      9702.0059      0.8880224      0.86404745   
     46400  -4110.8594     -4144.0002      33.140799      902.57138      297.08966      9698.7135      0.88832386     0.86404745   
     46500  -4110.3776     -4144.9018      34.524255      1287.2507      309.49161      9691.8588      0.88895213     0.86404745   
     46600  -4110.4917     -4144.874       34.382253      393.40337      308.21864      9681.5315      0.88990038     0.86404745   
     46700  -4110.3247     -4145.021       34.69632      -1090.7804      311.03408      9672.3162      0.89074824     0.86404745   
     46800  -4111.0079     -4144.7949      33.787         1743.3698      302.88251      9662.311       0.89167059     0.86404745   
     46900  -4111.2594     -4143.6668      32.407382      2584.8534      290.51497      9652.0469      0.89261881     0.86404745   
     47000  -4110.5283     -4145.3788      34.850488      729.18257      312.41612      9643.8044      0.89338172     0.81742559   
     47100  -4110.2098     -4145.4734      35.263543      2486.9517      316.11893      9635.8364      0.89412047     0.81742559   
     47200  -4110.398      -4143.7112      33.31324       1522.2152      298.63551      9630.8497      0.89458344     0.81742559   
     47300  -4110.8656     -4144.6063      33.740694      2041.6341      302.4674       9633.0974      0.8943747      0.81742559   
     47400  -4110.5273     -4144.5007      33.973354      1660.1918      304.55308      9634.0984      0.89428177     0.81742559   
     47500  -4108.7715     -4144.2304      35.458869      693.4004       317.86993      9635.9661      0.89410844     0.81742559   
     47600  -4108.6215     -4142.0036      33.382041      123.4409       299.25227      9641.8243      0.8935652      0.81742559   
     47700  -4107.1483     -4143.5223      36.374024     -1179.177       326.07381      9650.4256      0.89276877     0.81742559   
     47800  -4107.8793     -4143.6642      35.784919     -316.37689      320.7928       9660.27        0.89185898     0.81742559   
     47900  -4107.6279     -4142.1118      34.48395      -753.89396      309.1303       9670.0935      0.89095297     0.81742559   
     48000  -4107.9374     -4143.8815      35.944161      1806.0051      322.22031      9684.5241      0.8896254      0.90327316   
     48100  -4108.4849     -4143.2596      34.774652      1762.9863      311.73628      9697.7845      0.88840896     0.90327316   
     48200  -4108.7867     -4143.289       34.502286      251.12217      309.29467      9707.5853      0.88751202     0.90327316   
     48300  -4109.0887     -4142.9685      33.879808     -2960.3801      303.71448      9716.1966      0.88672542     0.90327316   
     48400  -4107.3517     -4143.5318      36.180122     -3026.4301      324.33558      9722.4014      0.88615952     0.90327316   
     48500  -4108.0154     -4142.0546      34.03929      -3891.0888      305.14416      9723.0877      0.88609697     0.90327316   
     48600  -4108.8892     -4143.3634      34.474154     -3014.0846      309.04248      9715.867       0.88675551     0.90327316   
     48700  -4107.0976     -4143.0497      35.952084     -531.48927      322.29134      9701.7533      0.88804552     0.90327316   
     48800  -4108.5723     -4143.5291      34.956835     -2928.4476      313.36946      9688.3252      0.88927636     0.90327316   
     48900  -4108.1041     -4142.448       34.343851     -259.1718       307.87438      9675.0268      0.89049868     0.90327316   
     49000  -4108.3995     -4142.5641      34.16465       707.87631      306.26794      9661.0684      0.89178528     0.87272656   
     49100  -4108.96       -4142.9291      33.9691       -1223.938       304.51494      9645.6712      0.89320882     0.87272656   
     49200  -4107.2341     -4142.5767      35.34267       1496.6498      316.82826      9628.1198      0.89483708     0.87272656   
     49300  -4107.8978     -4142.4656      34.56783       3319.3083      309.88224      9617.9017      0.89578776     0.87272656   
     49400  -4106.4793     -4143.2211      36.741723      84.914677      329.37004      9620.3972      0.89555539     0.87272656   
     49500  -4107.6654     -4141.7352      34.069761      386.97377      305.41731      9635.4142      0.89415965     0.87272656   
     49600  -4108.7578     -4143.8706      35.112811     -1708.0637      314.7677       9659.2785      0.89195053     0.87272656   
     49700  -4108.0774     -4142.5392      34.461819     -2408.4319      308.9319       9685.1906      0.88956417     0.87272656   
     49800  -4107.5354     -4141.9384      34.402955      2541.8108      308.40422      9712.9739      0.88701964     0.87272656   
     49900  -4108.4735     -4143.1801      34.706611      3480.9695      311.12634      9739.1996      0.88463108     0.87272656   
     50000  -4109.5929     -4143.9028      34.309932     -1970.8295      307.57032      9758.9374      0.88284188     0.93430377   
     50100  -4109.1288     -4142.3946      33.265742     -3707.8761      298.20971      9761.8442      0.88257899     0.93430377   
     50200  -4109.9374     -4144.7449      34.807567      46.978109      312.03135      9749.7836      0.88367075     0.93430377   
     50300  -4110.1295     -4143.6003      33.470784      762.49721      300.0478       9724.2442      0.88599159     0.93430377   
     50400  -4108.5556     -4143.3499      34.79434       1357.3278      311.91277      9687.2347      0.88937647     0.93430377   
     50500  -4110.9208     -4145.6206      34.699763     -3912.0006      311.06495      9646.8345      0.89310111     0.93430377   
     50600  -4110.2688     -4145.088       34.819163     -1957.3498      312.1353       9604.2922      0.89705711     0.93430377   
     50700  -4110.4062     -4143.8808      33.474618     -158.7783       300.08217      9563.4865      0.90088469     0.93430377   
     50800  -4111.5898     -4143.8796      32.28977       2617.8602      289.46064      9531.3306      0.90392401     0.93430377   
     50900  -4111.0241     -4144.4925      33.468409      467.45578      300.02651      9507.1991      0.90621838     0.93430377   
     51000  -4111.6952     -4146.1002      34.405036     -922.16426      308.42288      9500.4823      0.90685908     0.78428759   
     51100  -4110.9213     -4145.0826      34.16127       319.244        306.23765      9518.7745      0.90511637     0.78428759   
     51200  -4110.7564     -4144.7615      34.005153     -826.84872      304.83813      9559.4479      0.90126529     0.78428759   
     51300  -4110.8542     -4144.0935      33.239316      1272.8968      297.97282      9611.4682      0.89638736     0.78428759   
     51400  -4108.8849     -4143.2695      34.384592     -216.82092      308.23961      9665.1153      0.89141188     0.78428759   
     51500  -4109.2431     -4141.7693      32.52615      -1663.7837      291.57966      9714.1461      0.8869126      0.78428759   
     51600  -4108.3341     -4143.6355      35.301378     -2559.3263      316.45811      9750.3794      0.88361675     0.78428759   
     51700  -4107.274      -4143.0594      35.785328     -744.95574      320.79646      9771.1236      0.88174082     0.78428759   
     51800  -4107.3366     -4143.0537      35.71716      -638.04075      320.18537      9775.9957      0.88130139     0.78428759   
     51900  -4107.8923     -4142.5131      34.620728     -1506.5189      310.35644      9761.3731      0.88262159     0.78428759   
     52000  -4107.5391     -4142.4219      34.882743     -375.98498      312.70527      9729.8341      0.88548257     0.82152717   
     52100  -4106.8061     -4143.9873      37.181201     -1935.0015      333.30972      9686.4414      0.88944931     0.82152717   
     52200  -4107.8311     -4142.17        34.33893      -2624.4498      307.83027      9634.932       0.8942044      0.82152717   
     52300  -4108.1448     -4143.4851      35.340346      95.117865      316.80743      9585.6023      0.89880618     0.82152717   
     52400  -4109.3368     -4143.732       34.395202      1657.8642      308.33472      9547.9951      0.90234635     0.82152717   
     52500  -4107.4195     -4143.6709      36.251427      527.29439      324.97479      9525.3266      0.90449378     0.82152717   
     52600  -4108.7267     -4144.1373      35.41062       615.71404      317.4374       9521.5804      0.90484963     0.82152717   
     52700  -4109.1134     -4143.4797      34.366275     -78.58885       308.0754       9531.6066      0.90389784     0.82152717   
     52800  -4110.3202     -4144.313       33.992716     -1271.6009      304.72665      9555.2781      0.90165859     0.82152717   
     52900  -4110.6638     -4144.1263      33.462504      2241.0985      299.97357      9582.8007      0.89906895     0.82152717   
     53000  -4108.9536     -4143.8326      34.879028      1295.5155      312.67196      9615.4825      0.89601314     0.82270534   
     53100  -4108.392      -4144.4675      36.075533      270.80426      323.39799      9649.9571      0.89281211     0.82270534   
     53200  -4108.5914     -4144.3395      35.748042     -339.46111      320.46221      9681.7103      0.88988395     0.82270534   
     53300  -4108.8966     -4144.6724      35.775852     -355.49628      320.71151      9711.5695      0.88714791     0.82270534   
     53400  -4109.2509     -4143.1491      33.898261     -842.63842      303.8799       9730.6357      0.88540963     0.82270534   
     53500  -4108.5651     -4142.9047      34.339608     -1969.1797      307.83635      9734.5239      0.88505598     0.82270534   
     53600  -4109.7308     -4142.7174      32.986549      679.72786      295.70689      9722.2451      0.88617377     0.82270534   
     53700  -4109.1229     -4144.4993      35.376436      1141.6055      317.13096      9690.3987      0.88908608     0.82270534   
     53800  -4110.0175     -4144.6781      34.660596     -665.40873      310.71384      9647.9898      0.89299416     0.82270534   
     53900  -4110.6413     -4144.2307      33.589333      2413.7476      301.11053      9599.9839      0.8974597      0.82270534   
     54000  -4109.7062     -4143.709       34.002794     -252.80828      304.81699      9553.6838      0.90180905     0.81278098   
     54100  -4109.4243     -4144.0489      34.624587     -80.778843      310.39104      9512.3993      0.90572297     0.81278098   
     54200  -4107.7932     -4143.1502      35.356947      884.61612      316.95626      9486.719       0.90817474     0.81278098   
     54300  -4109.7155     -4144.9418      35.226284      3010.7625      315.78493      9483.866       0.90844795     0.81278098   
     54400  -4110.3974     -4145.3651      34.967731      2335.6692      313.46714      9500.4357      0.90686353     0.81278098   
     54500  -4109.9462     -4144.1503      34.204107      1404.5839      306.62165      9533.8209      0.9036879      0.81278098   
     54600  -4110.5772     -4144.9479      34.370725     -651.49852      308.1153       9581.2766      0.89921197     0.81278098   
     54700  -4109.0566     -4142.2927      33.236175     -1244.3563      297.94465      9636.8613      0.89402538     0.81278098   
     54800  -4108.857      -4143.6745      34.817452     -1827.2799      312.11997      9690.385       0.88908734     0.81278098   
     54900  -4109.4259     -4143.4468      34.020869      1361.112       304.97902      9728.0243      0.88564731     0.81278098   
     55000  -4108.8965     -4142.7837      33.887275     -950.21396      303.78142      9745.6647      0.88404422     0.87539715   
     55100  -4110.0483     -4144.5078      34.459491     -2325.0249      308.91104      9745.0346      0.88410139     0.87539715   
     55200  -4110.2724     -4143.2138      32.941434     -1829.4638      295.30246      9722.4216      0.88615768     0.87539715   
     55300  -4108.864      -4144.2072      35.343191      106.52632      316.83293      9680.5701      0.88998876     0.87539715   
     55400  -4109.5879     -4143.7315      34.14358      -2667.2482      306.07906      9627.5986      0.89488552     0.87539715   
     55500  -4108.731      -4143.9545      35.22354       2446.3223      315.76033      9571.0088      0.90017665     0.87539715   
     55600  -4110.2595     -4144.1422      33.882711     -250.32355      303.74051      9520.5933      0.90494346     0.87539715   
     55700  -4111.0889     -4145.2151      34.126222     -1064.4179      305.92345      9484.9511      0.90834401     0.87539715   
[...]
    386100  -4109.9616     -4143.2528      33.291155     -190.59992      298.43753      9542.7768      0.90283979     0.83878609   
    386200  -4110.2967     -4143.939       33.642383     -2059.5269      301.5861       9559.4362      0.90126639     0.83878609   
    386300  -4109.8329     -4143.9283      34.095422      1058.4066      305.64735      9580.1059      0.89932185     0.83878609   
    386400  -4110.3868     -4144.7702      34.383419     -2918.5934      308.22909      9602.2097      0.89725166     0.83878609   
    386500  -4110.7453     -4143.8452      33.099876     -630.70942      296.72281      9619.3632      0.89565166     0.83878609   
    386600  -4111.5577     -4144.2988      32.741127     -404.93378      293.50681      9628.9753      0.89475757     0.83878609   
    386700  -4111.3843     -4145.8099      34.425628     -1389.8222      308.60748      9632.5945      0.8944214      0.83878609   
    386800  -4112.0805     -4145.0463      32.96582       1145.3446      295.52107      9630.8305      0.89458522     0.83878609   
    386900  -4110.8328     -4143.8849      33.052152     -223.79244      296.29499      9623.6221      0.89525529     0.83878609   
    387000  -4109.2854     -4143.7954      34.509963      1877.1319      309.36349      9613.4345      0.89620401     0.80248008   
    387100  -4109.8281     -4143.2343      33.406165     -1167.2785      299.46853      9603.739       0.89710878     0.80248008   
    387200  -4109.9013     -4144.885       34.983682     -313.42279      313.61013      9594.3858      0.89798334     0.80248008   
    387300  -4109.6019     -4144.5438      34.941842      1611.7708      313.23506      9583.8787      0.89896782     0.80248008   
    387400  -4109.9365     -4144.7881      34.851571      1148.4934      312.42582      9577.5318      0.89956356     0.80248008   
    387500  -4109.6968     -4145.2711      35.574334      1819.6571      318.90501      9573.7653      0.89991747     0.80248008   
    387600  -4107.8528     -4143.4401      35.587336      1075.2749      319.02156      9574.2359      0.89987323     0.80248008   
    387700  -4108.7934     -4142.7965      34.003145     -1714.9796      304.82014      9581.7488      0.89916765     0.80248008   
    387800  -4108.9291     -4144.162       35.232859     -1221.821       315.84387      9593.7491      0.89804293     0.80248008   
    387900  -4110.0976     -4143.2698      33.172246     -577.21151      297.37156      9607.9681      0.89671391     0.80248008   
    388000  -4109.7707     -4144.0837      34.312967     -393.28461      307.59753      9620.4281      0.89555252     0.79187247   
    388100  -4109.6751     -4143.2325      33.557416      2141.8297      300.82441      9630.1202      0.8946512      0.79187247   
    388200  -4110.9191     -4146.3479      35.428795      738.70923      317.60033      9642.2457      0.89352614     0.79187247   
    388300  -4111.9713     -4145.9311      33.959859     -626.47354      304.4321       9651.1654      0.89270034     0.79187247   
    388400  -4111.1155     -4145.0612      33.945743     -171.75902      304.30555      9651.1559      0.89270122     0.79187247   
    388500  -4111.3068     -4145.7448      34.438051      1625.3544      308.71883      9642.4606      0.89350622     0.79187247   
    388600  -4110.4301     -4143.8601      33.430075     -439.88059      299.68286      9625.6663      0.89506517     0.79187247   
    388700  -4109.5368     -4143.316       33.779186     -275.33055      302.81246      9605.4237      0.89695143     0.79187247   
    388800  -4109.4309     -4143.5106      34.079722     -1478.8242      305.50661      9582.077       0.89913686     0.79187247   
    388900  -4108.8536     -4143.2225      34.368871     -760.18305      308.09868      9565.3242      0.90071162     0.79187247   
    389000  -4109.8511     -4144.97        35.118909      2821.1552      314.82237      9561.8945      0.90103468     0.82570094   
    389100  -4109.0478     -4145.0722      36.024337      2788.6021      322.93905      9570.9723      0.90018008     0.82570094   
    389200  -4109.2234     -4144.6867      35.463349      84.113276      317.91009      9592.4041      0.89816885     0.82570094   
    389300  -4107.8574     -4142.5136      34.656204     -500.30677      310.67446      9622.5794      0.8953523      0.82570094   
    389400  -4106.7289     -4140.8325      34.103559      1319.946       305.72029      9659.0433      0.89197225     0.82570094   
    389500  -4105.9431     -4142.6579      36.71478       1339.543       329.1285       9698.7798      0.88831778     0.82570094   
    389600  -4106.4737     -4142.0569      35.583242     -743.02439      318.98487      9738.4708      0.88469727     0.82570094   
    389700  -4104.981      -4141.563       36.582054     -1330.6105      327.93869      9776.9311      0.88121707     0.82570094   
    389800  -4104.6322     -4139.2348      34.602591     -775.65246      310.19386      9804.0222      0.87878204     0.82570094   
    389900  -4104.3427     -4140.0765      35.733882     -1509.0603      320.33528      9813.1238      0.87796698     0.82570094   
    390000  -4106.2472     -4141.502       35.25474      -404.70152      316.04002      9803.2201      0.87885394     0.8796121    
    390100  -4106.6567     -4142.711       36.05429      -12.990669      323.20756      9774.5467      0.88143203     0.8796121    
    390200  -4105.28       -4141.9081      36.628148      140.4362       328.35189      9731.2135      0.88535706     0.8796121    
    390300  -4106.1414     -4142.4683      36.326845     -1018.4147      325.65087      9683.7216      0.88969912     0.8796121    
    390400  -4105.6217     -4142.6842      37.062485      1132.295       332.2455       9634.469       0.89424737     0.8796121    
    390500  -4107.3186     -4143.4465      36.127841      1813.2434      323.86691      9594.2047      0.89800029     0.8796121    
    390600  -4109.0081     -4143.7851      34.776979     -2008.2097      311.75715      9565.6403      0.90068184     0.8796121    
    390700  -4108.7796     -4143.3137      34.534154      2788.4447      309.58035      9548.9033      0.90226053     0.8796121    
    390800  -4108.3206     -4143.5231      35.202458      4276.3447      315.57134      9548.4932      0.90229928     0.8796121    
    390900  -4108.6465     -4143.6759      35.02931      -999.53022      314.01916      9560.7184      0.90114552     0.8796121    
    391000  -4108.0311     -4142.9898      34.958642      3912.6878      313.38566      9588.9523      0.89849218     0.82975476   
    391100  -4108.8558     -4144.4417      35.585935      1697.401       319.00901      9626.3524      0.89500137     0.82975476   
    391200  -4107.867      -4143.6363      35.769251      79.162975      320.65234      9661.2368      0.89176974     0.82975476   
    391300  -4108.4244     -4142.4205      33.996132     -3024.1753      304.75727      9688.0776      0.88929909     0.82975476   
    391400  -4109.4269     -4142.4933      33.066456     -2250.8979      296.42322      9707.8296      0.88748968     0.82975476   
    391500  -4109.1695     -4143.1486      33.979058     -1817.667       304.60421      9714.6539      0.88686624     0.82975476   
    391600  -4110.2162     -4143.8902      33.673951     -445.84994      301.86909      9702.0198      0.88802113     0.82975476   
    391700  -4109.5008     -4144.258       34.757236      2206.3503      311.58016      9677.093       0.89030854     0.82975476   
    391800  -4110.5553     -4145.098       34.542656      1305.0869      309.65656      9649.4985      0.89285454     0.82975476   
    391900  -4110.365      -4143.9394      33.574465     -438.97681      300.97724      9619.8192      0.8956092      0.82975476   
    392000  -4109.1189     -4143.6854      34.566562      1216.6801      309.87087      9594.4184      0.89798029     0.77477575   
    392100  -4109.4616     -4145.6226      36.161014      625.66214      324.16429      9583.5905      0.89899486     0.77477575   
    392200  -4109.6486     -4143.2375      33.588947      2543.7014      301.10707      9586.7399      0.89869952     0.77477575   
    392300  -4108.7513     -4143.7209      34.969632     -436.02531      313.48418      9602.8286      0.89719383     0.77477575   
    392400  -4108.0547     -4143.6583      35.603529     -266.03483      319.16673      9622.5816      0.89535209     0.77477575   
    392500  -4107.627      -4143.9868      36.359757     -1608.1839      325.94591      9646.455       0.89313625     0.77477575   
    392600  -4109.4495     -4143.5529      34.103391      618.37499      305.71879      9667.9459      0.89115089     0.77477575   
    392700  -4108.7158     -4144.8815      36.165672      657.19938      324.20605      9686.9782      0.88940002     0.77477575   
    392800  -4108.6784     -4143.6092      34.930751      1274.1017      313.13564      9699.3659      0.88826411     0.77477575   
    392900  -4108.291      -4143.728       35.436995      696.84108      317.67384      9712.8891      0.88702738     0.77477575   
    393000  -4107.7002     -4143.2494      35.549163      2456.0562      318.67937      9722.5724      0.88614394     0.87778166   
    393100  -4107.8079     -4142.6474      34.839538      172.65682      312.31795      9730.5829      0.88541443     0.87778166   
    393200  -4107.5342     -4143.1284      35.594147      2728.3829      319.08263      9736.0333      0.88491876     0.87778166   
    393300  -4106.8398     -4141.799       34.959263      131.7347       313.39123      9741.9999      0.88437679     0.87778166   
    393400  -4107.2257     -4142.4492      35.223458      950.07861      315.7596       9744.4502      0.8841544      0.87778166   
    393500  -4107.6385     -4142.6636      35.025078     -946.58446      313.98122      9738.2796      0.88471465     0.87778166   
    393600  -4107.0024     -4141.3392      34.336855      1187.8255      307.81167      9720.6335      0.88632069     0.87778166   
    393700  -4107.5305     -4142.6076      35.077148     -731.66215      314.448        9695.4607      0.88862189     0.87778166   
    393800  -4106.8449     -4141.167       34.322114     -1946.4437      307.67952      9668.3217      0.89111626     0.87778166   
    393900  -4106.7854     -4142.0705      35.285147     -40.236216      316.3126       9646.361       0.89314494     0.87778166   
    394000  -4109.1244     -4143.6309      34.506454     -935.70316      309.33204      9632.6709      0.8944143      0.75119284   
    394100  -4109.1254     -4143.3576      34.232217      1832.3314      306.87365      9624.8943      0.89513696     0.75119284   
    394200  -4110.6698     -4144.485       33.815163      2597.4134      303.13498      9627.4312      0.89490108     0.75119284   
    394300  -4110.1139     -4145.8515      35.737645      955.04289      320.36901      9636.5393      0.89405525     0.75119284   
    394400  -4110.0676     -4143.8798      33.812242      880.78711      303.1088       9644.0109      0.8933626      0.75119284   
    394500  -4109.5988     -4143.3503      33.751521      1326.0508      302.56446      9649.9158      0.89281593     0.75119284   
    394600  -4109.6367     -4144.9774      35.340675      800.73041      316.81038      9655.3817      0.89231051     0.75119284   
    394700  -4108.5608     -4142.9666      34.405751      1016.629       308.42929      9663.6212      0.8915497      0.75119284   
    394800  -4108.4672     -4143.2614      34.794235     -2814.9677      311.91184      9675.588       0.89044703     0.75119284   
    394900  -4109.3525     -4143.9574      34.604866      700.71319      310.21424      9685.2622      0.8895576      0.75119284   
    395000  -4108.5839     -4143.0895      34.505624     -916.00169      309.32459      9689.5166      0.88916702     0.86771259   
    395100  -4108.7218     -4143.8783      35.156435     -1178.6726      315.15877      9693.7745      0.88877646     0.86771259   
    395200  -4111.3064     -4145.3721      34.065753      1707.049       305.38138      9694.3511      0.8887236      0.86771259   
    395300  -4111.8361     -4144.9632      33.12705      -837.40321      296.96641      9686.546       0.8894397      0.86771259   
    395400  -4111.6158     -4146.2525      34.636715     -2221.7962      310.49975      9673.2629      0.89066106     0.86771259   
    395500  -4110.2543     -4144.3565      34.102215      1027.322       305.70825      9654.3532      0.89240558     0.86771259   
    395600  -4110.3285     -4145.1723      34.843774      468.03222      312.35593      9628.835       0.89477061     0.86771259   
    395700  -4109.6356     -4143.5182      33.882563      626.26295      303.73918      9604.827       0.89700716     0.86771259   
    395800  -4109.8696     -4144.5491      34.679455     -1194.6589      310.8829       9594.4999      0.89797266     0.86771259   
    395900  -4109.7285     -4144.3767      34.64822       313.70645      310.60289      9592.2732      0.89818111     0.86771259   
    396000  -4108.9816     -4143.1582      34.176614     -939.72694      306.37519      9600.7194      0.89739094     0.8202328    
    396100  -4109.7569     -4144.7054      34.94852      -291.10891      313.29492      9616.6046      0.89590858     0.8202328    
    396200  -4109.35       -4144.3973      35.04734      -1246.4083      314.18079      9635.8286      0.89412119     0.8202328    
    396300  -4110.4539     -4145.2931      34.839182      2493.6832      312.31477      9659.1826      0.89195938     0.8202328    
    396400  -4109.1631     -4145.696       36.532898     -188.31878      327.49803      9681.5786      0.88989605     0.8202328    
    396500  -4108.2642     -4143.8894      35.625238     -515.62968      319.36134      9694.6614      0.88869516     0.8202328    
    396600  -4107.8543     -4143.2023      35.347961      1080.8504      316.8757       9699.743       0.88822958     0.8202328    
    396700  -4107.7385     -4143.1619      35.423406     -2547.0783      317.55202      9699.5489      0.88824734     0.8202328    
    396800  -4108.4208     -4143.3882      34.967402     -1382.1094      313.46419      9697.3181      0.88845169     0.8202328    
    396900  -4107.9092     -4143.6206      35.711317      1752.0395      320.13299      9692.06        0.88893368     0.8202328    
    397000  -4109.0193     -4144.6958      35.676453     -833.18934      319.82045      9683.7635      0.88969527     0.83752371   
    397100  -4109.3359     -4144.8272      35.49133      -2016.2674      318.16092      9673.9243      0.89060016     0.83752371   
    397200  -4108.8486     -4143.0298      34.181219     -761.21483      306.41647      9667.0963      0.89122921     0.83752371   
    397300  -4109.0155     -4143.1491      34.133654     -1120.1516      305.99008      9662.8261      0.89162306     0.83752371   
    397400  -4107.5647     -4142.8124      35.247727      2034.4353      315.97715      9659.686       0.89191291     0.83752371   
    397500  -4108.6307     -4143.7185      35.087838      951.37803      314.54383      9661.5475      0.89174105     0.83752371   
    397600  -4108.2517     -4143.257       35.005314     -426.41421      313.80405      9664.0199      0.89151292     0.83752371   
    397700  -4106.7354     -4143.2981      36.562679      917.58628      327.765        9670.4916      0.8909163      0.83752371   
    397800  -4106.8146     -4141.0539      34.239297      1299.5815      306.93711      9682.8397      0.88978015     0.83752371   
    397900  -4106.6599     -4142.7654      36.105491     -535.20035      323.66655      9699.0976      0.88828867     0.83752371   
    398000  -4106.6391     -4141.3867      34.747588     -877.77051      311.49367      9714.7065      0.88686144     0.86596333   
    398100  -4106.3616     -4141.1645      34.802902     -504.10563      311.98953      9730.913       0.88538441     0.86596333   
    398200  -4107.5216     -4141.6632      34.141652      1399.8159      306.06177      9748.0227      0.88383038     0.86596333   
    398300  -4108.0405     -4142.5437      34.503261      562.83304      309.30341      9761.9164      0.88257246     0.86596333   
    398400  -4107.4563     -4142.8359      35.379651     -611.32438      317.15978      9767.6496      0.88205443     0.86596333   
    398500  -4107.1357     -4142.2369      35.101203     -550.9589       314.66365      9769.4415      0.88189265     0.86596333   
    398600  -4106.2622     -4141.072       34.809789      681.40152      312.05127      9765.7641      0.88222473     0.86596333   
    398700  -4106.9109     -4141.8426      34.931682      2295.9648      313.14398      9754.8431      0.88321242     0.86596333   
    398800  -4107.4191     -4142.8409      35.421794     -865.06068      317.53757      9740.6231      0.88450179     0.86596333   
    398900  -4109.107      -4142.9644      33.857385     -2829.8599      303.51348      9723.7454      0.88603704     0.86596333   
    399000  -4109.5573     -4143.5581      34.000817      1551.1287      304.79927      9701.4553      0.8880728      0.81991689   
    399100  -4108.0723     -4143.6444      35.572119     -1148.288       318.88515      9680.6477      0.88998162     0.81991689   
    399200  -4108.334      -4143.5392      35.205167      1023.0659      315.59562      9665.8268      0.89134626     0.81991689   
    399300  -4108.0815     -4143.8695      35.787921     -1058.6388      320.8197       9654.5703      0.8923855      0.81991689   
    399400  -4109.2335     -4143.6554      34.421854      699.71386      308.57364      9650.0723      0.89280146     0.81991689   
    399500  -4109.3452     -4143.5827      34.237551      812.77714      306.92146      9656.5223      0.89220512     0.81991689   
    399600  -4108.7383     -4144.7276      35.989309      1256.6935      322.62504      9672.5388      0.89072774     0.81991689   
    399700  -4107.771      -4144.1693      36.398298      734.28017      326.29141      9693.039       0.8888439      0.81991689   
    399800  -4108.712      -4142.6186      33.90665       2168.566       303.95511      9710.333       0.88726088     0.81991689   
    399900  -4107.606      -4143.6702      36.064197      730.3853       323.29637      9721.9053      0.88620474     0.81991689   
    400000  -4107.4095     -4142.0737      34.664196      2154.695       310.7461       9728.2357      0.88562806     0.81741451   
    400100  -4106.7161     -4141.6456      34.929494      281.02118      313.12436      9729.1213      0.88554745     0.81741451   
    400174  -4106.126      -4142.6833      36.557315     -888.45319      327.71692      9726.5684      0.88577988     0.81741451   
Loop time of 506.812 on 2 procs for 200000 steps with 864 atoms

Performance: 17.048 ns/day, 1.408 hours/ns, 394.624 timesteps/s, 340.955 katom-step/s
99.6% CPU use with 2 MPI tasks x 1 OpenMP threads

MPI task timing breakdown:
Section |  min time  |  avg time  |  max time  |%varavg| %total
---------------------------------------------------------------
Pair    | 259.33     | 263.71     | 268.09     |  27.0 | 52.03
Neigh   | 7.4798     | 7.5116     | 7.5435     |   1.2 |  1.48
Comm    | 38.94      | 44.206     | 49.472     |  79.2 |  8.72
Output  | 0.29201    | 0.29522    | 0.29843    |   0.6 |  0.06
Modify  | 188.15     | 189.05     | 189.94     |   6.5 | 37.30
Other   |            | 2.038      |            |       |  0.40

Nlocal:            432 ave         433 max         431 min
Histogram: 1 0 0 0 0 0 0 0 0 1
Nghost:         2162.5 ave        2167 max        2158 min
Histogram: 1 0 0 0 0 0 0 0 0 1
Neighs:              0 ave           0 max           0 min
Histogram: 2 0 0 0 0 0 0 0 0 0
FullNghs:        44035 ave       44263 max       43807 min
Histogram: 1 0 0 0 0 0 0 0 0 1

Total # of neighbors = 88070
Ave neighs/atom = 101.93287
Neighbor list builds = 19972
Dangerous builds = 19836

unfix		3
unfix		4
Total wall time: 0:16:52
