../../full/v/4000_bar/2-coex/290/water.dat (written by ASE) 

2016 	 atoms 
2  atom types
0.0      18.180592353697342  xlo xhi
0.0               47.303131  ylo yhi
0.0      19.399422425386934  zlo zhi
   -0.26501799999999998     -6.5848800000000001    0.096884999999999999  xy xz yz


Atoms 

     1   2      0.4733500000000001      8.5363869999999995      12.797738000000001
     2   1     0.91259900000000005      7.6867780000000003               12.846992
     3   1     0.81782299999999952      9.0270469999999996      13.546256999999999
     4   2                6.223325     0.88590800000000003      2.4773839999999998
     5   1      6.4668169999999998                0.089906      2.0033289999999999
     6   1      6.7979180000000001                1.562951                2.116752
     7   2      5.9962039999999996      7.0939639999999988               14.354334
     8   1      5.4023440000000003      6.6119180000000002               14.932903
     9   1      5.5420999999999987      7.9191539999999998               14.180348
    10   2      6.1422180000000015      46.667467000000002                5.207211
    11   1      6.3208219999999988      47.164570000000005      4.4068189999999996
    12   1      5.1899299999999995      46.548416000000003      5.2088989999999988
    13   2      15.053315000000001      19.787263999999997     0.78190999999999999
    14   1      15.235689999999998      18.999316999999998      1.2953039999999998
    15   1               14.518901      19.494364000000001    0.093752000000000002
    16   2      7.5694549999999996      4.8693730000000004               19.051489
    17   1      8.4543360000000014      4.9807289999999993      19.109487999999999
    18   1      7.2721209999999985      5.6089950000000002               18.519848
    19   2      11.058458000000002      6.0278139999999993      14.037828999999999
    20   1      10.547100000000002      5.8625659999999993               14.832834
    21   1               11.972616      5.9926039999999992      14.327923999999999
    22   2      13.238644000000001      5.6204529999999995      11.256213000000001
    23   1      12.339272000000001      5.4954020000000003               10.945579
    24   1               13.378202      4.9093799999999987               11.883262
    25   2     -1.0884000000000003      15.635718999999998      9.8379809999999992
    26   1    -0.67344400000000049      14.786217999999998      9.6851149999999997
    27   1               -1.043677      16.079813000000001      8.9890530000000002
    28   2      5.5657839999999998               13.307451               17.578861
    29   1      5.8806839999999969      13.760142999999998      18.363575000000001
    30   1      6.3644739999999977      13.045834999999999      17.115891999999999
    31   2     -3.7681619999999998      46.662092000000001      17.722691000000001
    32   1     -4.7126579999999993      46.822137000000005      17.665468000000001
    33   1     -3.4446479999999999      47.338267000000002      18.319921000000001
    34   2     -4.6468530000000001      6.0726800000000001               15.189629
    35   1               -4.632301      5.1612679999999997               15.482408
    36   1     -3.7402030000000002      6.2578690000000003               14.935466
    37   2      2.0742940000000001      9.6533130000000007      2.3572190000000002
    38   1      2.8246289999999998      9.1426819999999989      2.6669440000000004
    39   1      1.3084629999999999      9.1987799999999975      2.7133989999999999
    40   2     0.25351899999999961      15.975751000000001      18.800229999999999
    41   1     0.88551299999999833      15.515150999999998      19.453041000000002
    42   1    -0.69118600000000086      15.845589999999998      18.907938000000001
    43   2               14.029316      3.5551669999999995      5.0771199999999999
    44   1               13.465422      4.3219919999999989      4.9679070000000003
    45   1      13.439280999999999      2.8083819999999995      4.9663949999999994
    46   2      1.4157300000000004      18.213668999999999      17.819510000000001
    47   1     0.98240600000000011               18.852266      18.388066999999999
    48   1     0.93841400000000019                17.39723      17.971481000000001
    49   2      1.9875419999999995      9.2176459999999985      10.386602999999999
    50   1      1.3571729999999997      9.1094170000000005               11.102045
    51   1      2.4109080000000001               10.058092      10.564626000000001
    52   2     0.27739800000000014                8.433567      4.1537030000000001
    53   1   -0.092805000000000012      7.5533459999999994      4.0824600000000002
    54   1    -0.44145699999999993      8.9676199999999984      4.4965909999999996
    55   2      13.467827999999999      3.4653710000000002      13.052627000000001
    56   1      12.598334999999999      3.1095630000000001      13.247032000000001
    57   1     -4.2428509999999999      3.5325349999999998               13.908263
    58   2       7.212559999999999               12.951711                3.186782
    59   1      7.2440620000000004      13.728828999999999      3.7461289999999998
    60   1      7.7490629999999996      12.304622999999998      3.6474790000000001
    61   2      15.104003000000001      12.933987999999998      8.6313779999999998
    62   1      14.582700000000003               12.329594      9.1624379999999999
    63   1      14.835835000000001      13.803896999999997      8.9285990000000002
    64   2      4.8489120000000012      22.419269999999997      2.2929330000000001
    65   1       5.755440000000001      22.725329999999996      2.3646289999999999
    66   1      4.6301929999999993      22.107883000000001      3.1736260000000001
    67   2      6.6388840000000009      18.422419000000001      18.341197999999999
    68   1      6.9157659999999987      17.716543000000001      18.927216999999999
    69   1      5.6942079999999997      18.502452999999999      18.490355000000001
    70   2                2.910504      46.451121000000001      1.9961159999999998
    71   1      3.2200530000000001      47.276924000000001                1.622457
    72   1      3.6712379999999998      46.035335999999994                2.344239
    73   2     -1.4795730000000002      4.1875499999999999      17.153006000000001
    74   1     -1.2339690000000008      3.2631359999999994               17.112724
    75   1     -1.9497960000000001      4.2757039999999993      17.984894000000001
    76   2                3.980505      4.0898149999999989     0.17364399999999999
    77   1      4.3348509999999996      4.8432370000000002                0.647756
    78   1     -3.7010790000000005      4.3255619999999997      19.308043999999999
    79   2      8.7670659999999998      1.6450279999999997      9.1990180000000006
    80   1      8.0533819999999992      1.2616560000000001      9.7127660000000002
    81   1      8.4756429999999998      2.5383140000000002      9.0148969999999995
    82   2      16.381456000000004               12.028798      2.3072900000000001
    83   1    -0.98237300000000005      11.827258999999998      2.8343289999999999
    84   1               15.642379      11.885925999999998                2.902498
    85   2               12.349193      47.075048000000002      5.3780840000000003
    86   1      12.535080000000001     0.37815299999999996      4.6396920000000001
    87   1      11.720705000000001               46.378301      5.1830980000000002
    88   2               10.504301      7.5333119999999987               17.810001
    89   1       9.858395999999999      7.9806229999999996      17.259834000000001
    90   1      11.338318000000001      7.9563199999999989               17.596439
    91   2      2.4651419999999997      17.336860999999999               10.142776
    92   1      2.3660949999999996      17.892454000000001      9.3676530000000007
    93   1      1.7891219999999997               17.645678      10.749522000000001
    94   2     -5.4364879999999998      4.0403000000000002      18.447258000000001
    95   1     -6.2865900000000003                4.271515      18.827591000000002
    96   1     -5.6488950000000004      3.6888390000000002      17.580287999999999
    97   2      3.3035109999999999      46.892361999999999      5.4988780000000004
    98   1       2.842112999999999      47.296106000000002      6.2365899999999996
    99   1      2.6787080000000012      46.206982000000004                5.191452
   100   2      0.4725219999999995      18.721122999999995               11.436427
   101   1    -0.44165600000000016      18.465650999999998      11.577000999999999
   102   1     0.52233900000000011      19.620540999999999      11.760891999999998
   103   2      1.9001459999999999      5.2313889999999992                5.960299
   104   1      2.6617929999999999      4.8220890000000001      5.5449270000000004
   105   1      1.8122309999999997      4.7800830000000003      6.8019969999999992
   106   2      3.7620279999999977      6.3618899999999998               15.751308
   107   1                 4.04169      5.6624679999999996                16.34375
   108   1      3.8864299999999994      7.1658739999999996               16.256971
   109   2      16.559748000000003      4.1532920000000004      2.6254599999999999
   110   1      16.958673000000001      4.7133779999999996      3.2936519999999998
   111   1      16.340183999999997      3.3456990000000002      3.0914220000000001
   112   2      5.2955059999999987      5.2902440000000004      7.8598739999999996
   113   1      4.5811510000000002       5.921308999999999      7.9618719999999987
   114   1      5.1156300000000003      4.8583759999999989      7.0225650000000002
   115   2      4.4774129999999985      3.1609219999999998               14.082015
   116   1       3.925215000000001      2.6094759999999999               13.524899
   117   1      5.2992940000000006      3.2489619999999997               13.594398
   118   2      9.6388540000000003      4.0171379999999992      6.3941840000000001
   119   1      9.1471289999999978      4.0688950000000004      7.2166680000000003
   120   1      10.331201999999998      3.3772899999999999                6.567774
   121   2      11.132947000000001                3.018802      16.404913000000001
   122   1      10.554949000000001      2.3486289999999999               16.772928
   123   1                11.38184      2.6774939999999994               15.543583
   124   2     -1.9189710000000002      2.4442979999999999      6.6772809999999998
   125   1     -1.2858770000000002      2.4500899999999999      5.9560639999999996
   126   1      15.476046999999999      2.9503279999999994      6.3476840000000001
   127   2     0.78382699999999961      5.6639720000000002      17.018174999999999
   128   1      1.5232829999999997      5.1211099999999989               16.738892
   129   1     0.01425199999999972      5.1039169999999991      16.901993000000001
   130   2    -0.33329200000000025      1.6068009999999999               17.077862
   131   1   -0.067463000000000176     0.96811399999999992               17.741356
   132   1     0.14310099999999862      1.3461540000000001      16.286836999999998
   133   2                7.299239      19.502749999999999               16.035307
   134   1      7.0369950000000001      18.954660000000001      16.777056000000002
   135   1      8.2385889999999993      19.335726000000001               15.932008
   136   2               12.950692      10.146935999999998      6.5919629999999998
   137   1                13.53424      9.5013539999999992      6.1900779999999997
   138   1               12.393497      10.371529000000001      5.8982780000000004
   139   2    -0.43728800000000029       5.668601999999999      4.5621489999999998
   140   1     0.45275100000000024      5.5403890000000002      4.8973829999999996
   141   1               -0.987757      5.7022649999999997      5.3475289999999998
   142   2      12.613647000000002     0.10633499999999999      9.8260360000000002
   143   1      11.986464000000002     0.73471399999999987      10.187593000000001
   144   1      11.861763000000002      46.956046000000001                9.135192
   145   2      14.791895000000002      4.7513379999999987      8.8216979999999996
   146   1      14.527225999999999      5.3196459999999988      9.5471160000000008
   147   1     -2.6281159999999999      4.2278390000000003      9.1783000000000001
   148   2               -1.008416               15.556702      4.2701060000000002
   149   1      16.488613000000001      15.238596999999999      3.6330249999999999
   150   1               -1.193225                15.05908                5.068765
   151   2      8.4898590000000009      46.967053000000007                7.409281
   152   1                9.018167     0.46105099999999999      7.8706789999999991
   153   1      8.6294430000000002      47.167388000000003      6.4813299999999998
   154   2      12.367798000000001      46.141746999999995      2.1000519999999998
   155   1               12.459937               46.834851      1.4417059999999999
   156   1      12.034772999999999      45.384215999999995      1.6171390000000001
   157   2      5.0176189999999998      46.511868000000007      17.522251000000001
   158   1       5.415792999999999      47.159361000000004      16.938306999999998
   159   1      5.7060020000000007      45.918242999999997      17.745277000000002
   160   2      1.2161900000000001      1.9701580000000001     0.68416200000000005
   161   1                1.134393                1.161786     0.17684299999999997
   162   1                1.208809      2.6662509999999999    0.025527999999999999
   163   2     -1.2396240000000001      8.7681380000000004      10.678805000000001
   164   1    -0.75129399999999991      8.7125429999999984      11.503056000000001
   165   1     -1.5538010000000002      9.6719729999999995      10.646058999999999
   166   2      14.638424000000002      14.964402999999999      3.0663659999999999
   167   1      14.386022000000001      14.470128999999998      2.2842880000000001
   168   1               14.411064      14.390210999999999      3.7997290000000001
   169   2      14.019580999999999      5.4096570000000002                2.292783
   170   1               14.194355      5.3088740000000003      1.3546130000000001
   171   1      14.547413000000001      4.7883939999999994      2.7166869999999999
   172   2               -1.378935      2.8387370000000001      9.4208189999999998
   173   1     -1.5690220000000001      2.4844780000000002      8.5498220000000007
   174   1               -2.065788      2.4762309999999998      9.9839800000000007
   175   2      5.2182420000000009      14.044481999999999      8.6248869999999993
   176   1      4.7832719999999993      13.200215999999998                8.501322
   177   1      6.0126990000000005               13.837125                9.121537
   178   2    -0.50954000000000044               16.436563               14.876961
   179   1   -0.090263000000000204      16.198392999999999               14.047418
   180   1    -0.33025399999999971               17.371668               14.976016
   181   2     0.62578900000000026      1.3260799999999999      10.714934999999999
   182   1      1.4925879999999998      1.7291729999999998               10.634936
   183   1    0.020378000000000038      1.9822219999999997               10.366066
   184   2      15.372116000000002      47.194102000000001      5.4621449999999996
   185   1      14.551098999999999      46.895086000000006      5.8585140000000004
   186   1      15.868044999999997     0.67904299999999984      5.9554270000000002
   187   2      12.385498999999998      7.9079059999999997                1.135785
   188   1      12.113417999999999      7.1060970000000001     0.68782200000000004
   189   1      13.262897000000001      8.0893149999999974     0.79202799999999995
   190   2    -0.06264200000000017      47.227460000000001      19.162524999999999
   191   1     0.82345499999999994      46.859829000000005      19.169803999999999
   192   1    -0.63942899999999947      46.467722000000002               19.072481
   193   2      2.5437009999999995      12.703810999999998               15.295636
   194   1      2.0277940000000001      13.467190999999998      15.558377999999999
   195   1      3.4088060000000007      13.058198999999998               15.080188
   196   2     0.53086599999999973      22.004256999999999               16.792175
   197   1    -0.35653899999999927      22.089930999999996      16.436914000000002
   198   1     0.42969800000000014      21.434508999999998               17.556625
   199   2      12.616656000000001      6.1333939999999991       5.159883999999999
   200   1      12.498011999999999      6.0337049999999994      6.1069060000000004
   201   1      13.196033000000002      6.8357719999999995      5.0713100000000013
   202   2      11.107691000000003      19.052088000000001      6.3836399999999998
   203   1      12.004788000000001      19.220262999999996                6.087218
   204   1      11.165524000000001      18.227347999999999      6.8672110000000002
   205   2      8.6047879999999992      15.050744999999997      4.4859869999999997
   206   1      8.5710960000000007      16.002936999999996      4.5776240000000001
   207   1      9.2879590000000007      14.896366999999998      3.8299889999999999
   208   2     -5.2389619999999999               20.780977               18.388506
   209   1     -5.8098770000000002      20.021139000000002               18.267315
   210   1               -5.218979      20.917663999999998      19.338101999999999
   211   2    0.030172000000000188                2.264208      4.7460209999999998
   212   1     0.43747999999999981      2.8719639999999997                4.126538
   213   1   -0.083374000000000115      1.4550509999999999                 4.24613
   214   2      4.9239280000000001      15.501845999999999      3.1253269999999995
   215   1      4.2290989999999997      16.107854999999997      3.3881459999999999
   216   1      5.6610659999999999               16.066551      2.8863620000000001
   217   2               11.193996                 8.45791      3.6114169999999994
   218   1      11.138090999999999      7.5789619999999989      3.9872519999999998
   219   1               11.622759      8.3309259999999998      2.7623519999999999
   220   2     -2.2017030000000002      9.9524499999999989      8.1129010000000008
   221   1     -2.4556200000000001               10.871015      8.0217340000000004
   222   1     -1.2833190000000001      9.9822469999999992      8.3899620000000006
   223   2      6.5322589999999989      9.1282439999999987      1.6703789999999998
   224   1      5.9463359999999996      8.9391159999999985     0.93435999999999997
   225   1      6.1820459999999988      9.9325790000000005                2.055059
   226   2      14.221902000000002      15.441734999999998      8.2488969999999995
   227   1      14.536396999999999               15.887912                 7.46028
   228   1               14.083423      16.144138000000002      8.8859259999999995
   229   2      9.8187949999999997               18.712505               15.249886
   230   1      9.7143010000000007      17.792684999999999      15.005898999999999
   231   1      10.350048000000003      19.088204999999995      14.545000999999999
   232   2      3.3110840000000001      11.942655999999998      8.2909380000000006
   233   1      3.8916870000000006               11.250078      7.9719889999999998
   234   1      3.1486959999999997      11.718053999999999      9.2095470000000006
   235   2      8.7711469999999991      0.9192499999999999      12.908264000000001
   236   1                9.069464                0.472215               12.113871
   237   1      9.0601450000000003     0.35429099999999997      13.626995000000001
   238   2      14.489994000000001      8.0298599999999993      5.7462010000000001
   239   1      14.736868999999997      7.9457859999999991      4.8226880000000003
   240   1               15.094068      7.4481520000000003      6.2108939999999997
   241   2      16.330579000000004      10.058030999999998      4.8722380000000003
   242   1      15.907118000000001      9.6666169999999987      5.6388090000000002
   243   1      15.620052000000001      10.504676999999997      4.4078660000000003
   244   2      5.7435769999999993               11.585775      12.066927999999999
   245   1      6.4824029999999988      10.989263999999999      12.199180999999999
   246   1      5.5230860000000011      11.893642999999999      12.948422000000001
   247   2      3.9515369999999996      1.7696719999999997      3.6004339999999999
   248   1      4.6734710000000002      1.2392989999999999                3.258273
   249   1      3.4875440000000006      1.1870909999999999      4.2041899999999996
   250   2      9.2974270000000008      17.814258999999996                 4.55497
   251   1      8.6089880000000001      18.479984000000002      4.5945729999999996
   252   1      9.9645689999999991               18.118814      5.1735889999999998
   253   2      9.5159629999999993      17.247779999999999                1.650536
   254   1      10.101203999999999               17.563768                 2.34199
   255   1      9.8940129999999993      17.591754999999999     0.83869399999999994
   256   2      6.2331250000000002      1.7270719999999999      6.6419879999999996
   257   1      6.7760739999999995      2.2169490000000001      6.0215379999999996
   258   1      6.2499999999999991     0.82739899999999988      6.3148609999999996
   259   2      2.7722360000000008      17.566462999999999      13.652149999999999
   260   1      3.1088980000000004      16.850604999999998               13.111335
   261   1      1.8446129999999998      17.631776999999996      13.414840999999999
   262   2      10.661511000000001               12.050497      8.0688800000000001
   263   1      11.411763000000001      12.385341999999998      7.5734519999999996
   264   1                10.11069      12.819076999999998      8.2231199999999998
   265   2      2.1917149999999999      3.6959110000000002               15.402592
   266   1      3.0323689999999992      3.5166629999999999      14.975903999999998
   267   1      2.2085349999999995      3.1651159999999994               16.200979
   268   2      8.5489339999999991      13.100440000000001               13.548947
   269   1      9.4993619999999979      12.967579000000001      13.555476000000001
   270   1      8.4285320000000006      13.951989999999999               13.127621
   271   2      10.537148999999998               16.349442                7.483123
   272   1               10.075745               15.510667      7.4537100000000001
   273   1      10.397709000000001      16.668392000000001      8.3771109999999993
   274   2      7.8343420000000012      8.7215569999999989      19.188400000000001
   275   1      8.9191169999999982      9.0451420000000002      19.431671000000001
   276   1      7.8701709999999991      8.1698599999999999      18.405024000000001
   277   2      13.569834000000002      11.455552000000001               10.514535
   278   1               13.489936      11.025731999999998      11.368249999999998
   279   1      12.859183999999999      12.098759999999999      10.503104999999998
   280   2      10.951670999999997      5.0609089999999997               10.064377
   281   1      11.238140999999999                4.175109      9.8404399999999992
   282   1               10.361786      4.9424509999999993      10.811985999999999
   283   2      10.878154000000002               18.934929      18.131171999999999
   284   1               10.285057               18.931742      17.376712999999999
   285   1      10.317747000000002      18.715756999999996      18.878592000000001
   286   2      8.6525259999999999      14.011897999999999      7.1867340000000004
   287   1      8.2157420000000005      14.618014000000001      7.7874749999999997
   288   1      8.5846490000000006      14.431901999999997      6.3270900000000001
   289   2     0.42561400000000005      11.507049999999998                 3.81331
   290   1                1.022583      10.915808999999999      3.3515419999999998
   291   1    -0.10792399999999995               10.931668      4.3642459999999996
   292   2               13.289878               22.005198      7.1151730000000004
   293   1      13.271622999999998      21.400878999999996      6.3712090000000003
   294   1               12.387981      22.010591999999999      7.4432450000000001
   295   2      8.4834720000000008      20.494624999999999      2.2568999999999999
   296   1      8.0293249999999983      20.067250999999999      2.9856729999999998
   297   1      9.4147829999999999      20.339659000000001                2.428976
   298   2                4.269107      8.3228030000000004               11.354735
   299   1      3.4377809999999998      8.5783349999999992               10.949368
   300   1       4.180003000000001      7.3826569999999991      11.511299000000001
   301   2               12.664916               15.731755      5.5080239999999998
   302   1      12.019164999999997      15.954873999999998      6.1817929999999999
   303   1      13.360970000000002      16.274816999999999      5.7153400000000012
   304   2      9.9125329999999998      8.5573289999999993               10.295726
   305   1               10.745606      8.7448939999999986      9.8579099999999986
   306   1      9.3015509999999999      9.2042659999999987      9.9393630000000002
   307   2      2.0680770000000002                6.327439      2.1182020000000001
   308   1      2.6036929999999998      6.7136690000000003      2.8140049999999999
   309   1      1.8965499999999995      5.4340460000000004                2.416865
   310   2   -0.032821000000000405      19.050412999999999               15.585855
   311   1      0.5135059999999998      18.865483999999999               16.352753
   312   1     0.52292100000000052      19.588756999999998               15.019453
   313   2      13.511186000000002      19.758214999999996      5.2647969999999997
   314   1      14.400277000000001                19.65062      5.6097020000000004
   315   1      13.635938999999999      20.139125999999997      4.3932960000000003
   316   2               11.059998      5.6878929999999999    0.045559000000000002
   317   1               11.483221      5.3013570000000003     0.81474400000000013
   318   1      4.3690610000000003      4.9892380000000003      18.784327999999999
   319   2     -3.1212390000000001      14.813073999999999      11.550530999999999
   320   1     -2.9427660000000007      15.186788999999999      12.415793000000001
   321   1     -2.4489830000000001               15.191889               10.980591
   322   2     -2.7617430000000005      47.056179000000007               13.125052
   323   1               -2.576781                0.184033      13.978160000000001
   324   1     -1.8318659999999998      46.829231000000007               13.056898
   325   2      7.6487480000000012      16.259850999999998      8.5031040000000004
   326   1      8.4332859999999989               16.724421                8.800751
   327   1      7.5675499999999998      16.492819000000001      7.5758660000000004
   328   2      4.0951510000000004      16.227246999999998      7.1070789999999997
   329   1      4.8027749999999996      16.849868999999998      6.9321109999999999
   330   1       4.476840000000001      15.598799999999999      7.7221059999999992
   331   2                14.59891               12.772592      4.9816669999999998
   332   1      15.308224000000001               12.849408                5.623507
   333   1      13.795215000000001               12.838348      5.5020259999999999
   334   2      11.423766000000001      21.471119000000002                0.193943
   335   1               11.462016      20.872209999999999     0.94153600000000004
   336   1               10.537452      21.836982999999996     0.22506100000000001
   337   2    -0.53665899999999989      18.152202999999997      4.5046939999999998
   338   1     0.31216099999999997      18.309587000000001      4.9238200000000001
   339   1    -0.58901199999999998      17.200289000000001      4.4191209999999996
   340   2      8.1069959999999988      21.539885999999999               13.892496
   341   1      7.1540270000000001      21.579135999999998               13.999286
   342   1      8.2711529999999982      20.675538999999997               13.514353
   343   2      12.216350000000004               14.830899               13.529168
   344   1      12.505399000000001      15.716215999999998               13.306633
   345   1      13.022179999999999      14.370136999999998                13.77059
   346   2     0.81565900000000013      14.619234000000001      16.442983999999999
   347   1     0.48141000000000073      14.799129000000001      17.324280000000002
   348   1     0.29978200000000016      15.187879999999998      15.868700999999998
   349   2     -2.2185980000000001                1.348217      19.447625000000002
   350   1      5.2430680000000001                1.192404     0.36827399999999993
   351   1     -2.4016669999999998                2.287023      19.409258000000001
   352   2      12.111284999999999      17.612663000000001               12.136566
   353   1      12.065552000000004      18.450935000000001      12.597511000000001
   354   1      12.802639999999998      17.734134999999998               11.482187
   355   2      9.5380090000000006      5.3643850000000004      16.318235000000001
   356   1      10.075214000000001      4.5824889999999998      16.451823999999998
   357   1      9.8383320000000012      5.9777269999999998      16.990995000000002