LAMMPS (7 Feb 2024 - Update 1)
KOKKOS mode with Kokkos version 4.2.0 is enabled (src/KOKKOS/kokkos.cpp:72)
  will use up to 4 GPU(s) per node
  using 1 OpenMP thread(s) per MPI task
package kokkos
package kokkos newton on neigh half

units		metal						## E in [eV], t in [ps], P in [10000 Pa], l in [A]
atom_style	atomic						## mass x y z vx vy vz

neighbor	0.5 bin						## neighbor list, skin = 0.5 Angstrom
neigh_modify	every 2 delay 10 check yes			## update of neighbor list

############################## main variables
variable        seed equal 79024

variable	temperature equal 335
variable	tempDamp equal 0.1

variable        pressure equal 10000
variable        pressureDamp equal 1.0 				# This is 1 ps

##############################

read_data water.dat
Reading data file ...
  triclinic box = (0 0 0) to (24.989956 24.989919 23.167336) with tilt (-0.22207236 -0.16357316 -0.098737559)
  2 by 2 by 1 MPI processor grid
  reading atoms ...
  1920 atoms
  read_data CPU = 0.013 seconds

mass		1 1.008    # H
mass		2 15.9994  # O


pair_style	pace/extrapolation
ACE/AL version: 2023.11.25
pair_coeff	* * /home/cicn/cicn607503/pd/pot_dir/interim_potential_ladder_step_1.yaml /home/cicn/cicn607503/pd/pot_dir/interim_potential_ladder_step_1.asi H O
Loading /home/cicn/cicn607503/pd/pot_dir/interim_potential_ladder_step_1.yaml
Total number of basis functions
	H: 23 (r=1) 664 (r>1)
	O: 23 (r=1) 664 (r>1)
Mapping LAMMPS atom type #1(H) -> ACE species type #0
Mapping LAMMPS atom type #2(O) -> ACE species type #1
Loading ASI /home/cicn/cicn607503/pd/pot_dir/interim_potential_ladder_step_1.asi
LINEAR ASI is loaded

fix pace_gamma all pair 1000 pace/extrapolation gamma 1
compute max_pace_gamma all reduce max f_pace_gamma
variable dump_skip equal "c_max_pace_gamma < 10"

dump pace_dump all custom 1000 extrapolative_structures.dump id type x y z f_pace_gamma
dump_modify pace_dump skip v_dump_skip
dump_modify pace_dump element H O

variable max_pace_gamma equal c_max_pace_gamma

timestep	0.0005						## timestep = 0.0005*ps = 0.5 fs

thermo		100
thermo_style custom step etotal pe ke press temp vol density c_max_pace_gamma


min_style cg/kk
minimize 0.0 5.0e-4 10000 100000
Switching to 'neigh_modify every 1 delay 0 check yes' setting during minimization
Neighbor list info ...
  update: every = 1 steps, delay = 0 steps, check = yes
  max neighbors/atom: 2000, page size: 100000
  master list distance cutoff = 6.5
  ghost atom cutoff = 6.5
  binsize = 6.5, bins = 4 4 4
  1 neighbor lists, perpetual/occasional/extra = 1 0 0
  (1) pair pace/extrapolation/kk, perpetual
      attributes: full, newton on, kokkos_device
      pair build: full/bin/kk/device
      stencil: full/bin/3d
      bin: kk/device
WARNING: Fix with atom-based arrays not compatible with sending data in Kokkos communication, switching to classic exchange/border communication (src/KOKKOS/comm_kokkos.cpp:666)
WARNING: Fix with atom-based arrays not compatible with Kokkos sorting on device, switching to classic host sorting (src/KOKKOS/atom_kokkos.cpp:218)
Per MPI rank memory allocation (min/avg/max) = 423.1 | 425.6 | 428.5 Mbytes
   Step         TotEng         PotEng         KinEng         Press           Temp          Volume        Density     c_max_pace_gamma
         0  -9186.3912     -9186.3912      0              71325.798      0              14467.932      1.3233249      0.69469981   
       100  -9273.0205     -9273.0205      0             -8111.2599      0              14467.932      1.3233249      0.69469981   
       200  -9273.1146     -9273.1146      0             -8127.6751      0              14467.932      1.3233249      0.69469981   
       300  -9273.1151     -9273.1151      0             -8129.3073      0              14467.932      1.3233249      0.69469981   
       333  -9273.1151     -9273.1151      0             -8129.2518      0              14467.932      1.3233249      0.69469981   
Loop time of 1.34323 on 4 procs for 333 steps with 1920 atoms

99.6% CPU use with 4 MPI tasks x 1 OpenMP threads

Minimization stats:
  Stopping criterion = force tolerance
  Energy initial, next-to-last, final = 
     -9186.39119087423  -9273.11512026638  -9273.11512027267
  Force two-norm initial, final = 64.044178 0.00046448421
  Force max component initial, final = 2.4633048 0.00012698581
  Final line search alpha, max atom move = 1 0.00012698581
  Iterations, force evaluations = 333 665

MPI task timing breakdown:
Section |  min time  |  avg time  |  max time  |%varavg| %total
---------------------------------------------------------------
Pair    | 0.87863    | 0.88509    | 0.89431    |   0.6 | 65.89
Neigh   | 0.002921   | 0.0031028  | 0.0032649  |   0.3 |  0.23
Comm    | 0.20671    | 0.21595    | 0.22331    |   1.3 | 16.08
Output  | 0.00045238 | 0.00045297 | 0.00045433 |   0.0 |  0.03
Modify  | 0.14653    | 0.15013    | 0.15403    |   0.8 | 11.18
Other   |            | 0.0885     |            |       |  6.59

Nlocal:            480 ave         482 max         478 min
Histogram: 1 0 0 0 0 2 0 0 0 1
Nghost:         2630.5 ave        2633 max        2629 min
Histogram: 1 0 2 0 0 0 0 0 0 1
Neighs:              0 ave           0 max           0 min
Histogram: 4 0 0 0 0 0 0 0 0 0
FullNghs:        75286 ave       75712 max       74890 min
Histogram: 1 0 0 1 0 1 0 0 0 1

Total # of neighbors = 301144
Ave neighs/atom = 156.84583
Neighbor list builds = 7
Dangerous builds = 0

################## equilibration of main calculation
# Equilibrate to specified number of ice

fix             3 all nph tri ${pressure} ${pressure} ${pressureDamp}
fix             3 all nph tri 10000 ${pressure} ${pressureDamp}
fix             3 all nph tri 10000 10000 ${pressureDamp}
fix             3 all nph tri 10000 10000 1
fix             4 all temp/csvr ${temperature} ${temperature} ${tempDamp} ${seed}
fix             4 all temp/csvr 335 ${temperature} ${tempDamp} ${seed}
fix             4 all temp/csvr 335 335 ${tempDamp} ${seed}
fix             4 all temp/csvr 335 335 0.1 ${seed}
fix             4 all temp/csvr 335 335 0.1 79024
velocity 	all create ${temperature} ${seed} dist gaussian
velocity 	all create 335 ${seed} dist gaussian
velocity 	all create 335 79024 dist gaussian

run 200000
WARNING: Fix with atom-based arrays not compatible with sending data in Kokkos communication, switching to classic exchange/border communication (src/KOKKOS/comm_kokkos.cpp:666)
WARNING: Fix with atom-based arrays not compatible with Kokkos sorting on device, switching to classic host sorting (src/KOKKOS/atom_kokkos.cpp:218)
Per MPI rank memory allocation (min/avg/max) = 424.7 | 426.4 | 427.6 Mbytes
   Step         TotEng         PotEng         KinEng         Press           Temp          Volume        Density     c_max_pace_gamma
       333  -9190.0183     -9273.1151      83.096823     -1994.4989      335            14467.932      1.3233249      0.69469981   
       400  -9178.2553     -9224.1134      45.858118     -2369.3966      184.87433      14418.532      1.3278588      0.69469981   
       500  -9159.3137     -9211.7904      52.476756      4716.3812      211.55698      14227.13       1.3457229      0.69469981   
       600  -9145.4424     -9207.8497      62.407282      8930.4406      251.59132      13987.111      1.3688155      0.69469981   
       700  -9136.669      -9203.7591      67.090115      11569.58       270.46989      13796.563      1.3877206      0.69469981   
       800  -9128.6532     -9200.3772      71.723932      15084.908      289.15085      13697.4        1.397767       0.69469981   
       900  -9122.0811     -9195.6833      73.602174      14648.7        296.72288      13687.022      1.3988269      0.69469981   
      1000  -9116.6227     -9191.529       74.906259      13844.592      301.98022      13754.451      1.3919694      0.70059585   
      1100  -9116.9364     -9193.9481      77.011634      12134.602      310.46792      13881.162      1.3792631      0.70059585   
      1200  -9116.2565     -9192.5042      76.247688      8611.9103      307.38811      14033.707      1.3642707      0.70059585   
      1300  -9114.4191     -9193.1775      78.758414      6649.6128      317.50996      14176.83       1.3504976      0.70059585   
      1400  -9111.005      -9190.5332      79.528139      10826.777      320.61306      14281.394      1.3406096      0.70059585   
      1500  -9108.1257     -9188.523       80.397345      11055.297      324.11721      14338.825      1.3352401      0.70059585   
      1600  -9105.7644     -9187.6223      81.857916      8514.249       330.00542      14353.209      1.333902       0.70059585   
      1700  -9105.6222     -9189.3224      83.700182      6525.2556      337.43241      14332.863      1.3357955      0.70059585   
      1800  -9104.8287     -9188.0725      83.243815      8371.6072      335.59259      14284.494      1.3403187      0.70059585   
      1900  -9102.7054     -9185.2621      82.556681      11025.576      332.82245      14224.138      1.3460059      0.70059585   
      2000  -9102.2168     -9186.8958      84.678996      8391.0521      341.37844      14169.287      1.3512165      0.76590669   
      2100  -9101.3815     -9184.5751      83.19356       11598.903      335.38999      14129.311      1.3550395      0.76590669   
      2200  -9101.4659     -9186.6607      85.194809      9314.4942      343.45791      14113.099      1.356596       0.76590669   
      2300  -9103.8607     -9188.0188      84.158093      11309.09       339.27845      14119.193      1.3560105      0.76590669   
      2400  -9105.8889     -9188.2458      82.356851      11807.897      332.01685      14143.302      1.353699       0.76590669   
      2500  -9105.2604     -9186.9874      81.726985      11828.626      329.47758      14180.828      1.3501169      0.76590669   
      2600  -9104.8618     -9187.2578      82.396043      9909.2357      332.17484      14224.822      1.3459413      0.76590669   
      2700  -9105.4087     -9186.4981      81.089417      9551.9259      326.90726      14265.374      1.3421151      0.76590669   
      2800  -9105.5862     -9188.5644      82.978204      11345.367      334.5218       14296.799      1.3391651      0.76590669   
      2900  -9102.7203     -9183.6145      80.894205      10911.213      326.12027      14315.262      1.3374379      0.76590669   
      3000  -9102.1865     -9184.8817      82.695157      9263.6858      333.38071      14324.704      1.3365564      0.68565472   
      3100  -9099.9614     -9182.762       82.800611      8186.4184      333.80584      14318.054      1.3371772      0.68565472   
      3200  -9100.1333     -9184.7423      84.609002      8317.0447      341.09626      14298.302      1.3390244      0.68565472   
      3300  -9100.5383     -9184.1729      83.634614      7662.8198      337.16807      14265.513      1.342102       0.68565472   
      3400  -9100.3978     -9184.6585      84.260735      6990.7656      339.69224      14230.007      1.3454508      0.68565472   
      3500  -9099.168      -9183.7476      84.579563      10151.096      340.97758      14197.896      1.3484938      0.68565472   
      3600  -9099.892      -9182.7968      82.904754      11952.718      334.22568      14174.092      1.3507584      0.68565472   
      3700  -9101.6047     -9184.814       83.209309      10053.416      335.45348      14164.082      1.351713       0.68565472   
      3800  -9102.741      -9184.5325      81.791489      10823.688      329.73762      14169.653      1.3511816      0.68565472   
      3900  -9102.9197     -9186.0616      83.141864      8482.6089      335.18158      14192.064      1.3490479      0.68565472   
      4000  -9102.7531     -9184.8336      82.080537      9974.1699      330.9029       14225.785      1.3458501      0.7595742    
      4100  -9102.5712     -9184.7043      82.13314       9076.5966      331.11497      14269.252      1.3417504      0.7595742    
      4200  -9100.9178     -9184.1914      83.273572      9233.0562      335.71255      14313.949      1.3375607      0.7595742    
      4300  -9100.835      -9183.3905      82.555559      6775.4206      332.81793      14352.976      1.3339237      0.7595742    
      4400  -9101.2281     -9182.8165      81.588411      8401.5528      328.91892      14376.037      1.3317839      0.7595742    
      4500  -9102.0909     -9185.2924      83.201489      8883.7898      335.42195      14375.118      1.331869       0.7595742    
      4600  -9101.2083     -9184.5317      83.323362      8905.0251      335.91328      14344.903      1.3346743      0.7595742    
      4700  -9101.0898     -9184.2174      83.127609      10522          335.12411      14286.432      1.3401369      0.7595742    
      4800  -9100.4858     -9185.4231      84.93733       11753.36       342.4199       14217.733      1.3466123      0.7595742    
      4900  -9099.3455     -9184.3964      85.050877      12089.006      342.87765      14154.052      1.352671       0.7595742    
      5000  -9098.4185     -9180.4774      82.058989      12079.412      330.81603      14113.153      1.3565909      0.72722379   
      5100  -9098.6041     -9182.4742      83.870016      9877.2522      338.11708      14105.443      1.3573324      0.72722379   
      5200  -9100.664      -9184.1349      83.470915      10980.498      336.50813      14132.955      1.3546901      0.72722379   
      5300  -9099.5017     -9184.6511      85.149373      10428.725      343.27474      14190.392      1.3492069      0.72722379   
      5400  -9098.3241     -9183.1311      84.807036      9118.9434      341.89462      14267.158      1.3419473      0.72722379   
      5500  -9098.2406     -9180.579       82.33837       9353.5934      331.94234      14345.516      1.3346173      0.72722379   
      5600  -9098.7907     -9183.777       84.986361      9661.9942      342.61756      14408.095      1.3288207      0.72722379   
      5700  -9097.5204     -9182.6928      85.172438      7750.5915      343.36772      14440.438      1.3258445      0.72722379   
      5800  -9098.9443     -9181.6618      82.717546      10803.09       333.47096      14442.206      1.3256821      0.72722379   
      5900  -9098.4648     -9183.3333      84.868541      9992.689       342.14258      14417.397      1.3279634      0.72722379   
      6000  -9100.7109     -9184.5558      83.844928      9108.1952      338.01594      14370.739      1.3322749      0.64295273   
      6100  -9101.2575     -9184.1281      82.870634      9962.7464      334.08813      14312.566      1.3376899      0.64295273   
      6200  -9100.1083     -9184.0386      83.930334      11705.771      338.36025      14252.938      1.3432862      0.64295273   
      6300  -9099.2201     -9182.2381      83.017993      11128.149      334.6822       14207.871      1.347547       0.64295273   
      6400  -9100.5256     -9184.304       83.778381      11962.974      337.74766      14182.278      1.3499788      0.64295273   
      6500  -9099.3407     -9185.8423      86.501638      9557.6121      348.72631      14180.674      1.3501315      0.64295273   
      6600  -9100.9747     -9184.6675      83.692794      10966.893      337.40262      14195.896      1.3486838      0.64295273   
      6700  -9101.4191     -9183.7707      82.35164       9638.733       331.99584      14222.84       1.3461288      0.64295273   
      6800  -9100.1289     -9181.6053      81.476456      7051.9698      328.46758      14255.984      1.3429991      0.64295273   
      6900  -9099.8555     -9183.8692      84.013747      7693.0171      338.69652      14284.993      1.3402719      0.64295273   
      7000  -9098.3499     -9183.3827      85.032822      8868.7822      342.80487      14301.825      1.3386945      0.65851102   
      7100  -9099.0712     -9182.0379      82.966645      9628.0731      334.47519      14308.659      1.3380551      0.65851102   
      7200  -9097.6087     -9182.1836      84.574874      9656.95        340.95868      14305.765      1.3383258      0.65851102   
      7300  -9094.7971     -9182.7665      87.96945       8357.7358      354.64371      14298.106      1.3390427      0.65851102   
      7400  -9093.8245     -9179.9382      86.1137        9179.9847      347.16236      14288.126      1.339978       0.65851102   
      7500  -9094.7565     -9182.0781      87.321623      9933.8722      352.03203      14281.021      1.3406446      0.65851102   
      7600  -9094.0231     -9179.5311      85.508005      10971.748      344.72054      14276.635      1.3410566      0.65851102   
      7700  -9094.9452     -9180.5154      85.570146      12056.601      344.97106      14281.152      1.3406323      0.65851102   
      7800  -9096.057      -9180.9136      84.856639      12336.008      342.09459      14289.818      1.3398193      0.65851102   
      7900  -9098.2768     -9181.9967      83.719879      10290.488      337.51181      14300.997      1.338772       0.65851102   
      8000  -9100.0507     -9183.6605      83.609709      11395.595      337.06767      14309.112      1.3380128      0.78177424   
      8100  -9099.0867     -9183.4849      84.39812       8108.6197      340.2461       14305.745      1.3383277      0.78177424   
      8200  -9099.2534     -9184.6963      85.442896      8578.7796      344.45806      14288.93       1.3399026      0.78177424   
      8300  -9097.3014     -9181.9703      84.668868      9528.6455      341.33761      14263.436      1.3422975      0.78177424   
      8400  -9097.7935     -9181.955       84.161485      11088.255      339.29212      14237.946      1.3447006      0.78177424   
      8500  -9097.7264     -9183.6166      85.890179      9799.898       346.26125      14220.573      1.3463434      0.78177424   
      8600  -9101.8854     -9183.8224      81.937046      8244.7895      330.32443      14212.058      1.34715        0.78177424   
      8700  -9099.5133     -9182.2195      82.706135      11797.415      333.42496      14212.706      1.3470886      0.78177424   
      8800  -9096.8727     -9182.3904      85.517703      10999.394      344.75964      14230.643      1.3453907      0.78177424   
      8900  -9097.4993     -9183.4725      85.973179      13364.678      346.59586      14262.17       1.3424167      0.78177424   
      9000  -9097.6166     -9182.9904      85.373853      8489.4944      344.17971      14304.683      1.3384271      0.69906779   
      9100  -9098.6434     -9182.0096      83.366151      7617.3227      336.08578      14350.74       1.3341315      0.69906779   
      9200  -9100.0408     -9182.1417      82.100856      8822.2296      330.98481      14386.702      1.3307966      0.69906779   
      9300  -9101.5911     -9185.2132      83.622073      9082.7488      337.11752      14401.485      1.3294306      0.69906779   
      9400  -9100.9994     -9183.5105      82.511094      7129.5924      332.63867      14389.835      1.3305069      0.69906779   
      9500  -9100.2893     -9183.6819      83.392679      7409.5841      336.19272      14353.96       1.3338323      0.69906779   
      9600  -9099.287      -9181.4503      82.163292      8522.9967      331.23653      14296.397      1.3392028      0.69906779   
      9700  -9098.5585     -9182.8518      84.293264      12303.879      339.82338      14234.247      1.34505        0.69906779   
      9800  -9100.9694     -9184.6044      83.635044      11320.362      337.16981      14180.416      1.3501561      0.69906779   
      9900  -9100.4954     -9184.6623      84.166893      11877.783      339.31392      14140.907      1.3539283      0.69906779   
     10000  -9102.3382     -9186.4806      84.142392      12426.256      339.21515      14128.867      1.3550821      0.75735418   
     10100  -9106.333      -9186.9874      80.654419      11673.799      325.15359      14145.653      1.3534741      0.75735418   
     10200  -9107.3752     -9189.6508      82.275613      9274.3154      331.68934      14183.802      1.3498338      0.75735418   
     10300  -9108.7794     -9188.808       80.028635      8148.9295      322.63078      14225.666      1.3458614      0.75735418   
     10400  -9108.9164     -9188.0038      79.087432      10182.477      318.83637      14257.507      1.3428557      0.75735418   
     10500  -9107.4945     -9187.0151      79.520594      7389.1204      320.58264      14273.59       1.3413426      0.75735418   
     10600  -9105.6965     -9186.7438      81.047269      8180.0397      326.73734      14273.998      1.3413043      0.75735418   
     10700  -9107.0009     -9188.7796      81.778737      6507.5862      329.68621      14259.661      1.3426528      0.75735418   
     10800  -9103.7078     -9185.7995      82.091721      8169.9544      330.94799      14235.924      1.3448916      0.75735418   
     10900  -9103.7098     -9185.9554      82.245637      8839.6831      331.56849      14210.639      1.3472845      0.75735418   
     11000  -9102.8648     -9186.1623      83.297508      11616.885      335.80905      14192.588      1.3489981      0.64315215   
     11100  -9100.58       -9183.3757      82.795662      11664.134      333.78589      14192.724      1.3489852      0.64315215   
     11200  -9103.2198     -9185.8884      82.668535      10458.175      333.27338      14209.098      1.3474307      0.64315215   
     11300  -9104.5906     -9186.4695      81.878885      10328.458      330.08995      14233.15       1.3451537      0.64315215   
     11400  -9104.3079     -9184.0813      79.773442      9500.0578      321.60198      14256.853      1.3429173      0.64315215   
     11500  -9104.0477     -9186.4648      82.417033      9072.5823      332.25947      14280.868      1.340659       0.64315215   
     11600  -9102.9922     -9185.2129      82.220726      8836.9688      331.46807      14293.415      1.3394822      0.64315215   
     11700  -9100.8734     -9182.9704      82.096986      10968.451      330.96921      14295.747      1.3392637      0.64315215   
     11800  -9099.1346     -9184.4962      85.361567      10438.996      344.13018      14294.078      1.3394201      0.64315215   
     11900  -9100.9014     -9183.3853      82.483883      5748.0886      332.52897      14288.227      1.3399686      0.64315215   
     12000  -9101.2582     -9184.6366      83.378447      9218.9264      336.13535      14279.883      1.3407515      0.77007041   
     12100  -9101.7154     -9184.3049      82.589447      9905.4102      332.95454      14269.56       1.3417215      0.77007041   
     12200  -9101.3014     -9184.2076      82.906212      10929.355      334.23156      14262.688      1.3423679      0.77007041   
     12300  -9101.0109     -9184.9272      83.916336      11541.145      338.30382      14259.145      1.3427015      0.77007041   
     12400  -9099.3018     -9184.7897      85.487915      9698.104       344.63955      14255.377      1.3430564      0.77007041   
     12500  -9099.4042     -9184.2908      84.886673      9672.1536      342.21567      14255.671      1.3430287      0.77007041   
     12600  -9099.5641     -9183.205       83.640918      11542.7        337.19349      14257.233      1.3428816      0.77007041   
     12700  -9101.1169     -9185.8473      84.730381      9537.303       341.58559      14264.669      1.3421814      0.77007041   
     12800  -9100.9271     -9185.1282      84.201093      10354.6        339.4518       14277.244      1.3409993      0.77007041   
     12900  -9101.3327     -9184.7925      83.459791      9594.2612      336.46328      14286.627      1.3401186      0.77007041   
     13000  -9099.8471     -9182.5617      82.714608      9819.5824      333.45912      14292.524      1.3395657      0.78250182   
     13100  -9100.013      -9183.1193      83.106237      8492.1923      335.03795      14292.78       1.3395417      0.78250182   
     13200  -9102.9682     -9182.9591      79.990888      8619.8359      322.4786       14286.398      1.3401401      0.78250182   
     13300  -9104.1973     -9186.9251      82.727816      7479.8248      333.51237      14273.489      1.3413521      0.78250182   
     13400  -9102.306      -9184.8162      82.510154      10246.944      332.63488      14257.788      1.3428292      0.78250182   
     13500  -9102.0211     -9184.3335      82.312429      13975.987      331.83776      14248.483      1.3437062      0.78250182   
     13600  -9100.5693     -9185.7179      85.148537      11578.592      343.27137      14247.296      1.3438181      0.78250182   
     13700  -9099.6716     -9184.2142      84.542532      11410.789      340.82829      14251.232      1.3434469      0.78250182   
     13800  -9102.403      -9186.0184      83.615362      8213.994       337.09046      14268.484      1.3418226      0.78250182   
     13900  -9101.7723     -9184.6623      82.889993      10034.574      334.16618      14288.191      1.3399719      0.78250182   
     14000  -9102.4597     -9184.0325      81.572822      10072.615      328.85608      14310.914      1.3378443      0.63061238   
     14100  -9100.715      -9185.4371      84.722103      10316.569      341.55222      14327.7        1.3362769      0.63061238   
     14200  -9099.4133     -9182.3363      82.923024      9510.6501      334.29934      14332.716      1.3358093      0.63061238   
     14300  -9099.8798     -9185.0443      85.164537      10941.1        343.33587      14328.701      1.3361836      0.63061238   
     14400  -9098.0936     -9181.0636      82.970008      10675.571      334.48875      14316.617      1.3373114      0.63061238   
     14500  -9101.1216     -9186.3258      85.204197      9946.7         343.49575      14299.667      1.3388965      0.63061238   
     14600  -9102.5154     -9183.8567      81.341302      10682.715      327.92272      14271.37       1.3415513      0.63061238   
     14700  -9102.7925     -9185.1654      82.372954      8115.9326      332.08176      14235.152      1.3449645      0.63061238   
     14800  -9102.9604     -9188.4345      85.474108      10775.027      344.58389      14201.813      1.3481219      0.63061238   
     14900  -9103.8264     -9186.8897      83.063329      9586.937       334.86497      14176.546      1.3505247      0.63061238   
     15000  -9103.3534     -9184.7413      81.387909      10744.026      328.11061      14168.852      1.351258       0.67808637   
     15100  -9105.3919     -9185.6631      80.271183      10906.715      323.6086       14182.263      1.3499802      0.67808637   
     15200  -9103.4135     -9186.1398      82.726361      8531.1542      333.5065       14211.163      1.3472349      0.67808637   
     15300  -9103.4066     -9186.0596      82.652973      8874.9269      333.21065      14243.057      1.3442181      0.67808637   
     15400  -9103.3444     -9186.1858      82.84139       10397.976      333.97024      14271.859      1.3415053      0.67808637   
     15500  -9103.5383     -9183.2848      79.746525      9609.0836      321.49347      14295.046      1.3393294      0.67808637   
     15600  -9102.8081     -9184.3545      81.546392      8138.9717      328.74953      14307.429      1.3381702      0.67808637   
     15700  -9102.0916     -9186.2671      84.175522      6666.3661      339.34871      14300.2        1.3388466      0.67808637   
     15800  -9099.6734     -9180.478       80.804621      9659.1857      325.75912      14279.659      1.3407726      0.67808637   
     15900  -9101.539      -9186.4473      84.90835       9265.2027      342.30306      14254.854      1.3431056      0.67808637   
     16000  -9099.8473     -9183.1952      83.347896      7732.3203      336.01219      14228.058      1.3456351      0.65115974   
     16100  -9099.3055     -9184.651       85.345474      11114.196      344.0653       14207.196      1.3476111      0.65115974   
     16200  -9100.229      -9184.8359      84.606841      11982.579      341.08755      14194.675      1.3487998      0.65115974   
     16300  -9100.7074     -9183.1671      82.45964       11882.438      332.43123      14191.921      1.3490615      0.65115974   
     16400  -9102.0666     -9187.109       85.042392      7813.9427      342.84345      14200.424      1.3482537      0.65115974   
     16500  -9102.2235     -9182.893       80.669427      8824.4282      325.21409      14217.163      1.3466663      0.65115974   
     16600  -9103.2472     -9184.9145      81.667364      9130.5064      329.23722      14237.253      1.344766       0.65115974   
     16700  -9102.5943     -9185.5208      82.926512      12336.02       334.3134       14253.921      1.3431935      0.65115974   
     16800  -9103.7403     -9187.2332      83.492876      10276.789      336.59666      14263.631      1.3422791      0.65115974   
     16900  -9104.0621     -9185.956       81.893868      7659.3827      330.15036      14263.025      1.3423362      0.65115974   
     17000  -9101.4363     -9184.05        82.613643      9198.5982      333.05209      14257.631      1.342844       0.78484441   
     17100  -9099.8577     -9185.2406      85.382914      11976.616      344.21624      14253.267      1.3432552      0.78484441   
     17200  -9099.698      -9183.4573      83.759328      12891.643      337.67085      14246.716      1.3438729      0.78484441   
     17300  -9101.0161     -9184.3533      83.337201      10426.074      335.96907      14245.273      1.344009       0.78484441   
     17400  -9101.544      -9185.5741      84.030072      9784.29        338.76234      14248.272      1.3437261      0.78484441   
     17500  -9100.7316     -9182.3616      81.629914      9963.269       329.08624      14255.825      1.3430141      0.78484441   
     17600  -9102.8792     -9186.8794      84.000259      9810.2886      338.64215      14263.649      1.3422774      0.78484441   
     17700  -9104.4022     -9188.58        84.177799      12105.892      339.35789      14266.858      1.3419755      0.78484441   
     17800  -9102.6935     -9183.3429      80.649422      13122.267      325.13344      14260.177      1.3426042      0.78484441   
     17900  -9104.2319     -9183.7629      79.531005      9995.9827      320.62461      14255.587      1.3430366      0.78484441   
     18000  -9104.1473     -9184.4475      80.300242      7093.9826      323.72575      14256.793      1.342923       0.66713765   
     18100  -9102.1494     -9186.3816      84.232208      11653.938      339.57724      14259.882      1.342632       0.66713765   
     18200  -9103.1634     -9185.3654      82.201927      11474.176      331.39228      14260.98       1.3425287      0.66713765   
     18300  -9102.6885     -9185.5694      82.880963      8554.1078      334.12977      14259.935      1.342627       0.66713765   
     18400  -9103.417      -9185.3228      81.905769      9686.9664      330.19834      14257.478      1.3428584      0.66713765   
     18500  -9103.378      -9186.4666      83.088586      9843.3004      334.96679      14256.131      1.3429854      0.66713765   
     18600  -9105.4637     -9188.1819      82.718173      11513.632      333.47349      14251.686      1.3434042      0.66713765   
     18700  -9102.4388     -9186.2846      83.8458        13568.199      338.01946      14242.88       1.3442348      0.66713765   
     18800  -9102.6189     -9183.6045      80.985598      8772.2139      326.48872      14235.664      1.3449161      0.66713765   
     18900  -9103.3292     -9185.6381      82.30894       9793.4436      331.82369      14230.669      1.3453882      0.66713765   
     19000  -9101.6967     -9185.9736      84.276953      9858.1481      339.75762      14232.791      1.3451877      0.61183816   
     19100  -9101.5815     -9187.6485      86.066976      11400.358      346.974        14244.769      1.3440566      0.61183816   
     19200  -9103.6884     -9185.3363      81.647853      10349.725      329.15856      14261.594      1.3424709      0.61183816   
     19300  -9103.8776     -9187.4272      83.549533      10551.293      336.82507      14277.207      1.3410028      0.61183816   
     19400  -9101.5318     -9184.7856      83.253773      10742.639      335.63273      14282.25       1.3405293      0.61183816   
     19500  -9100.8112     -9183.2023      82.391125      13463.052      332.15502      14282.7        1.340487       0.61183816   
     19600  -9100.9649     -9184.2566      83.29167       10540.453      335.78551      14284.542      1.3403142      0.61183816   
     19700  -9098.8588     -9182.5022      83.643377      11228.806      337.2034       14286.787      1.3401036      0.61183816   
     19800  -9098.6445     -9184.2918      85.647233      8418.7723      345.28183      14287.387      1.3400473      0.61183816   
     19900  -9099.6455     -9182.0935      82.447977      8938.7288      332.38422      14287.247      1.3400605      0.61183816   
     20000  -9101.5979     -9182.2564      80.658502      8475.3191      325.17005      14283.568      1.3404056      0.70904917   
     20100  -9100.2673     -9184.6843      84.416969      9418.3025      340.32209      14275.938      1.341122       0.70904917   
     20200  -9100.1294     -9184.0805      83.951047      9436.2863      338.44375      14263.101      1.342329       0.70904917   
     20300  -9102.6039     -9185.0521      82.448207      9844.4398      332.38514      14247.682      1.3437817      0.70904917   
     20400  -9101.0627     -9184.5653      83.5026        11641.46       336.63586      14233.75       1.345097       0.70904917   
     20500  -9101.8415     -9185.4839      83.642419      6857.4558      337.19954      14227.993      1.3456413      0.70904917   
     20600  -9102.7488     -9185.4325      82.683788      10325.098      333.33487      14231.527      1.3453071      0.70904917   
     20700  -9102.7102     -9185.7589      83.048684      12498.873      334.80593      14237.699      1.3447239      0.70904917   
     20800  -9103.16       -9187.2806      84.12063       9800.2848      339.12742      14244.106      1.3441191      0.70904917   
     20900  -9102.5941     -9184.337       81.742882      10869.498      329.54167      14247.151      1.3438318      0.70904917   
     21000  -9102.745      -9185.2108      82.465747      7550.3313      332.45585      14252.758      1.3433032      0.66455791   
     21100  -9102.5657     -9183.7332      81.167505      11124.811      327.22207      14255.579      1.3430373      0.66455791   
     21200  -9100.3465     -9184.2073      83.860757      9294.3081      338.07975      14255          1.3430919      0.66455791   
     21300  -9097.8336     -9182.1262      84.292607      11431.901      339.82073      14256.918      1.3429112      0.66455791   
     21400  -9098.0138     -9183.0857      85.071862      9888.7324      342.96225      14269.54       1.3417234      0.66455791   
     21500  -9098.8965     -9185.9306      87.034142      9496.6997      350.87307      14289.827      1.3398185      0.66455791   
     21600  -9097.9065     -9183.1018      85.195268      8657.093       343.45976      14308.422      1.3380773      0.66455791   
     21700  -9099.0017     -9183.2275      84.225824      9176.6552      339.5515       14324.05       1.3366174      0.66455791   
     21800  -9101.4675     -9184.5433      83.075804      8330.1714      334.91526      14335.918      1.3355109      0.66455791   
     21900  -9100.8769     -9184.6755      83.798613      8117.3207      337.82923      14338.728      1.3352491      0.66455791   
     22000  -9102.0283     -9183.7487      81.7204        9155.9949      329.45103      14328.284      1.3362224      0.65629576   
     22100  -9099.0667     -9180.7827      81.716019      8344.7998      329.43337      14309.561      1.3379708      0.65629576   
     22200  -9098.6437     -9182.1578      83.514022      9110.8844      336.68191      14291.356      1.3396752      0.65629576   
     22300  -9102.7829     -9184.5047      81.721819      9143.329       329.45675      14278.468      1.3408844      0.65629576   
     22400  -9102.9024     -9187.2625      84.360179      9951.056       340.09315      14269.165      1.3417586      0.65629576   
     22500  -9102.4847     -9186.1446      83.659934      9978.7622      337.27015      14262.99       1.3423395      0.65629576   
     22600  -9102.4736     -9184.8197      82.346078      9563.9907      331.97342      14265.099      1.342141       0.65629576   
     22700  -9104.5695     -9187.5866      83.017095      8112.391       334.67858      14274.717      1.3412367      0.65629576   
     22800  -9103.6229     -9185.3674      81.744528      10154.151      329.5483       14281.89       1.3405631      0.65629576   
     22900  -9104.4287     -9187.08        82.651347      8021.6282      333.20409      14283.263      1.3404342      0.65629576   
     23000  -9104.6198     -9185.2305      80.610721      9976.7016      324.97742      14275.566      1.341157       0.66409576   
     23100  -9104.1268     -9183.233       79.106265      7092.8322      318.9123       14261.736      1.3424575      0.66409576   
     23200  -9104.2442     -9185.803       81.558787      11322.826      328.7995       14247.027      1.3438435      0.66409576   
     23300  -9104.2782     -9186.0543      81.776047      12525.85       329.67537      14236.219      1.3448637      0.66409576   
     23400  -9105.6266     -9188.2606      82.634013      11568.901      333.13421      14233.166      1.3451522      0.66409576   
     23500  -9104.7364     -9187.6879      82.951429      9550.9715      334.41385      14232.311      1.345233       0.66409576   
     23600  -9103.4725     -9185.2408      81.768381      10228.786      329.64446      14232.293      1.3452347      0.66409576   
     23700  -9105.4857     -9187.2701      81.784411      10636.527      329.70909      14238.387      1.344659       0.66409576   
     23800  -9105.2159     -9187.1728      81.95689       10869.431      330.40443      14245.869      1.3439527      0.66409576   
     23900  -9102.6632     -9183.4889      80.825728      9041.6192      325.84421      14249.831      1.3435791      0.66409576   
     24000  -9102.7204     -9183.6957      80.975291      10574.203      326.44717      14255.282      1.3430653      0.71659337   
     24100  -9105.7827     -9188.6752      82.892512      6440.2521      334.17633      14261.762      1.342455       0.71659337   
     24200  -9106.6522     -9188.4771      81.824936      10952.395      329.87246      14261.275      1.342501       0.71659337   
     24300  -9106.1558     -9187.0125      80.856751      11699.677      325.96928      14252.461      1.3433311      0.71659337   
     24400  -9104.4294     -9186.3019      81.872487      11133.214      330.06416      14243.724      1.3441551      0.71659337   
     24500  -9104.1356     -9185.6682      81.53258       9359.4351      328.69384      14239.976      1.3445089      0.71659337   
     24600  -9103.8765     -9186.0879      82.211464      9950.376       331.43073      14244.866      1.3440474      0.71659337   
     24700  -9103.5215     -9185.2119      81.69047       10175.843      329.33037      14258.31       1.3427801      0.71659337   
     24800  -9104.4902     -9188.0708      83.58064       7691.078       336.95048      14269.119      1.3417629      0.71659337   
     24900  -9106.2192     -9188.604       82.384758      12719.731      332.12935      14272.279      1.3414658      0.71659337   
     25000  -9104.7575     -9187.7956      83.038133      13540.204      334.76339      14267.477      1.3419173      0.62524139   
     25100  -9103.9531     -9186.9094      82.956297      12356.823      334.43348      14251.116      1.3434579      0.62524139   
     25200  -9102.1387     -9185.1014      82.96271       10982.871      334.45933      14226.655      1.3457678      0.62524139   
     25300  -9102.9214     -9184.5162      81.594831      9524.7036      328.94481      14202.073      1.3480972      0.62524139   
     25400  -9102.2022     -9186.3266      84.124434      11817.596      339.14275      14181.476      1.3500552      0.62524139   
     25500  -9102.569      -9187.5955      85.026542      11998.935      342.77955      14170.293      1.3511206      0.62524139   
     25600  -9104.6609     -9186.7906      82.129748      11651.133      331.10129      14166.783      1.3514553      0.62524139   
     25700  -9103.9841     -9184.2396      80.25555       10309.209      323.54557      14172.816      1.35088        0.62524139   
     25800  -9103.7572     -9185.7714      82.014218      9683.4446      330.63554      14187.355      1.3494957      0.62524139   
     25900  -9103.2921     -9186.3646      83.072528      11093.427      334.90206      14207.252      1.3476057      0.62524139   
     26000  -9103.751      -9187.2428      83.491784      10346.312      336.59226      14223.057      1.3461083      0.61190614   
     26100  -9103.5737     -9187.751       84.177291      10512.106      339.35584      14234.816      1.3449962      0.61190614   
     26200  -9101.9974     -9186.0399      84.042526      12545.573      338.81255      14239.548      1.3445493      0.61190614   
     26300  -9103.0494     -9184.964       81.914572      9899.5057      330.23383      14236.984      1.3447915      0.61190614   
     26400  -9101.3188     -9184.813       83.494209      9843.9875      336.60204      14233.983      1.345075       0.61190614   
     26500  -9102.55       -9185.1011      82.551085      9679.4131      332.79989      14224.814      1.345942       0.61190614   
     26600  -9103.4968     -9187.2448      83.748067      7376.6284      337.62545      14216.509      1.3467283      0.61190614   
     26700  -9104.0017     -9184.6317      80.629984      10029.162      325.05508      14211.53       1.3472001      0.61190614   
     26800  -9103.7974     -9187.2997      83.502296      11403.823      336.63464      14213.702      1.3469942      0.61190614   
     26900  -9101.9753     -9186.3108      84.335504      12122.798      339.99367      14218.103      1.3465773      0.61190614   
     27000  -9101.0946     -9184.8929      83.798228      11067.981      337.82767      14224.119      1.3460078      0.65036501   
     27100  -9102.5919     -9184.9925      82.400555      10450.83       332.19303      14237.027      1.3447874      0.65036501   
     27200  -9101.205      -9185.3418      84.136803      11015.577      339.19262      14256.381      1.3429618      0.65036501   
     27300  -9103.4568     -9188.1517      84.694848      8526.3668      341.44234      14271.916      1.3415         0.65036501   
     27400  -9102.7926     -9184.642       81.849464      9403.3179      329.97134      14275.853      1.34113        0.65036501   
     27500  -9102.1819     -9185.4449      83.263018      8315.2651      335.67001      14271.759      1.3415147      0.65036501   
     27600  -9103.8019     -9185.6759      81.873989      9660.7654      330.07022      14262.262      1.342408       0.65036501   
     27700  -9103.2354     -9184.1175      80.882188      11890.578      326.07183      14251.526      1.3434193      0.65036501   
     27800  -9103.1567     -9185.9596      82.802864      11115.309      333.81492      14241.508      1.3443643      0.65036501   
     27900  -9100.5948     -9184.4992      83.90437       12872.601      338.25558      14232.745      1.345192       0.65036501   
     28000  -9100.5571     -9184.0606      83.503529      8422.6554      336.63961      14231.679      1.3452928      0.64179402   
     28100  -9101.5852     -9186.0797      84.494481      10444.708      340.63458      14237.644      1.3447292      0.64179402   
     28200  -9100.4733     -9184.6197      84.146402      13336.288      339.23132      14248.186      1.3437342      0.64179402   
     28300  -9101.6405     -9186.1169      84.476384      12852.393      340.56162      14260.115      1.3426101      0.64179402   
     28400  -9102.3227     -9184.1504      81.827678      10862.64       329.88352      14272.126      1.3414802      0.64179402   
     28500  -9101.4821     -9183.254       81.771845      9351.0164      329.65843      14281.246      1.3406236      0.64179402   
     28600  -9100.1434     -9182.9914      82.84798       8710.3858      333.9968       14285.042      1.3402673      0.64179402   
     28700  -9101.4319     -9184.583       83.151039      9157.1456      335.21857      14279.035      1.3408312      0.64179402   
     28800  -9101.4929     -9184.3949      82.901954      11938.645      334.2144       14264.16       1.3422294      0.64179402   
     28900  -9101.3327     -9184.9401      83.60744       9921.4152      337.05852      14240.431      1.3444659      0.64179402   
     29000  -9099.9163     -9183.5064      83.590037      9780.3158      336.98836      14214.465      1.3469219      0.71824567   
     29100  -9099.9295     -9183.6086      83.679142      10461.851      337.34758      14195.584      1.3487134      0.71824567   
     29200  -9097.9741     -9183.5968      85.622686      8679.3427      345.18287      14192.015      1.3490526      0.71824567   
     29300  -9101.6415     -9184.2458      82.604292      11550.587      333.01439      14206.02       1.3477226      0.71824567   
     29400  -9102.0387     -9184.8831      82.844432      9076.6783      333.9825       14235.892      1.3448946      0.71824567   
     29500  -9103.0674     -9184.1769      81.109493      9039.5144      326.98819      14272.867      1.3414106      0.71824567   
     29600  -9103.3311     -9185.6382      82.307167      10573.727      331.81655      14308.378      1.3380814      0.71824567   
     29700  -9102.0609     -9184.7339      82.67298       9916.0254      333.2913       14333.957      1.3356936      0.71824567   
     29800  -9099.3915     -9184.996       85.604485      10074.794      345.10949      14340.803      1.335056       0.71824567   
     29900  -9099.549      -9182.9139      83.364894      11302.69       336.08071      14330.397      1.3360254      0.71824567   
     30000  -9101.3403     -9184.7926      83.452307      9360.5627      336.43311      14312.537      1.3376926      0.76312322   
     30100  -9100.0835     -9185.0251      84.941655      9668.4451      342.43733      14284.933      1.3402775      0.76312322   
     30200  -9101.1542     -9184.3678      83.21358       7804.7328      335.4707       14252.744      1.3433044      0.76312322   
     30300  -9100.5932     -9183.2514      82.658172      9000.4577      333.2316       14227.154      1.3457207      0.76312322   
     30400  -9102.4718     -9184.4071      81.93524       10679.895      330.31714      14213.871      1.3469782      0.76312322   
     30500  -9101.261      -9182.8855      81.624507      12123.808      329.06445      14211.457      1.347207       0.76312322   
     30600  -9101.7594     -9183.4982      81.738805      11388.044      329.52523      14221.557      1.3462503      0.76312322   
     30700  -9101.3283     -9185.6058      84.277487      10711.016      339.75978      14242.021      1.3443159      0.76312322   
     30800  -9103.6153     -9185.6396      82.024333      11186.707      330.67632      14265.449      1.3421081      0.76312322   
     30900  -9103.7628     -9185.297       81.534223      10395.475      328.70047      14285.59       1.3402159      0.76312322   
     31000  -9103.021      -9186.1085      83.087509      9317.5444      334.96245      14300.981      1.3387736      0.67967911   
     31100  -9102.7372     -9186.6924      83.955221      10951.639      338.46058      14305.449      1.3383554      0.67967911   
     31200  -9102.8223     -9183.8033      80.980977      7484.2506      326.47009      14297.004      1.3391459      0.67967911   
     31300  -9102.973      -9184.27        81.297073      8011.612       327.74441      14279.162      1.3408192      0.67967911   
     31400  -9102.7957     -9184.2567      81.461071      11342.064      328.40556      14255.988      1.3429988      0.67967911   
     31500  -9103.5563     -9186.0087      82.45241       13200.131      332.40209      14236.011      1.3448834      0.67967911   
     31600  -9102.4423     -9186.8853      84.443032      10875.853      340.42716      14226.194      1.3458115      0.67967911   
     31700  -9100.7653     -9186.2064      85.44111       11044.119      344.45086      14223.707      1.3460468      0.67967911   
     31800  -9100.3747     -9184.7438      84.369079      10166.086      340.12902      14229.843      1.3454663      0.67967911   
     31900  -9102.7842     -9184.1135      81.329359      8783.9684      327.87457      14246.101      1.3439308      0.67967911   
     32000  -9102.7402     -9187.3027      84.562469      6624.4261      340.90867      14268.258      1.3418439      0.67694725   
     32100  -9102.8781     -9185.4838      82.605729      11018.555      333.02018      14290.078      1.3397949      0.67694725   
     32200  -9102.1395     -9186.9969      84.857384      9045.2901      342.0976       14309.813      1.3379472      0.67694725   
     32300  -9101.0554     -9183.0374      81.982062      10050.826      330.50591      14323.748      1.3366455      0.67694725   
     32400  -9100.2474     -9185.2403      84.992945      8198.8837      342.64411      14332.994      1.3357833      0.67694725   
     32500  -9100.2188     -9184.1452      83.926367      7419.9011      338.34426      14332.789      1.3358024      0.67694725   
     32600  -9099.7247     -9183.8635      84.138819      7863.0412      339.20075      14320.249      1.3369722      0.67694725   
     32700  -9098.6529     -9183.1966      84.543689      6719.4029      340.83295      14297.909      1.3390612      0.67694725   
     32800  -9097.2854     -9181.0142      83.728784      8345.7331      337.54771      14273.978      1.3413062      0.67694725   
     32900  -9097.3051     -9181.3143      84.00921       10676.194      338.67823      14257.224      1.3428823      0.67694725   
     33000  -9098.3925     -9182.5398      84.147243      10308.418      339.23471      14252.36       1.3433406      0.68782707   
     33100  -9099.1142     -9183.5239      84.409673      8686.9522      340.29268      14257.693      1.3428382      0.68782707   
     33200  -9100.1012     -9184.0232      83.92201       9651.3287      338.32669      14268.699      1.3418024      0.68782707   
     33300  -9102.0935     -9184.2543      82.160864      9589.5788      331.22674      14280.91       1.3406551      0.68782707   
     33400  -9102.4641     -9184.3841      81.920013      6451.9511      330.25576      14290.446      1.3397605      0.68782707   
     33500  -9102.1994     -9183.9962      81.796726      12039.836      329.75874      14292.711      1.3395482      0.68782707   
     33600  -9101.5236     -9187.0493      85.525669      9602.4505      344.79175      14292.123      1.3396033      0.68782707   
     33700  -9101.0862     -9183.7601      82.673872      7663.8243      333.2949       14288.973      1.3398986      0.68782707   
     33800  -9099.6501     -9182.6261      82.976054      7155.7416      334.51313      14281.101      1.3406372      0.68782707   
     33900  -9098.4798     -9184.5282      86.048343      8543.2504      346.89888      14270.191      1.3416621      0.68782707   
     34000  -9100.9228     -9183.5401      82.6173        10414.356      333.06683      14258.975      1.3427174      0.64860566   
     34100  -9099.3251     -9185.4395      86.114409      12771.326      347.16522      14246.777      1.3438671      0.64860566   
     34200  -9098.5923     -9184.5025      85.910187      10213.006      346.34191      14237.46       1.3447465      0.64860566   
     34300  -9098.2307     -9182.889       84.658381      9316.7615      341.29533      14235.163      1.3449635      0.64860566   
     34400  -9098.7908     -9184.3172      85.526442      11823.63       344.79487      14241.358      1.3443784      0.64860566   
     34500  -9099.8674     -9183.7453      83.877869      10701.038      338.14874      14255.169      1.3430759      0.64860566   
     34600  -9098.5874     -9184.1691      85.581626      12298.702      345.01734      14280.297      1.3407126      0.64860566   
     34700  -9099.6321     -9185.2112      85.579108      9272.6518      345.00719      14308.732      1.3380483      0.64860566   
     34800  -9101.6061     -9185.0077      83.40155       9185.7626      336.22849      14331.214      1.3359492      0.64860566   
     34900  -9101.473      -9184.8606      83.387571      10374.991      336.17213      14340.906      1.3350464      0.64860566   
     35000  -9100.8756     -9181.8842      81.008564      10594.356      326.5813       14341.541      1.3349873      0.69660752   
     35100  -9098.4397     -9182.6186      84.178876      10469.317      339.36223      14333.143      1.3357695      0.69660752   
     35200  -9097.5177     -9183.2711      85.753461      12274.554      345.71008      14317.994      1.3371828      0.69660752   
     35300  -9099.7135     -9184.2377      84.524253      9514.7818      340.7546       14299.86       1.3388785      0.69660752   
     35400  -9100.0218     -9184.9519      84.930097      10066.505      342.39074      14277.74       1.3409528      0.69660752   
     35500  -9099.2361     -9182.9653      83.729214      7990.6625      337.54945      14257.541      1.3428525      0.69660752   
     35600  -9098.5647     -9182.5879      84.023241      8742.2164      338.7348       14238.519      1.3446464      0.69660752   
     35700  -9099.9373     -9184.051       84.113692      10018.279      339.09945      14224.808      1.3459425      0.69660752   
     35800  -9100.5357     -9182.8313      82.295637      10260.353      331.77006      14221.896      1.3462181      0.69660752   
     35900  -9103.3192     -9186.2403      82.921098      10124.591      334.29158      14229.902      1.3454608      0.69660752   
     36000  -9102.4595     -9187.6629      85.203416      10381.175      343.49261      14245.241      1.344012       0.65117266   
     36100  -9100.315      -9184.9899      84.674915      11390.291      341.36199      14260.355      1.3425876      0.65117266   
     36200  -9099.7262     -9184.7465      85.020274      7636.7138      342.75428      14276.161      1.3411011      0.65117266   
     36300  -9100.4388     -9184.1178      83.679065      7008.5986      337.34727      14286.804      1.340102       0.65117266   
     36400  -9100.9308     -9183.9147      82.983939      7566.9075      334.54492      14289.993      1.3398029      0.65117266   
     36500  -9102.5848     -9183.8358      81.251004      10704.884      327.55869      14280.928      1.3406534      0.65117266   
     36600  -9103.1638     -9186.114       82.950163      12026.935      334.40875      14260.799      1.3425457      0.65117266   
     36700  -9101.2249     -9184.3499      83.125008      10800.165      335.11362      14234.236      1.3450511      0.65117266   
     36800  -9102.8977     -9184.5774      81.679731      8461.3793      329.28707      14208.915      1.347448       0.65117266   
     36900  -9101.7931     -9185.7171      83.923988      12760.293      338.33467      14188.992      1.34934        0.65117266   
     37000  -9101.7431     -9184.7982      83.055048      10876.042      334.83159      14183.811      1.3498329      0.74193119   
     37100  -9101.4327     -9184.8511      83.418343      9252.0837      336.29619      14191.085      1.349141       0.74193119   
     37200  -9101.7491     -9182.9547      81.205629      8171.6117      327.37576      14205.631      1.3477595      0.74193119   
     37300  -9102.0495     -9185.8173      83.767841      10026.369      337.70517      14227.381      1.3456991      0.74193119   
     37400  -9099.1759     -9183.6498      84.473862      11298.991      340.55145      14250.849      1.3434831      0.74193119   
     37500  -9102.172      -9185.3205      83.148459      7814.6638      335.20817      14274.923      1.3412174      0.74193119   
     37600  -9099.8014     -9182.9125      83.111082      6930.724       335.05748      14293.838      1.3394425      0.74193119   
     37700  -9100.8052     -9185.5673      84.762093      7290.0173      341.71344      14305.323      1.3383672      0.74193119   
     37800  -9100.9309     -9184.3959      83.464978      9774.2345      336.4842       14308.78       1.3380438      0.74193119   
     37900  -9100.9144     -9183.5984      82.683986      10072.508      333.33567      14308.635      1.3380574      0.74193119   
     38000  -9101.0406     -9184.3171      83.276525      10780.368      335.72446      14304.915      1.3384053      0.62269479   
     38100  -9099.3221     -9185.69        86.367889      11164.575      348.18711      14295.488      1.3392879      0.62269479   
     38200  -9099.2561     -9184.3608      85.104751      10096.323      343.09485      14282.047      1.3405484      0.62269479   
     38300  -9098.3981     -9182.4563      84.05824       9172.5814      338.8759       14268.154      1.3418537      0.62269479   
     38400  -9099.6144     -9183.1369      83.522459      10665.28       336.71593      14261.773      1.3424541      0.62269479   
     38500  -9100.4844     -9185.5673      85.082929      10217.446      343.00687      14259.754      1.3426441      0.62269479   
     38600  -9101.459      -9184.7021      83.243059      8810.306       335.58954      14258.219      1.3427886      0.62269479   
     38700  -9101.9889     -9183.8389      81.84998       9674.3492      329.97343      14258.455      1.3427664      0.62269479   
     38800  -9102.8166     -9185.416       82.599367      10390.738      332.99453      14261.028      1.3425241      0.62269479   
     38900  -9101.6881     -9185.4236      83.735534      10914.394      337.57493      14262.393      1.3423957      0.62269479   
     39000  -9104.1335     -9184.495       80.361562      9632.6268      323.97295      14264.704      1.3421782      0.70857156   
     39100  -9104.0817     -9187.7058      83.624072      10748.31       337.12557      14261.21       1.3425071      0.70857156   
     39200  -9104.7171     -9184.2556      79.538495      8445.4373      320.65481      14251.965      1.3433779      0.70857156   
     39300  -9105.3877     -9185.1479      79.760236      10234.069      321.54874      14237.398      1.3447524      0.70857156   
     39400  -9103.6251     -9185.0326      81.407471      11471.712      328.18948      14222.711      1.346141       0.70857156   
     39500  -9103.7431     -9187.1617      83.418591      7439.162       336.29719      14216.847      1.3466963      0.70857156   
     39600  -9104.7628     -9187.3031      82.540289      9309.0736      332.75636      14216.475      1.3467315      0.70857156   
     39700  -9099.9779     -9182.3225      82.344558      9501.4413      331.96729      14225.44       1.3458828      0.70857156   
     39800  -9100.1005     -9184.346       84.245509      9468.5346      339.63086      14247.913      1.3437599      0.70857156   
     39900  -9099.9403     -9183.9796      84.039222      9246.6541      338.79922      14275.874      1.341128       0.70857156   
     40000  -9100.0605     -9183.9448      83.884282      8431.1223      338.17459      14303.998      1.3384912      0.70049977   
     40100  -9099.719      -9184.0747      84.355765      10925.432      340.07535      14326.89       1.3363525      0.70049977   
     40200  -9100.514      -9185.4178      84.903781      10713.574      342.28465      14340.585      1.3350763      0.70049977   
     40300  -9101.5266     -9183.5399      82.013369      10121.598      330.63212      14343.142      1.3348383      0.70049977   
     40400  -9101.5114     -9185.4449      83.933508      8155.2946      338.37305      14332.482      1.3358311      0.70049977   
     40500  -9101.1639     -9182.085       80.921088      9864.778       326.22865      14306.046      1.3382995      0.70049977   
     40600  -9100.4147     -9185.4162      85.001444      10602.832      342.67837      14276.604      1.3410595      0.70049977   
     40700  -9100.3959     -9184.2356      83.83973       8567.9306      337.99499      14248.916      1.3436654      0.70049977   
     40800  -9100.7248     -9184.6402      83.915357      11457.839      338.29987      14226.935      1.3457413      0.70049977   
     40900  -9098.6856     -9184.2976      85.611994      8732.9208      345.13977      14216.181      1.3467593      0.70049977   
     41000  -9100.6935     -9185.2444      84.550847      10987.628      340.86181      14213.875      1.3469778      0.64277391   
     41100  -9101.4561     -9183.9448      82.48873       9292.998       332.54851      14218.35       1.3465539      0.64277391   
     41200  -9100.8687     -9185.1816      84.312903      12463.145      339.90255      14230.342      1.3454191      0.64277391   
     41300  -9101.8194     -9186.0062      84.186793      10934.241      339.39415      14248.316      1.3437219      0.64277391   
     41400  -9100.8364     -9183.4623      82.625876      7955.2723      333.1014       14261.446      1.3424848      0.64277391   
     41500  -9101.3826     -9185.2648      83.882215      9550.5633      338.16626      14272.576      1.3414379      0.64277391   
     41600  -9100.6224     -9184.5114      83.888982      8891.7659      338.19354      14276.744      1.3410463      0.64277391   
     41700  -9099.6398     -9183.0667      83.426907      9073.4744      336.33071      14274.056      1.3412989      0.64277391   
     41800  -9101.0498     -9184.3761      83.326298      11520.137      335.92511      14269.626      1.3417153      0.64277391   
     41900  -9101.1146     -9185.0316      83.916965      9341.4906      338.30635      14263.257      1.3423143      0.64277391   
     42000  -9098.5898     -9182.5958      84.006031      11527.097      338.66542      14252.15       1.3433605      0.79661743   
     42100  -9097.5934     -9184.3921      86.798648      8429.1972      349.92369      14247.878      1.3437632      0.79661743   
     42200  -9095.5286     -9181.5927      86.064106      11880.007      346.96243      14250.322      1.3435328      0.79661743   
     42300  -9093.6511     -9180.7818      87.13074       10271.332      351.2625       14266.955      1.3419664      0.79661743   
     42400  -9096.3768     -9182.6686      86.291813      10326.383      347.88041      14296.563      1.3391872      0.79661743   
     42500  -9098.1131     -9182.9032      84.79012       8848.2593      341.82643      14324.628      1.3365634      0.79661743   
     42600  -9101.4214     -9185.3134      83.891948      11011.715      338.2055       14344.353      1.3347256      0.79661743   
     42700  -9100.6107     -9183.5398      82.929075      11996.935      334.32373      14354.147      1.3338149      0.79661743   
     42800  -9102.0187     -9183.6283      81.609562      10889.31       329.00419      14348.431      1.3343462      0.79661743   
     42900  -9101.8081     -9184.3345      82.526427      9690.6967      332.70048      14326.444      1.3363941      0.79661743   
     43000  -9101.4182     -9183.7371      82.318929      9780.4592      331.86396      14292.54       1.3395642      0.65061935   
     43100  -9100.0155     -9184.0626      84.047148      8798.1785      338.83118      14259.215      1.3426948      0.65061935   
     43200  -9099.3208     -9183.282       83.961184      7960.0269      338.48462      14233.788      1.3450935      0.65061935   
     43300  -9098.9305     -9183.1246      84.194166      12919.031      339.42387      14223.887      1.3460297      0.65061935   
     43400  -9097.604      -9182.9277      85.323689      8344.6334      343.97748      14226.404      1.3457916      0.65061935   
     43500  -9100.233      -9183.2697      83.036701      10028.195      334.75762      14239.985      1.3445081      0.65061935   
     43600  -9098.6962     -9182.8046      84.108405      11335.462      339.07813      14264.856      1.3421639      0.65061935   
     43700  -9100.5835     -9184.7061      84.122574      10357.618      339.13525      14289.934      1.3398085      0.65061935   
     43800  -9098.274      -9180.616       82.341975      10358.17       331.95687      14310.982      1.337838       0.65061935   
     43900  -9099.6529     -9183.8542      84.201237      6754.1263      339.45238      14328.889      1.336166       0.65061935   
     44000  -9097.4658     -9185.8861      88.420287      8691.4677      356.46124      14336.716      1.3354366      0.71012258   
     44100  -9098.8964     -9183.5118      84.61541       11156.639      341.12209      14331.486      1.3359239      0.71012258   
     44200  -9099.5745     -9183.8939      84.319411      11119.046      339.92879      14315.451      1.3374203      0.71012258   
     44300  -9099.664      -9182.512       82.847994      11617.757      333.99686      14295.363      1.3392997      0.71012258   
     44400  -9099.3793     -9183.699       84.31963       9866.9615      339.92968      14269.922      1.3416874      0.71012258   
     44500  -9100.7689     -9183.5847      82.815795      9912.3666      333.86705      14242.929      1.3442301      0.71012258   
     44600  -9102.5901     -9183.6549      81.064803      9346.2125      326.80803      14221.118      1.3462918      0.71012258   
     44700  -9101.9954     -9187.4901      85.494707      9913.6374      344.66693      14206.653      1.3476626      0.71012258   
     44800  -9102.1691     -9185.336       83.166976      11634.453      335.28282      14196.777      1.3486001      0.71012258   
     44900  -9100.6906     -9182.9531      82.262493      12635.366      331.63645      14192.293      1.3490261      0.71012258   
     45000  -9101.4313     -9185.1055      83.674209      12382.414      337.3277       14196.954      1.3485832      0.67339439   
     45100  -9101.1287     -9185.6381      84.509359      8696.1952      340.69456      14208.949      1.3474448      0.67339439   
     45200  -9099.0884     -9183.2666      84.178216      10518.1        339.35957      14230.667      1.3453884      0.67339439   
     45300  -9100.3607     -9184.2513      83.890567      9852.1831      338.19993      14259.905      1.3426299      0.67339439   
     45400  -9099.2601     -9183.7795      84.51937       10604.508      340.73492      14288.774      1.3399172      0.67339439   
     45500  -9100.5643     -9184.1991      83.634845      10371.814      337.169        14311.045      1.3378321      0.67339439   
     45600  -9101.8725     -9183.367       81.494578      6208.2913      328.54064      14319.636      1.3370294      0.67339439   
     45700  -9100.0947     -9184.1633      84.068614      7863.1767      338.91772      14309.141      1.3380101      0.67339439   
     45800  -9100.904      -9182.6842      81.780132      11542.724      329.69184      14286.318      1.3401476      0.67339439   
     45900  -9098.6905     -9184.7653      86.074795      11706.331      347.00552      14260.111      1.3426105      0.67339439   
     46000  -9099.2162     -9183.2216      84.005471      9778.6507      338.66316      14234.368      1.3450386      0.70271983   
     46100  -9099.435      -9183.6359      84.200957      9040.9925      339.45125      14215.072      1.3468644      0.70271983   
     46200  -9099.52       -9183.0708      83.550842      11613.608      336.83035      14207.368      1.3475948      0.70271983   
     46300  -9098.1713     -9184.404       86.232707      7502.08        347.64213      14214.888      1.3468818      0.70271983   
     46400  -9097.4649     -9181.3534      83.888581      13389.616      338.19192      14238.177      1.3446788      0.70271983   
     46500  -9099.3624     -9182.8593      83.496915      8169.3114      336.61295      14275.042      1.3412062      0.70271983   
     46600  -9100.957      -9182.3954      81.438376      8733.4421      328.31407      14314.589      1.3375008      0.70271983   
     46700  -9100.0543     -9182.8732      82.818918      10705.291      333.87964      14347.964      1.3343896      0.70271983   
     46800  -9100.0777     -9184.8032      84.72549       7473.0698      341.56588      14362.84       1.3330076      0.70271983   
     46900  -9102.1908     -9184.5479      82.357096      7273.1168      332.01783      14355.604      1.3336795      0.70271983   
     47000  -9099.4545     -9184.2834      84.828866      7533.0636      341.98263      14325.653      1.3364679      0.6599979    
     47100  -9098.7193     -9181.8855      83.166118      12560.862      335.27936      14284.502      1.340318       0.6599979    
     47200  -9100.2618     -9185.885       85.623194      9413.2545      345.18492      14245.546      1.3439832      0.6599979    
     47300  -9099.5973     -9181.2947      81.69742       11404.963      329.35839      14211.047      1.3472458      0.6599979    
     47400  -9097.9408     -9183.9602      86.01945       8563.9262      346.7824       14196.941      1.3485845      0.6599979    
     47500  -9098.4568     -9184.3714      85.914636      9599.6333      346.35985      14203.095      1.3480002      0.6599979    
     47600  -9095.4989     -9181.7571      86.258217      10774.322      347.74497      14223.249      1.3460901      0.6599979    
     47700  -9098.3611     -9184.6237      86.262655      10864.694      347.76287      14254.67       1.3431229      0.6599979    
     47800  -9099.8035     -9183.4369      83.633401      7014.1537      337.16318      14288.691      1.339925       0.6599979    
     47900  -9101.0989     -9184.3523      83.253376      8527.361       335.63113      14318.559      1.33713        0.6599979    
     48000  -9099.6493     -9182.5725      82.923209      9762.4646      334.30009      14337.12       1.335399       0.75886288   
     48100  -9101.203      -9186.2549      85.051892      9566.2777      342.88175      14344.503      1.3347116      0.75886288   
     48200  -9101.7074     -9184.4044      82.69707       11888.735      333.38842      14335.306      1.3355679      0.75886288   
     48300  -9102.4554     -9184.4992      82.04381       8832.5889      330.75484      14313.063      1.3376434      0.75886288   
     48400  -9101.7619     -9185.6878      83.925929      8859.4233      338.34249      14283.154      1.3404444      0.75886288   
     48500  -9102.9581     -9186.0438      83.085665      9081.2035      334.95502      14248.034      1.3437485      0.75886288   
     48600  -9101.7609     -9184.4121      82.651185      9200.8849      333.20344      14213.377      1.347025       0.75886288   
     48700  -9102.224      -9184.0812      81.857185      9320.8167      330.00247      14183.736      1.34984        0.75886288   
     48800  -9102.423      -9185.2499      82.826812      9994.5669      333.91147      14167.911      1.3513477      0.75886288   
     48900  -9103.8173     -9185.459       81.641711      12612.791      329.1338       14169.026      1.3512414      0.75886288   
     49000  -9101.9906     -9184.8571      82.866546      9769.8667      334.07165      14183.812      1.3498328      0.70673687   
     49100  -9099.9374     -9182.8391      82.90175       9687.0399      334.21357      14210.162      1.3473298      0.70673687   
     49200  -9101.7002     -9184.5283      82.828104      9736.1522      333.91667      14244.48       1.3440838      0.70673687   
     49300  -9101.7376     -9184.4198      82.682164      9392.1698      333.32833      14275.797      1.3411352      0.70673687   
     49400  -9102.4795     -9184.0027      81.523126      6040.1767      328.65573      14300.774      1.3387929      0.70673687   
     49500  -9100.2988     -9182.9422      82.643407      8722.0199      333.17208      14311.193      1.3378183      0.70673687   
     49600  -9100.0631     -9183.573       83.509942      9403.8324      336.66547      14308.001      1.3381167      0.70673687   
     49700  -9102.3144     -9186.9171      84.602723      9311.452       341.07095      14293.689      1.3394565      0.70673687   
     49800  -9100.5755     -9185.7         85.124436      11123.721      343.1742       14269.132      1.3417617      0.70673687   
     49900  -9100.5204     -9181.7663      81.245841      6808.5981      327.53788      14239.881      1.3445179      0.70673687   
     50000  -9101.0682     -9184.6282      83.560019      7468.8274      336.86735      14212.175      1.3471389      0.71936883   
     50100  -9099.0247     -9182.3234      83.29866       12495.431      335.81369      14190.75       1.3491728      0.71936883   
     50200  -9100.006      -9183.9355      83.929522      11268.674      338.35698      14186.642      1.3495635      0.71936883   
     50300  -9101.5663     -9185.663       84.096744      9679.569       339.03112      14200.347      1.3482611      0.71936883   
     50400  -9100.634      -9185.0903      84.456302      11152.585      340.48066      14226.687      1.3457648      0.71936883   
     50500  -9102.4092     -9186.4934      84.084191      8684.2409      338.98052      14261.649      1.3424657      0.71936883   
     50600  -9104.0702     -9186.3707      82.300507      9995.557       331.7897       14292.932      1.3395274      0.71936883   
     50700  -9103.6138     -9184.5698      80.956029      11067.814      326.36952      14310.3        1.3379017      0.71936883   
     50800  -9104.4653     -9188.0063      83.541035      8624.7696      336.79081      14314.808      1.3374803      0.71936883   
     50900  -9105.2504     -9186.7672      81.516845      8686.6401      328.63041      14297.659      1.3390846      0.71936883   
     51000  -9105.6086     -9185.8054      80.196706      9080.8392      323.30835      14261.234      1.3425047      0.65511154   
     51100  -9102.2128     -9186.3493      84.13654       11858.905      339.19156      14208.983      1.3474416      0.65511154   
     51200  -9099.1647     -9182.5589      83.394287      15126.807      336.19921      14158.988      1.3521993      0.65511154   
     51300  -9101.0218     -9186.383       85.36118       12287.989      344.12862      14131.016      1.3548761      0.65511154   
     51400  -9103.3928     -9188.4985      85.105769      15369.567      343.09895      14126.865      1.3552742      0.65511154   
     51500  -9101.5006     -9185.6879      84.187342      11518.85       339.39636      14149.803      1.3530771      0.65511154   
     51600  -9101.0101     -9186.5697      85.559552      11848.218      344.92835      14195.029      1.3487661      0.65511154   
     51700  -9102.1353     -9184.6424      82.507108      12408.75       332.6226       14253.226      1.343259       0.65511154   
     51800  -9100.453      -9184.9487      84.495705      9020.9858      340.63951      14313.855      1.3375694      0.65511154   
     51900  -9099.2289     -9183.5591      84.330141      7550.3753      339.97205      14366.499      1.3326681      0.65511154   
     52000  -9096.9029     -9181.9684      85.065499      11825.024      342.9366       14402.874      1.3293024      0.65276488   
     52100  -9098.5222     -9184.8499      86.327694      6752.8732      348.02507      14419.712      1.3277501      0.65276488   
     52200  -9099.2269     -9183.8899      84.663004      6665.5679      341.31397      14405.176      1.3290899      0.65276488   
     52300  -9099.2453     -9185.4758      86.230458      7720.3938      347.63307      14362.175      1.3330693      0.65276488   
     52400  -9099.5941     -9183.0786      83.484523      10900.22       336.56299      14299.925      1.3388724      0.65276488   
     52500  -9099.7024     -9184.459       84.756585      8160.2023      341.69123      14231.598      1.3453004      0.65276488   
     52600  -9102.1733     -9186.9258      84.752444      9352.1912      341.67454      14165.37       1.3515902      0.65276488   
     52700  -9100.7471     -9185.1751      84.427985      12698.136      340.3665       14114.095      1.3565003      0.65276488   
     52800  -9100.3909     -9186.9554      86.5645        10805.158      348.97974      14091.435      1.3586817      0.65276488   
     52900  -9100.6879     -9183.4879      82.800067      11752.276      333.80365      14100.029      1.3578536      0.65276488   
     53000  -9101          -9184.8161      83.81609       12555.65       337.89968      14137.846      1.3542214      0.68916084   
     53100  -9104.3704     -9186.0637      81.693305      11952.715      329.3418       14200.35       1.3482608      0.68916084   
     53200  -9103.4928     -9183.6016      80.108819      9706.1606      322.95404      14263.192      1.3423205      0.68916084   
     53300  -9102.8027     -9184.4582      81.655513      4430.6781      329.18944      14312.912      1.3376576      0.68916084   
     53400  -9103.3434     -9187.2706      83.92714       6386.9458      338.34738      14338.684      1.3352533      0.68916084   
     53500  -9100.6053     -9184.7988      84.193527      11052.979      339.4213       14339.128      1.3352119      0.68916084   
     53600  -9096.9146     -9180.6475      83.732914      9442.3951      337.56436      14320.265      1.3369707      0.68916084   
     53700  -9098.0525     -9184.5078      86.4553        9358.1235      348.5395       14291.682      1.3396446      0.68916084   
     53800  -9099.6287     -9182.8158      83.187127      11856.717      335.36405      14253.467      1.3432364      0.68916084   
     53900  -9099.7216     -9183.7979      84.076299      11822.545      338.9487       14215.012      1.3468701      0.68916084   
     54000  -9100.6989     -9186.5345      85.835621      12276.624      346.0413       14181.776      1.3500266      0.70800259   
     54100  -9100.8622     -9185.3497      84.487467      11138.572      340.6063       14162.937      1.3518224      0.70800259   
     54200  -9100.6284     -9183.6963      83.067942      10880.15       334.88357      14161.6        1.35195        0.70800259   
     54300  -9100.1341     -9185.061       84.926889      10109.394      342.37781      14179.658      1.3502283      0.70800259   
     54400  -9102.5543     -9187.7171      85.162788      10186.404      343.32882      14208.288      1.3475075      0.70800259   
     54500  -9103.0061     -9186.7112      83.705112      9779.6063      337.45228      14242.484      1.3442722      0.70800259   
     54600  -9104.1301     -9188.5469      84.416781      8696.7153      340.32133      14270.676      1.3416165      0.70800259   
     54700  -9106.5419     -9186.9432      80.401272      6754.174       324.13304      14284.132      1.3403526      0.70800259   
     54800  -9105.4997     -9186.5366      81.036873      9974.7501      326.69543      14279.912      1.3407487      0.70800259   
     54900  -9104.5833     -9186.6013      82.018008      9079.7597      330.65082      14259.109      1.3427048      0.70800259   
     55000  -9102.5618     -9184.5544      81.992599      10367.148      330.54838      14227.454      1.3456923      0.75776884   
     55100  -9100.8858     -9184.0192      83.133394      9384.1198      335.14743      14195.091      1.3487602      0.75776884   
     55200  -9096.4097     -9182.9065      86.496859      9397.9011      348.70705      14175.17       1.3506557      0.75776884   
     55300  -9097.7394     -9181.3456      83.606228      12758.081      337.05364      14175.554      1.3506191      0.75776884   
     55400  -9100.0434     -9183.651       83.607593      9338.5732      337.05914      14193.493      1.3489121      0.75776884   
     55500  -9101.5313     -9182.2244      80.693057      7140.9846      325.30936      14226.631      1.3457701      0.75776884   
     55600  -9102.61       -9184.0731      81.463103      8138.1871      328.41375      14266.862      1.3419752      0.75776884   
[...]
    386300  -9100.1744     -9184.6324      84.458017      12895.426      340.48757      14234.265      1.3450483      0.68870216   
    386400  -9100.9751     -9184.4415      83.466394      12283.72       336.4899       14218.01       1.3465861      0.68870216   
    386500  -9099.7435     -9181.2408      81.497381      12556.891      328.55194      14212.417      1.347116       0.68870216   
    386600  -9100.3611     -9183.6252      83.264046      12010.726      335.67415      14224.444      1.345977       0.68870216   
    386700  -9100.6614     -9184.7209      84.059503      11142.441      338.88099      14247.854      1.3437655      0.68870216   
    386800  -9099.6756     -9185.2515      85.575922      8225.4468      344.99434      14276.004      1.3411158      0.68870216   
    386900  -9098.3029     -9183.0138      84.710902      7503.8291      341.50707      14303.343      1.3385525      0.68870216   
    387000  -9100.1932     -9181.1592      80.966007      10500.385      326.40974      14327.481      1.3362973      0.74865278   
    387100  -9099.7689     -9185.5731      85.804248      9786.04        345.91482      14340.194      1.3351127      0.74865278   
    387200  -9099.7447     -9184.5742      84.829538      8639.5911      341.98534      14337.655      1.3353491      0.74865278   
    387300  -9098.2224     -9182.2028      83.98039       10376.121      338.56205      14320.26       1.3369711      0.74865278   
    387400  -9096.7586     -9181.7283      84.969676      9447.7261      342.5503       14296.382      1.3392042      0.74865278   
    387500  -9095.0182     -9181.782       86.763812      11415.95       349.78325      14274.432      1.3412635      0.74865278   
    387600  -9097.478      -9182.7811      85.303093      9096.73        343.89445      14266.118      1.3420452      0.74865278   
    387700  -9098.042      -9180.7169      82.674869      8411.7258      333.29892      14270.438      1.3416389      0.74865278   
    387800  -9102.0539     -9185.9124      83.858483      8232.7629      338.07059      14278.752      1.3408577      0.74865278   
    387900  -9102.4589     -9185.2367      82.777816      8943.467       333.71394      14284.35       1.3403322      0.74865278   
    388000  -9101.723      -9183.4482      81.725208      8156.3266      329.47041      14282.835      1.3404744      0.67083277   
    388100  -9102.4106     -9185.7296      83.319074      11185.011      335.89599      14275.823      1.3411328      0.67083277   
    388200  -9104.073      -9187.2007      83.127657      12350.101      335.12431      14263.736      1.3422693      0.67083277   
    388300  -9103.3587     -9184.1157      80.757072      10046.601      325.56743      14246.292      1.3439128      0.67083277   
    388400  -9103.7454     -9185.4449      81.699493      9297.8444      329.36675      14231.338      1.345325       0.67083277   
    388500  -9103.7321     -9187.7448      84.012687      10064.798      338.69225      14227.25       1.3457115      0.67083277   
    388600  -9102.7417     -9186.4696      83.727872      8743.0312      337.54404      14230.915      1.345365       0.67083277   
    388700  -9102.3582     -9185.6392      83.281061      10708.616      335.74275      14239.937      1.3445125      0.67083277   
    388800  -9101.1935     -9184.7774      83.583883      10487.8        336.96355      14253.826      1.3432025      0.67083277   
    388900  -9099.278      -9184.5997      85.321696      12188.327      343.96944      14273.666      1.3413354      0.67083277   
    389000  -9098.8794     -9183.0975      84.218112      9825.3954      339.52041      14295.93       1.3392465      0.67016793   
    389100  -9102.4496     -9184.6944      82.244856      11754.433      331.56534      14321.904      1.3368177      0.67016793   
    389200  -9099.1617     -9183.7531      84.591347      10236.349      341.02508      14345.277      1.3346395      0.67016793   
    389300  -9099.6873     -9184.584       84.896761      10213.256      342.25635      14356.714      1.3335764      0.67016793   
    389400  -9099.3514     -9183.7251      84.373623      11512.432      340.14735      14359.721      1.3332972      0.67016793   
    389500  -9099.7799     -9183.4398      83.659973      11095.042      337.27031      14349.524      1.3342446      0.67016793   
    389600  -9098.4152     -9181.6818      83.266653      7956.1656      335.68466      14326.201      1.3364167      0.67016793   
    389700  -9097.0451     -9182.6246      85.579549      8126.6891      345.00896      14293.204      1.3395019      0.67016793   
    389800  -9096.2527     -9181.1882      84.935515      7858.9331      342.41258      14264.645      1.3421837      0.67016793   
    389900  -9095.7976     -9182.4066      86.608989      9866.1429      349.15909      14246.484      1.3438947      0.67016793   
    390000  -9094.8948     -9180.4943      85.599467      9288.1063      345.08926      14243.68       1.3441593      0.69776939   
    390100  -9092.847      -9179.7447      86.897608      12630.154      350.32264      14262.104      1.3424229      0.69776939   
    390200  -9096.1203     -9182.4734      86.353141      9128.9346      348.12766      14299.451      1.3389168      0.69776939   
    390300  -9097.5867     -9183.3814      85.794742      6957.5734      345.8765       14349.871      1.3342123      0.69776939   
    390400  -9097.529      -9180.2031      82.674097      7661.8505      333.2958       14392.968      1.3302173      0.69776939   
    390500  -9096.9134     -9181.297       84.383555      9303.6346      340.18739      14422.569      1.3274872      0.69776939   
    390600  -9098.6075     -9182.5988      83.991215      6784.1125      338.60569      14434.571      1.3263833      0.69776939   
    390700  -9097.8507     -9182.1573      84.306602      8343.106       339.87715      14427.084      1.3270717      0.69776939   
    390800  -9099.0177     -9184.0375      85.019796      6810.5312      342.75235      14403.778      1.3292189      0.69776939   
    390900  -9098.676      -9182.5376      83.861592      7966.7874      338.08312      14365.757      1.3327369      0.69776939   
    391000  -9096.0942     -9181.074       84.979848      8028.9962      342.59131      14320.791      1.3369216      0.66476681   
    391100  -9097.7923     -9181.491       83.698642      11199.893      337.4262       14279.201      1.3408155      0.66476681   
    391200  -9094.7298     -9181.1407      86.410876      8668.4294      348.36041      14251.65       1.3434076      0.66476681   
    391300  -9095.5146     -9180.3774      84.862858      14300.704      342.11967      14242.266      1.3442928      0.66476681   
    391400  -9097.8439     -9179.5771      81.733248      11805.82       329.50283      14252.616      1.3433165      0.66476681   
    391500  -9100.4921     -9184.5967      84.104641      8248.8267      339.06296      14278.283      1.3409018      0.66476681   
    391600  -9101.9853     -9184.7374      82.752132      6076.018       333.6104       14306.533      1.3382539      0.66476681   
    391700  -9100.4755     -9185.1404      84.664917      9893.1374      341.32168      14328.446      1.3362073      0.66476681   
    391800  -9101.0471     -9184.2635      83.216447      8186.0005      335.48226      14341.01       1.3350367      0.66476681   
    391900  -9100.5749     -9182.9855      82.410635      8924.5773      332.23367      14339.894      1.3351406      0.66476681   
    392000  -9100.4499     -9182.3516      81.901691      11742.184      330.18189      14329.851      1.3360763      0.6996376    
    392100  -9100.9978     -9182.9309      81.93309       10000.607      330.30848      14308.193      1.3380987      0.6996376    
    392200  -9102.0755     -9183.643       81.567502      9193.3213      328.83463      14279.928      1.3407472      0.6996376    
    392300  -9102.9584     -9185.7535      82.795136      9355.1311      333.78376      14250.148      1.3435491      0.6996376    
    392400  -9102.7411     -9185.7577      83.016568      8992.4346      334.67646      14223.089      1.3461053      0.6996376    
    392500  -9104.8308     -9185.7626      80.931833      10098.821      326.27197      14206.698      1.3476583      0.6996376    
    392600  -9104.6281     -9185.4708      80.842707      10741.015      325.91266      14199.215      1.3483685      0.6996376    
    392700  -9102.3309     -9185.1223      82.791346      9247.2224      333.76849      14202.126      1.3480921      0.6996376    
    392800  -9101.8888     -9184.8757      82.986893      9558.8479      334.55682      14217.298      1.3466535      0.6996376    
    392900  -9101.8585     -9185.8837      84.025235      11332.872      338.74284      14239.415      1.3445618      0.6996376    
    393000  -9102.4515     -9184.3551      81.903553      8673.061       330.1894       14266.66       1.3419942      0.62435648   
    393100  -9102.3753     -9186.2196      83.844281      6957.9306      338.01333      14293.632      1.3394618      0.62435648   
    393200  -9101.6272     -9185.4469      83.819701      10689.619      337.91424      14311.568      1.3377831      0.62435648   
    393300  -9103          -9186.1022      83.102176      10032.909      335.02158      14321.087      1.336894       0.62435648   
    393400  -9100.999      -9185.4375      84.438483      10864.883      340.40882      14323.42       1.3366762      0.62435648   
    393500  -9100.2326     -9183.7387      83.506124      12267.726      336.65007      14316.887      1.3372861      0.62435648   
    393600  -9100.9844     -9184.2268      83.242321      10990.685      335.58657      14305.577      1.3383434      0.62435648   
    393700  -9101.2191     -9183.2648      82.045702      10778.481      330.76246      14288.31       1.3399608      0.62435648   
    393800  -9101.1096     -9184.9838      83.874154      10316.324      338.13377      14268.813      1.3417917      0.62435648   
    393900  -9102.5783     -9186.7181      84.139887      9246.3137      339.20505      14245.905      1.3439494      0.62435648   
    394000  -9101.0627     -9182.9633      81.900545      12352.721      330.17727      14221.814      1.3462259      0.65234293   
    394100  -9101.4069     -9184.4237      83.01671       11757.045      334.67703      14208.088      1.3475265      0.65234293   
    394200  -9102.5744     -9184.4809      81.906544      9431.5155      330.20146      14207.137      1.3476166      0.65234293   
    394300  -9104.0228     -9185.1209      81.098107      6285.8134      326.94229      14217.576      1.3466272      0.65234293   
    394400  -9104.6884     -9185.653       80.964583      9470.0671      326.404        14238.294      1.3446677      0.65234293   
    394500  -9103.2981     -9186.0042      82.706068      6772.5529      333.42469      14263.37       1.3423038      0.65234293   
    394600  -9101.3069     -9183.4663      82.159396      8817.0567      331.22082      14287.485      1.3400381      0.65234293   
    394700  -9100.6227     -9185.0602      84.437453      8291.3991      340.40467      14303.448      1.3385426      0.65234293   
    394800  -9100.4653     -9181.9564      81.491137      9976.1235      328.52677      14308.528      1.3380674      0.65234293   
    394900  -9098.9371     -9183.4228      84.48575       8556.7682      340.59938      14309.084      1.3380154      0.65234293   
    395000  -9097.1478     -9183.3527      86.20498       7922.0037      347.53035      14307.826      1.3381331      0.69443256   
    395100  -9097.8238     -9180.6783      82.854453      10012.316      334.0229       14306.002      1.3383037      0.69443256   
    395200  -9100.0711     -9185.0696      84.998564      11959.264      342.66676      14310.665      1.3378676      0.69443256   
    395300  -9100.9823     -9185.2815      84.299235      11595.557      339.84745      14311.474      1.337792       0.69443256   
    395400  -9102.6806     -9183.1238      80.443291      11225.62       324.30244      14304.522      1.3384421      0.69443256   
    395500  -9101.1784     -9185.1616      83.983166      10301.811      338.57324      14297.618      1.3390885      0.69443256   
    395600  -9099.7048     -9183.2905      83.585721      11450.745      336.97096      14293.584      1.3394663      0.69443256   
    395700  -9100.236      -9184.2248      83.988759      8583.9717      338.59579      14292.615      1.3395571      0.69443256   
    395800  -9101.8229     -9183.7589      81.935993      10618.947      330.32018      14290.985      1.33971        0.69443256   
    395900  -9102.2836     -9186.2085      83.924935      10738.396      338.33848      14291.306      1.3396798      0.69443256   
    396000  -9102.3792     -9185.5115      83.132289      12166.335      335.14298      14292.073      1.3396079      0.74334821   
    396100  -9101.2183     -9185.5161      84.297802      8682.2753      339.84167      14293.401      1.3394835      0.74334821   
    396200  -9098.3208     -9180.1048      81.783992      11568.903      329.7074       14296.872      1.3391583      0.74334821   
    396300  -9098.558      -9181.7864      83.22846       9998.7366      335.53069      14307.248      1.3381871      0.74334821   
    396400  -9101.6718     -9184.0843      82.412532      10722.936      332.24132      14320.182      1.3369784      0.74334821   
    396500  -9103.3181     -9185.6008      82.282727      10580.649      331.71802      14328.349      1.3362164      0.74334821   
    396600  -9098.5694     -9183.8728      85.303432      9972.491       343.89581      14326.093      1.3364268      0.74334821   
    396700  -9101.2786     -9184.3176      83.039031      9666.9731      334.76701      14319.973      1.336998       0.74334821   
    396800  -9102.15       -9185.4686      83.318637      9177.5708      335.89423      14313.84       1.3375708      0.74334821   
    396900  -9101.0299     -9184.8973      83.867404      11940.459      338.10655      14306.023      1.3383017      0.74334821   
    397000  -9101.8646     -9183.9728      82.108118      10775.48       331.01409      14299.532      1.3389092      0.71448305   
    397100  -9101.4186     -9183.8991      82.480506      9351.1688      332.51535      14292.091      1.3396062      0.71448305   
    397200  -9101.3043     -9185.6873      84.382979      15075.789      340.18506      14283.769      1.3403868      0.71448305   
    397300  -9104.1272     -9186.5723      82.445095      11709.706      332.3726       14273.187      1.3413805      0.71448305   
    397400  -9103.162      -9183.9961      80.834057      8219.2638      325.87779      14260.367      1.3425864      0.71448305   
    397500  -9105.8044     -9187.6841      81.87969       7864.1663      330.0932       14251.558      1.3434163      0.71448305   
    397600  -9103.3587     -9185.366       82.0073        9408.5932      330.60765      14241.988      1.344319       0.71448305   
    397700  -9101.0019     -9185.0448      84.042903      9980.9237      338.81407      14237.962      1.3446991      0.71448305   
    397800  -9102.6433     -9186.827       84.183728      9917.7236      339.38179      14240.416      1.3444673      0.71448305   
    397900  -9104.3088     -9184.2006      79.891721      10845.019      322.07882      14248.304      1.343723       0.71448305   
    398000  -9101.326      -9183.8132      82.487188      12794.169      332.54229      14261.457      1.3424838      0.6567645    
    398100  -9099.7509     -9184.8526      85.101637      13032.821      343.08229      14281.236      1.3406245      0.6567645    
    398200  -9101.9844     -9185.2332      83.248869      9583.7846      335.61296      14304.905      1.3384063      0.6567645    
    398300  -9099.9919     -9183.495       83.503068      5730.7772      336.63775      14322.92       1.3367228      0.6567645    
    398400  -9101.9963     -9183.9382      81.941852      8195.9733      330.3438       14331.934      1.3358821      0.6567645    
    398500  -9103.2788     -9183.1847      79.905893      10996.385      322.13595      14331.399      1.335932       0.6567645    
    398600  -9102.9297     -9185.3244      82.394646      8343.2572      332.16921      14324.52       1.3365736      0.6567645    
    398700  -9102.8405     -9184.6904      81.8499        12766.337      329.9731       14309.822      1.3379464      0.6567645    
    398800  -9102.238      -9185.2047      82.966706      9859.2012      334.47544      14294.938      1.3393395      0.6567645    
    398900  -9101.8966     -9184.5846      82.688015      12354.828      333.35192      14280.044      1.3407364      0.6567645    
    399000  -9101.5377     -9182.3743      80.836597      10879.984      325.88803      14273.046      1.3413937      0.70172945   
    399100  -9100.6857     -9185.8915      85.205823      11805.428      343.50231      14274.928      1.3412169      0.70172945   
    399200  -9100.7554     -9185.1152      84.359717      10187.208      340.09128      14285.171      1.3402552      0.70172945   
    399300  -9100.9093     -9185.0495      84.140192      8974.4553      339.20628      14304.201      1.3384722      0.70172945   
    399400  -9103.642      -9184.7277      81.085751      10414.928      326.89248      14322.436      1.336768       0.70172945   
    399500  -9104.0046     -9186.3924      82.387837      8364.7603      332.14176      14334.628      1.3356311      0.70172945   
    399600  -9103.2801     -9187.4246      84.144468      9143.8639      339.22352      14334.374      1.3356547      0.70172945   
    399700  -9102.9582     -9186.529       83.570766      9795.8856      336.91067      14315.92       1.3373764      0.70172945   
    399800  -9103.4689     -9185.999       82.530078      11585.933      332.7152       14291.406      1.3396705      0.70172945   
    399900  -9103.7929     -9185.1956      81.402652      10245.773      328.17005      14265.66       1.3420882      0.70172945   
    400000  -9103.7459     -9187.8518      84.105907      7156.1992      339.06806      14236.711      1.3448173      0.73161083   
    400100  -9106.0718     -9187.5616      81.489835      8464.2088      328.52152      14207.355      1.347596       0.73161083   
    400200  -9105.2213     -9186.1283      80.906949      14587.087      326.17165      14183.597      1.3498533      0.73161083   
    400300  -9103.4759     -9185.5814      82.105505      11538.835      331.00356      14173.418      1.3508227      0.73161083   
    400333  -9103.1472     -9185.6586      82.511382      9180.4113      332.63983      14173.764      1.3507897      0.73161083   
Loop time of 548.273 on 4 procs for 200000 steps with 1920 atoms

Performance: 15.759 ns/day, 1.523 hours/ns, 364.782 timesteps/s, 700.381 katom-step/s
99.5% CPU use with 4 MPI tasks x 1 OpenMP threads

MPI task timing breakdown:
Section |  min time  |  avg time  |  max time  |%varavg| %total
---------------------------------------------------------------
Pair    | 271.97     | 277.11     | 281.82     |  22.1 | 50.54
Neigh   | 7.9049     | 8.0116     | 8.0961     |   2.5 |  1.46
Comm    | 64.443     | 70.996     | 77.517     |  59.3 | 12.95
Output  | 0.30954    | 0.31575    | 0.32328    |   0.9 |  0.06
Modify  | 188.05     | 189.43     | 191.19     |   9.8 | 34.55
Other   |            | 2.417      |            |       |  0.44

Nlocal:            480 ave         481 max         479 min
Histogram: 1 0 0 0 0 2 0 0 0 1
Nghost:           2660 ave        2666 max        2654 min
Histogram: 2 0 0 0 0 0 0 0 0 2
Neighs:              0 ave           0 max           0 min
Histogram: 4 0 0 0 0 0 0 0 0 0
FullNghs:        76075 ave       76570 max       75801 min
Histogram: 2 0 0 0 1 0 0 0 0 1

Total # of neighbors = 304300
Ave neighs/atom = 158.48958
Neighbor list builds = 20000
Dangerous builds = 20000

unfix		3
unfix		4
Total wall time: 0:18:17
