LAMMPS (27 Jun 2024)
KOKKOS mode with Kokkos version 4.3.1 is enabled (src/KOKKOS/kokkos.cpp:72)
  will use up to 1 GPU(s) per node
WARNING: When using a single thread, the Kokkos Serial backend (i.e. Makefile.kokkos_mpi_only) gives better performance than the OpenMP backend (src/KOKKOS/kokkos.cpp:202)
  using 1 OpenMP thread(s) per MPI task
package kokkos
package kokkos newton on neigh half

units		metal						## E in [eV], t in [ps], P in [10000 Pa], l in [A]
atom_style	atomic						## mass x y z vx vy vz

neighbor	0.5 bin						## neighbor list, skin = 0.5 Angstrom
neigh_modify	every 2 delay 10 check yes			## update of neighbor list

############################## main variables
variable        seed equal 2202

variable	temperature equal 280
variable	tempDamp equal 0.1

variable        pressure equal 5000
variable        pressureDamp equal 1.0 				# This is 1 ps

##############################

read_data water.dat
Reading data file ...
  triclinic box = (0 0 0) to (20.086446 20.107908 21.036805) with tilt (-0.12289673 -0.12587322 0.25756352)
  1 by 1 by 1 MPI processor grid
  reading atoms ...
  972 atoms
  read_data CPU = 0.008 seconds

mass		1 1.008    # H
mass		2 15.9994  # O


pair_style	pace/extrapolation
ACE/AL version: 2023.11.25
pair_coeff	* * /pc2/users/a/acepdw01/work/phase_diagram/pot_dir/interim_potential_ladder_step_1.yaml /pc2/users/a/acepdw01/work/phase_diagram/pot_dir/interim_potential_ladder_step_1.asi H O
Loading /pc2/users/a/acepdw01/work/phase_diagram/pot_dir/interim_potential_ladder_step_1.yaml
Total number of basis functions
	H: 23 (r=1) 664 (r>1)
	O: 23 (r=1) 664 (r>1)
Mapping LAMMPS atom type #1(H) -> ACE species type #0
Mapping LAMMPS atom type #2(O) -> ACE species type #1
Loading ASI /pc2/users/a/acepdw01/work/phase_diagram/pot_dir/interim_potential_ladder_step_1.asi
LINEAR ASI is loaded

fix pace_gamma all pair 1000 pace/extrapolation gamma 1
compute max_pace_gamma all reduce max f_pace_gamma
variable dump_skip equal "c_max_pace_gamma < 10"

dump pace_dump all custom 1000 extrapolative_structures.dump id type x y z f_pace_gamma
dump_modify pace_dump skip v_dump_skip
dump_modify pace_dump element H O

variable max_pace_gamma equal c_max_pace_gamma

timestep	0.0005						## timestep = 0.0005*ps = 0.5 fs

thermo		100
thermo_style custom step etotal pe ke press temp vol density c_max_pace_gamma


min_style cg
minimize 0.0 5.0e-4 10000 100000

CITE-CITE-CITE-CITE-CITE-CITE-CITE-CITE-CITE-CITE-CITE-CITE-CITE

Your simulation uses code contributions which should be cited:

- Type Label Framework: https://doi.org/10.1021/acs.jpcb.3c08419

@Article{Gissinger24,
 author = {Jacob R. Gissinger, Ilia Nikiforov, Yaser Afshar, Brendon Waters, Moon-ki Choi, Daniel S. Karls, Alexander Stukowski, Wonpil Im, Hendrik Heinz, Axel Kohlmeyer, and Ellad B. Tadmor},
 title = {Type Label Framework for Bonded Force Fields in LAMMPS},
 journal = {J. Phys. Chem. B},
 year =    2024,
 volume =  128,
 number =  13,
 pages =   {3282–-3297}
}

CITE-CITE-CITE-CITE-CITE-CITE-CITE-CITE-CITE-CITE-CITE-CITE-CITE

Switching to 'neigh_modify every 1 delay 0 check yes' setting during minimization
Neighbor list info ...
  update: every = 1 steps, delay = 0 steps, check = yes
  max neighbors/atom: 2000, page size: 100000
  master list distance cutoff = 6.5
  ghost atom cutoff = 6.5
  binsize = 6.5, bins = 4 4 4
  1 neighbor lists, perpetual/occasional/extra = 1 0 0
  (1) pair pace/extrapolation/kk, perpetual
      attributes: full, newton on, kokkos_device
      pair build: full/bin/kk/device
      stencil: full/bin/3d
      bin: kk/device
WARNING: Fix with atom-based arrays not compatible with sending data in Kokkos communication, switching to classic exchange/border communication (src/KOKKOS/comm_kokkos.cpp:754)
WARNING: Fix with atom-based arrays not compatible with Kokkos sorting on device, switching to classic host sorting (src/KOKKOS/atom_kokkos.cpp:216)
Per MPI rank memory allocation (min/avg/max) = 777.8 | 777.8 | 777.8 Mbytes
   Step         TotEng         PotEng         KinEng         Press           Temp          Volume        Density     c_max_pace_gamma
         0  -4674.4783     -4674.4783      0             -4207.0767      0              8496.6904      1.140744       0.70893454   
       100  -4698.4118     -4698.4118      0             -5361.4596      0              8496.6904      1.140744       0.70893454   
       200  -4698.4284     -4698.4284      0             -5286.6896      0              8496.6904      1.140744       0.70893454   
       300  -4698.4286     -4698.4286      0             -5280.3747      0              8496.6904      1.140744       0.70893454   
       344  -4698.4286     -4698.4286      0             -5279.8075      0              8496.6904      1.140744       0.70893454   
Loop time of 1.79421 on 1 procs for 344 steps with 972 atoms

99.8% CPU use with 1 MPI tasks x 1 OpenMP threads

Minimization stats:
  Stopping criterion = force tolerance
  Energy initial, next-to-last, final = 
     -4674.47831881434  -4698.42855640537  -4698.42855640926
  Force two-norm initial, final = 12.278537 0.00048663507
  Force max component initial, final = 0.80662295 7.0562335e-05
  Final line search alpha, max atom move = 1 7.0562335e-05
  Iterations, force evaluations = 344 688

MPI task timing breakdown:
Section |  min time  |  avg time  |  max time  |%varavg| %total
---------------------------------------------------------------
Pair    | 1.547      | 1.547      | 1.547      |   0.0 | 86.22
Neigh   | 0.0021873  | 0.0021873  | 0.0021873  |   0.0 |  0.12
Comm    | 0.016513   | 0.016513   | 0.016513   |   0.0 |  0.92
Output  | 0.00036876 | 0.00036876 | 0.00036876 |   0.0 |  0.02
Modify  | 0.14286    | 0.14286    | 0.14286    |   0.0 |  7.96
Other   |            | 0.08526    |            |       |  4.75

Nlocal:            972 ave         972 max         972 min
Histogram: 1 0 0 0 0 0 0 0 0 0
Nghost:           3295 ave        3295 max        3295 min
Histogram: 1 0 0 0 0 0 0 0 0 0
Neighs:              0 ave           0 max           0 min
Histogram: 1 0 0 0 0 0 0 0 0 0
FullNghs:       121804 ave      121804 max      121804 min
Histogram: 1 0 0 0 0 0 0 0 0 0

Total # of neighbors = 121804
Ave neighs/atom = 125.31276
Neighbor list builds = 6
Dangerous builds = 0

################## equilibration of main calculation
# Equilibrate to specified number of ice

fix             3 all nph tri ${pressure} ${pressure} ${pressureDamp}
fix             3 all nph tri 5000 ${pressure} ${pressureDamp}
fix             3 all nph tri 5000 5000 ${pressureDamp}
fix             3 all nph tri 5000 5000 1
fix             4 all temp/csvr ${temperature} ${temperature} ${tempDamp} ${seed}
fix             4 all temp/csvr 280 ${temperature} ${tempDamp} ${seed}
fix             4 all temp/csvr 280 280 ${tempDamp} ${seed}
fix             4 all temp/csvr 280 280 0.1 ${seed}
fix             4 all temp/csvr 280 280 0.1 2202
velocity 	all create ${temperature} ${seed} dist gaussian
velocity 	all create 280 ${seed} dist gaussian
velocity 	all create 280 2202 dist gaussian

run 200000
WARNING: Fix with atom-based arrays not compatible with Kokkos sorting on device, switching to classic host sorting (src/KOKKOS/atom_kokkos.cpp:216)
Per MPI rank memory allocation (min/avg/max) = 777 | 777 | 777 Mbytes
   Step         TotEng         PotEng         KinEng         Press           Temp          Volume        Density     c_max_pace_gamma
       344  -4663.2853     -4698.4286      35.143248     -861.9551       280            8496.6904      1.140744       0.70893454   
       400  -4659.745      -4676.5924      16.84743      -549.36186      134.23006      8481.027       1.1428508      0.70893454   
       500  -4651.4913     -4672.5256      21.03432      -2041.0459      167.58865      8392.136       1.1549561      0.70893454   
       600  -4646.2457     -4669.7632      23.517491      1314.1042      187.37305      8234.0126      1.1771355      0.70893454   
       700  -4640.7605     -4668.8087      28.04816       5016.849       223.47066      8052.9684      1.2035995      0.70893454   
       800  -4636.8931     -4667.1052      30.212097      4540.6513      240.71159      7910.233       1.2253177      0.70893454   
       900  -4633.7786     -4664.7898      31.011239      7198.8047      247.07867      7826.3995      1.2384428      0.70893454   
      1000  -4631.8779     -4663.4643      31.586367      9203.2115      251.66094      7800.0194      1.2426313      0.86031564   
      1100  -4630.4875     -4663.798       33.310442      7636.4173      265.39732      7823.2196      1.2389462      0.86031564   
      1200  -4630.117      -4662.9532      32.83623       8669.4796      261.61908      7887.0141      1.2289249      0.86031564   
      1300  -4630.6374     -4664.1738      33.53643       7798.544       267.19785      7976.0933      1.2152         0.86031564   
      1400  -4629.0172     -4662.8022      33.78502       3742.7492      269.17846      8073.4629      1.2005441      0.86031564   
      1500  -4628.9905     -4662.1987      33.208194      9427.4147      264.58266      8164.4437      1.1871658      0.86031564   
      1600  -4629.0435     -4661.6832      32.639716      4309.4517      260.05338      8233.3459      1.1772308      0.86031564   
      1700  -4628.8739     -4661.5278      32.653917      903.21406      260.16652      8269.8896      1.1720288      0.86031564   
      1800  -4629.1994     -4662.6323      33.432921      1419.7171      266.37316      8270.9216      1.1718825      0.86031564   
      1900  -4629.6996     -4661.4332      31.733614      1709.0815      252.83411      8235.6254      1.176905       0.86031564   
      2000  -4628.5333     -4662.109       33.575673      121.05985      267.51052      8171.9358      1.1860774      0.7251751    
      2100  -4626.7627     -4660.8503      34.087651      5891.7067      271.58965      8095.3427      1.1972993      0.7251751    
      2200  -4625.4431     -4659.9927      34.549592      5929.1308      275.27011      8024.2372      1.207909       0.7251751    
      2300  -4626.509      -4661.211       34.701997      6383.0445      276.48438      7968.7357      1.216322       0.7251751    
      2400  -4625.2312     -4660.9329      35.701673      10163.686      284.44919      7942.3842      1.2203575      0.7251751    
      2500  -4626.4527     -4663.1521      36.699382      6343.2809      292.39833      7955.6767      1.2183185      0.7251751    
      2600  -4628.5618     -4661.491       32.929173      4162.8591      262.3596       8001.4282      1.2113523      0.7251751    
      2700  -4629.099      -4662.3408      33.241797      6678.3555      264.85039      8061.6606      1.2023017      0.7251751    
      2800  -4625.8005     -4660.3474      34.546815      5476.7362      275.24798      8115.8158      1.194279       0.7251751    
      2900  -4625.7        -4660.3841      34.684101      5704.051       276.3418       8163.9257      1.1872411      0.7251751    
      3000  -4625.8587     -4661.2299      35.371178      2452.1158      281.816        8204.6011      1.1813552      0.85949415   
      3100  -4625.0047     -4660.8195      35.814746      1658.52        285.35009      8231.7813      1.1774546      0.85949415   
      3200  -4624.3008     -4660.5514      36.250668      5589.29        288.82325      8232.7546      1.1773154      0.85949415   
      3300  -4623.8239     -4659.4215      35.597605      3862.2447      283.62004      8204.3711      1.1813884      0.85949415   
      3400  -4624.6917     -4660.596       35.904269      3274.8059      286.06335      8155.1433      1.1885197      0.85949415   
      3500  -4625.1528     -4659.83        34.677169      5498.4423      276.28657      8096.3499      1.1971504      0.85949415   
      3600  -4624.5197     -4660.0819      35.562197      4280.687       283.33793      8046.1175      1.2046243      0.85949415   
      3700  -4624.7673     -4659.5952      34.827905      8459.3731      277.48754      8015.8231      1.2091769      0.85949415   
      3800  -4624.2747     -4659.6558      35.381011      7156.8835      281.89435      8007.0269      1.2105053      0.85949415   
      3900  -4625.4717     -4660.7149      35.243279      7415.031       280.79698      8020.0262      1.2085432      0.85949415   
      4000  -4625.5731     -4660.9894      35.41629       7065.4441      282.17543      8048.5304      1.2042631      0.75769055   
      4100  -4626.3562     -4662.4256      36.069447      4651.3093      287.37939      8082.4293      1.1992123      0.75769055   
      4200  -4625.2706     -4661.1564      35.885808      3992.7516      285.91626      8119.2002      1.1937812      0.75769055   
      4300  -4624.2286     -4660.0401      35.811556      2542.3239      285.32467      8152.2361      1.1889435      0.75769055   
      4400  -4624.7095     -4660.0887      35.379151      5443.4297      281.87953      8177.4417      1.1852788      0.75769055   
      4500  -4625.9989     -4660.7316      34.732791      3344.1041      276.72972      8187.0191      1.1838922      0.75769055   
      4600  -4626.7194     -4661.0075      34.288131      3129.5356      273.18695      8174.8781      1.1856505      0.75769055   
      4700  -4625.6581     -4660.6224      34.964282      3541.0694      278.57411      8146.3363      1.1898046      0.75769055   
      4800  -4626.6946     -4662.4204      35.725762      5923.5368      284.64111      8114.9303      1.1944093      0.75769055   
      4900  -4627.0333     -4659.9183      32.88501       6335.8418      262.00774      8087.0389      1.1985287      0.75769055   
      5000  -4627.134      -4661.0141      33.880112      6844.2162      269.9361       8061.2132      1.2023684      0.73299378   
      5100  -4625.7393     -4660.9328      35.193456      4272.3703      280.40002      8039.2907      1.2056472      0.73299378   
      5200  -4625.6587     -4661.2436      35.584865      7313.6921      283.51853      8031.376       1.2068353      0.73299378   
      5300  -4627.0575     -4661.6161      34.558671      5388.7688      275.34245      8039.7944      1.2055717      0.73299378   
      5400  -4627.3705     -4662.3046      34.934064      6187.5085      278.33334      8065.1443      1.2017824      0.73299378   
      5500  -4626.7755     -4661.977       35.201421      2364.3289      280.46349      8106.0368      1.1957198      0.73299378   
      5600  -4624.8651     -4659.3023      34.437195      1528.8161      274.3746       8149.2711      1.1893761      0.73299378   
      5700  -4625.9484     -4661.9821      36.033719      3505.3271      287.09473      8187.063       1.1838859      0.73299378   
      5800  -4625.7344     -4660.9992      35.26486       3853.3557      280.96893      8209.519       1.1806475      0.73299378   
      5900  -4625.6795     -4661.2071      35.527584      2253.8215      283.06216      8213.4008      1.1800895      0.73299378   
      6000  -4624.1104     -4659.9438      35.833405      5693.4531      285.49875      8197.5566      1.1823704      0.78165121   
      6100  -4623.5719     -4659.141       35.569112      4657.0516      283.39302      8169.3283      1.186456       0.78165121   
      6200  -4623.7824     -4660.2637      36.481318      4809.9188      290.66092      8134.6248      1.1915176      0.78165121   
      6300  -4625.2893     -4660.9329      35.643642      4257.4347      283.98683      8092.305       1.1977488      0.78165121   
      6400  -4626.6309     -4661.2129      34.58201       5569.3382      275.52839      8042.0482      1.2052338      0.78165121   
      6500  -4625.7154     -4661.142       35.426574      3961.0777      282.25737      7998.6067      1.2117796      0.78165121   
      6600  -4624.8968     -4659.384       34.487164      10193.61       274.77272      7973.3521      1.2156178      0.78165121   
      6700  -4624.0856     -4660.3611      36.275408      7358.3986      289.02036      7974.637       1.2154219      0.78165121   
      6800  -4624.9409     -4660.5557      35.614776      4102.3988      283.75685      8003.0772      1.2111027      0.78165121   
      6900  -4626.0793     -4660.967       34.887713      9727.6099      277.96405      8050.7458      1.2039317      0.78165121   
      7000  -4625.7755     -4660.7583      34.98276       4177.5494      278.72133      8108.6286      1.1953376      0.89373451   
      7100  -4626.7006     -4660.5263      33.825653      1700.233       269.50221      8165.2936      1.1870422      0.89373451   
      7200  -4627.696      -4662.7207      35.024622      2745.1371      279.05485      8206.2933      1.1811116      0.89373451   
      7300  -4628.0545     -4660.8803      32.825802      6115.5535      261.536        8223.2053      1.1786825      0.89373451   
      7400  -4627.6444     -4662.1415      34.49718       680.60092      274.85252      8216.6618      1.1796212      0.89373451   
      7500  -4627.2741     -4661.1026      33.828487      1674.3857      269.52478      8191.6447      1.1832237      0.89373451   
      7600  -4626.3263     -4661.2062      34.879879      6028.1987      277.90163      8152.0303      1.1889735      0.89373451   
      7700  -4625.3758     -4661.2434      35.867515      6795.8153      285.77052      8102.1487      1.1962936      0.89373451   
      7800  -4625.7018     -4660.135       34.433263      6235.098       274.34327      8046.3209      1.2045938      0.89373451   
      7900  -4625.7598     -4660.713       34.953159      7639.3185      278.48549      7992.3085      1.2127345      0.89373451   
      8000  -4625.2095     -4659.4072      34.197771      5594.4101      272.46701      7949.0765      1.2193301      0.67247148   
      8100  -4624.9399     -4661.7956      36.855665      9153.432       293.64349      7929.4172      1.2223532      0.67247148   
      8200  -4625.1557     -4661.4238      36.268026      6103.3735      288.96154      7945.1494      1.2199328      0.67247148   
      8300  -4624.2863     -4659.9903      35.70396       4571.995       284.46741      7993.263       1.2125897      0.67247148   
      8400  -4623.4179     -4658.7545      35.336629      9076.4948      281.54074      8058.6007      1.2027582      0.67247148   
      8500  -4624.1587     -4659.2071      35.048396      8073.521       279.24428      8130.523       1.1921187      0.67247148   
      8600  -4624.9412     -4660.0025      35.06132       3335.3004      279.34724      8197.4729      1.1823825      0.67247148   
      8700  -4624.23       -4659.62        35.389954      1430.0325      281.9656       8244.3679      1.1756569      0.67247148   
      8800  -4624.1906     -4659.5637      35.37316       2345.9745      281.83179      8265.4977      1.1726515      0.67247148   
      8900  -4624.409      -4658.862       34.453024      4417.2376      274.50071      8255.7155      1.174041       0.67247148   
      9000  -4624.235      -4659.9673      35.732214     -393.20866      284.69252      8215.9332      1.1797258      0.74628754   
      9100  -4624.5667     -4660.6872      36.120503      6683.6901      287.78617      8159.872       1.1878309      0.74628754   
      9200  -4623.8402     -4659.1747      35.334513      8564.3259      281.52389      8102.718       1.1962095      0.74628754   
      9300  -4624.0586     -4660.6297      36.571046      7088.8552      291.37582      8056.7219      1.2030387      0.74628754   
      9400  -4624.9558     -4660.9783      36.022532      4993.8382      287.0056       8030.5011      1.2069668      0.74628754   
      9500  -4626.4613     -4660.8957      34.434416      8771.6382      274.35246      8029.5937      1.2071032      0.74628754   
      9600  -4626.9657     -4661.9118      34.946064      5302.1997      278.42896      8044.3824      1.2048841      0.74628754   
      9700  -4627.7495     -4661.8456      34.096089      6703.104       271.65687      8065.8362      1.2016793      0.74628754   
      9800  -4627.6537     -4661.4726      33.818867      4546.9977      269.44814      8086.0074      1.1986816      0.74628754   
      9900  -4628.7521     -4663.4303      34.678189      6242.866       276.29469      8101.3469      1.196412       0.74628754   
     10000  -4628.7296     -4662.4841      33.754513      4758.854       268.93541      8114.4362      1.1944821      0.77435682   
     10100  -4627.4253     -4662.4132      34.987824      3984.891       278.76167      8127.3382      1.1925858      0.77435682   
     10200  -4625.883      -4660.6948      34.811775      899.58794      277.35903      8141.0684      1.1905745      0.77435682   
     10300  -4626.1403     -4660.3513      34.211015      3011.544       272.57254      8155.9607      1.1884006      0.77435682   
     10400  -4624.7526     -4660.1955      35.442946      1489.4626      282.38781      8163.323       1.1873288      0.77435682   
     10500  -4624.8008     -4659.3572      34.556385      390.00862      275.32423      8153.6447      1.1887381      0.77435682   
     10600  -4623.4714     -4658.875       35.403566      7143.5078      282.07406      8123.7095      1.1931185      0.77435682   
     10700  -4623.9125     -4659.9309      36.018421      3202.0294      286.97284      8082.7443      1.1991655      0.77435682   
     10800  -4624.2432     -4660.9917      36.74853       7600.7248      292.78991      8048.7006      1.2042377      0.77435682   
     10900  -4624.6045     -4659.4804      34.875853      4114.1222      277.86955      8033.3824      1.2065339      0.77435682   
     11000  -4625.1879     -4660.581       35.393102      8519.1306      281.99068      8040.2864      1.2054979      0.82717136   
     11100  -4625.483      -4659.675       34.192023      5960.5631      272.42121      8069.5624      1.2011244      0.82717136   
     11200  -4624.7553     -4659.5496      34.79425       5797.0145      277.21939      8108.5165      1.1953541      0.82717136   
     11300  -4624.6463     -4659.3353      34.68898       3541.0862      276.38067      8145.9407      1.1898624      0.82717136   
     11400  -4624.9513     -4660.9527      36.001391      4709.9958      286.83716      8173.6962      1.185822       0.82717136   
     11500  -4624.537      -4660.219       35.682026      6972.5281      284.29265      8186.0283      1.1840355      0.82717136   
     11600  -4623.7924     -4659.9534      36.161039      2734.9813      288.10913      8186.7851      1.1839261      0.82717136   
     11700  -4623.6329     -4658.8545      35.221669      5007.4193      280.62481      8178.1529      1.1851757      0.82717136   
     11800  -4622.8837     -4660.8256      37.941888      2683.27        302.29786      8166.4911      1.1868682      0.82717136   
     11900  -4624.5442     -4660.1478      35.603563      5347.1928      283.66751      8152.9408      1.1888408      0.82717136   
     12000  -4624.9355     -4660.557       35.621482      4635.3381      283.81028      8141.3232      1.1905372      0.80304378   
     12100  -4626.3459     -4659.7582      33.412213      6856.112       266.20817      8129.8141      1.1922226      0.80304378   
     12200  -4627.4105     -4660.4753      33.064837      4200.4205      263.44048      8118.886       1.1938274      0.80304378   
     12300  -4627.6919     -4659.98        32.288162      6621.6269      257.25241      8108.8448      1.1953057      0.80304378   
     12400  -4627.862      -4662.5124      34.650384      5830.2641      276.07316      8093.9077      1.1975116      0.80304378   
     12500  -4628.5521     -4661.7321      33.179927      5790.4615      264.35745      8075.1379      1.2002951      0.80304378   
     12600  -4626.9506     -4662.7459      35.795256      5557.1028      285.1948       8067.0925      1.2014922      0.80304378   
     12700  -4626.4495     -4661.4987      35.049256      8835.7783      279.25113      8071.2939      1.2008667      0.80304378   
     12800  -4627.5539     -4662.2844      34.730525      4089.9587      276.71167      8089.8735      1.1981088      0.80304378   
     12900  -4628.1413     -4662.1548      34.01351       7689.893       270.99894      8112.4213      1.1947787      0.80304378   
     13000  -4625.7321     -4660.4899      34.75778       9031.7462      276.92882      8132.2363      1.1918675      0.90376073   
     13100  -4626.0935     -4660.6325      34.53901       5508.8689      275.18579      8152.2408      1.1889429      0.90376073   
     13200  -4625.1532     -4661.7358      36.582552      2969.8957      291.46749      8172.5388      1.1859899      0.90376073   
     13300  -4624.8144     -4659.0459      34.23148       2555.326       272.73559      8189.2205      1.183574       0.90376073   
     13400  -4625.1919     -4659.4402      34.248262      2966.5627      272.86929      8194.3431      1.1828341      0.90376073   
     13500  -4624.637      -4660.2819      35.644825      2134.573       283.99626      8179.4852      1.1849827      0.90376073   
     13600  -4625.0988     -4660.1374      35.0386        5198.4226      279.16623      8147.9424      1.1895701      0.90376073   
     13700  -4625.0053     -4659.9522      34.946853      6452.1345      278.43524      8104.8034      1.1959017      0.90376073   
     13800  -4625.0271     -4659.8011      34.773965      4468.2535      277.05778      8065.8544      1.2016766      0.90376073   
     13900  -4625.4134     -4660.0354      34.622052      6146.329       275.84742      8036.6727      1.20604        0.90376073   
     14000  -4625.9256     -4661.1655      35.239862      6275.6114      280.76976      8023.5989      1.2080051      0.69270476   
     14100  -4626.639      -4661.4169      34.777893      8690.8745      277.08907      8028.0303      1.2073383      0.69270476   
     14200  -4625.717      -4661.3717      35.654767      6895.4081      284.07547      8045.3379      1.204741       0.69270476   
     14300  -4625.4844     -4660.5031      35.018649      3014.7009      279.00727      8072.1567      1.2007384      0.69270476   
     14400  -4626.0274     -4661.5795      35.552116      1396.0527      283.25761      8103.8217      1.1960466      0.69270476   
     14500  -4626.1339     -4660.4014      34.267562      4980.4122      273.02307      8131.7092      1.1919448      0.69270476   
     14600  -4625.732      -4660.0123      34.280282      6199.386       273.12441      8156.0456      1.1883882      0.69270476   
     14700  -4625.5888     -4662.4552      36.86636       4852.088       293.72871      8175.2175      1.1856013      0.69270476   
     14800  -4625.6137     -4661.4208      35.807116      7561.4845      285.28929      8184.8375      1.1842078      0.69270476   
     14900  -4625.4242     -4661.9002      36.475989      2587.142       290.61847      8189.5046      1.1835329      0.69270476   
     15000  -4625.8508     -4660.6201      34.769317      6082.2247      277.02074      8182.5587      1.1845376      0.85257356   
     15100  -4625.3478     -4661.6153      36.267461      6888.4288      288.95705      8160.3406      1.1877627      0.85257356   
     15200  -4625.0659     -4658.7856      33.719614      4457.7495      268.65735      8123.6327      1.1931298      0.85257356   
     15300  -4624.3755     -4659.2938      34.918304      5455.4003      278.20778      8074.6776      1.2003635      0.85257356   
     15400  -4625.269      -4660.4638      35.194797      6202.2717      280.41071      8028.484       1.2072701      0.85257356   
     15500  -4625.7521     -4660.3435      34.591391      3478.026       275.60314      7998.3891      1.2118126      0.85257356   
     15600  -4624.7974     -4660.7733      35.975902      6732.9557      286.63408      7990.1544      1.2130615      0.85257356   
     15700  -4624.7562     -4660.2911      35.534818      8598.7378      283.11979      8009.0449      1.2102003      0.85257356   
     15800  -4624.8958     -4659.7309      34.835105      2645.3552      277.54491      8050.2162      1.2040109      0.85257356   
     15900  -4625.0686     -4659.5109      34.442336      6950.0664      274.41556      8100.7714      1.196497       0.85257356   
     16000  -4625.7607     -4661.2486      35.487861      4234.9382      282.74567      8154.4737      1.1886173      0.65707159   
     16100  -4626.8853     -4660.4981      33.612737      2753.1911      267.80582      8204.7418      1.181335       0.65707159   
     16200  -4626.6453     -4660.032       33.386693      4559.1449      266.00484      8235.7729      1.1768839      0.65707159   
     16300  -4625.0541     -4660.3937      35.339595      2431.2127      281.56437      8228.7354      1.1778904      0.65707159   
     16400  -4624.3888     -4661.029       36.640124      2569.2401      291.92619      8186.1615      1.1840163      0.65707159   
     16500  -4624.4967     -4658.4512      33.954463      2827.6963      270.52849      8125.664       1.1928315      0.65707159   
     16600  -4625.3392     -4661.1749      35.835695      5591.4354      285.517        8069.1968      1.2011788      0.65707159   
     16700  -4625.0024     -4660.983       35.980549      7000.0274      286.6711       8033.2603      1.2065523      0.65707159   
     16800  -4624.4413     -4659.3565      34.915292      4227.1581      278.18379      8022.0676      1.2082357      0.65707159   
     16900  -4623.7977     -4658.0808      34.283169      6167.8529      273.14741      8034.4167      1.2063786      0.65707159   
     17000  -4625.1492     -4660.7874      35.638276      5082.445       283.94408      8067.6992      1.2014018      0.97705077   
     17100  -4624.7411     -4661.7947      37.053555      3136.1948      295.22016      8107.1199      1.19556        0.97705077   
     17200  -4625.0582     -4660.8375      35.779265      3615.2255      285.0674       8143.266       1.1902532      0.97705077   
     17300  -4624.2538     -4659.516       35.262233      3819.8772      280.948        8172.1276      1.1860496      0.97705077   
     17400  -4625.112      -4659.3299      34.217874      6400.5977      272.62719      8186.2081      1.1840095      0.97705077   
     17500  -4625.8487     -4660.1072      34.258494      3107.4195      272.95081      8186.8516      1.1839165      0.97705077   
     17600  -4625.5197     -4660.3462      34.826525      4730.8225      277.47654      8176.45        1.1854226      0.97705077   
     17700  -4625.9973     -4661.7158      35.718539      4280.7704      284.58357      8161.9267      1.1875319      0.97705077   
     17800  -4625.5234     -4659.8252      34.301759      6234.0351      273.29553      8148.2113      1.1895308      0.97705077   
     17900  -4624.0718     -4660.4886      36.416873      4706.2597      290.14746      8130.6051      1.1921067      0.97705077   
     18000  -4623.3139     -4660.4657      37.151826      7626.3739      296.00313      8108.8508      1.1953048      0.62186722   
     18100  -4622.1119     -4658.9926      36.880682      4562.1564      293.84281      8084.9797      1.198834       0.62186722   
     18200  -4622.6631     -4659.522       36.858948      8024.3125      293.66965      8069.8273      1.201085       0.62186722   
     18300  -4624.5802     -4659.8747      35.294541      8389.1795      281.20541      8067.2855      1.2014634      0.62186722   
     18400  -4624.2718     -4660.3596      36.087779      4830.0704      287.52544      8077.4139      1.1999569      0.62186722   
     18500  -4623.1528     -4659.0822      35.929424      2446.1         286.26377      8096.004       1.1972015      0.62186722   
     18600  -4624.2147     -4660.4346      36.219896      7704.8002      288.57807      8120.9035      1.1935308      0.62186722   
     18700  -4625.571      -4659.9787      34.407614      5573.4379      274.13891      8146.7257      1.1897477      0.62186722   
     18800  -4625.595      -4660.8497      35.254682      2843.788       280.88783      8165.3837      1.1870291      0.62186722   
     18900  -4624.4136     -4660.3912      35.977598      983.30834      286.64759      8172.5172      1.185993       0.62186722   
     19000  -4625.9003     -4661.1331      35.232855      5446.1072      280.71393      8172.1047      1.1860529      0.68825035   
     19100  -4626.5774     -4661.3132      34.735829      6086.8678      276.75393      8162.4029      1.1874626      0.68825035   
     19200  -4625.3909     -4660.1484      34.757452      2141.871       276.92621      8137.8749      1.1910417      0.68825035   
     19300  -4625.663      -4662.4981      36.835076      5041.6154      293.47945      8103.4083      1.1961076      0.68825035   
     19400  -4626.4393     -4661.8964      35.4571        8697.467       282.50058      8059.6102      1.2026076      0.68825035   
     19500  -4626.355      -4662.303       35.948069      5296.6802      286.41232      8017.7922      1.20888        0.68825035   
     19600  -4627.0189     -4661.1328      34.113934      8891.8434      271.79905      7986.5447      1.2136097      0.68825035   
     19700  -4625.9731     -4661.5263      35.553217      7007.1433      283.26638      7973.4815      1.215598       0.68825035   
     19800  -4625.94       -4660.5583      34.618264      4482.9963      275.81724      7983.4961      1.2140732      0.68825035   
     19900  -4627.2149     -4661.3823      34.167397      4379.3906      272.22501      8015.4041      1.2092401      0.68825035   
     20000  -4628.7162     -4663.3956      34.679369      6833.1514      276.30409      8066.3365      1.2016048      0.83827063   
     20100  -4628.0826     -4661.9758      33.893145      2591.5693      270.03994      8132.0357      1.1918969      0.83827063   
     20200  -4627.8141     -4661.2225      33.408459      428.46258      266.17825      8195.3024      1.1826956      0.83827063   
     20300  -4626.2807     -4660.7842      34.503465     -249.72518      274.9026       8242.0543      1.175987       0.83827063   
     20400  -4624.9495     -4660.663       35.713531      1308.6533      284.54366      8269.8735      1.172031       0.83827063   
     20500  -4625.2505     -4661.0309      35.780362      5294.1193      285.07614      8272.993       1.1715891      0.83827063   
     20600  -4624.2966     -4660.2381      35.941545      2877.5303      286.36034      8252.5274      1.1744946      0.83827063   
     20700  -4625.3919     -4660.3933      35.001424      1597.2937      278.87003      8206.9162      1.181022       0.83827063   
     20800  -4624.3227     -4659.6157      35.292978      5893.5183      281.19296      8140.1803      1.1907044      0.83827063   
     20900  -4625.0309     -4661.2278      36.196859      6167.6408      288.39453      8067.7716      1.201391       0.83827063   
     21000  -4624.4301     -4660.6093      36.179152      6903.7602      288.25345      8008.0672      1.210348       0.90039161   
     21100  -4626.2086     -4660.5091      34.300487      6524.5449      273.28539      7975.6365      1.2152696      0.90039161   
     21200  -4625.0276     -4660.606       35.578445      5950.0786      283.46738      7968.4283      1.2163689      0.90039161   
     21300  -4625.3845     -4661.3991      36.014623      7133.4695      286.94258      7985.1096      1.2138278      0.90039161   
     21400  -4625.9431     -4661.2924      35.349327      7133.954       281.64191      8027.1614      1.207469       0.90039161   
     21500  -4625.698      -4661.6747      35.976754      6882.2829      286.64087      8086.2094      1.1986517      0.90039161   
     21600  -4624.9858     -4660.2561      35.270301      4594.421       281.01228      8149.2895      1.1893734      0.90039161   
     21700  -4625.6783     -4659.5584      33.880115      3102.0823      269.93612      8202.9138      1.1815982      0.90039161   
     21800  -4625.051      -4660.4473      35.39626       4213.7106      282.01585      8235.771       1.1768842      0.90039161   
     21900  -4624.9013     -4660.2734      35.372043      3457.365       281.82289      8239.1686      1.1763988      0.90039161   
     22000  -4623.5252     -4659.8489      36.323755      1404.1827      289.40556      8215.8679      1.1797352      0.6799899    
     22100  -4622.4667     -4658.2936      35.826893      5317.0823      285.44687      8176.5155      1.1854131      0.6799899    
     22200  -4623.6138     -4659.3518      35.738027      2646.2907      284.73883      8129.0679      1.1923321      0.6799899    
     22300  -4626.0561     -4660.6921      34.635943      3605.0175      275.9581       8076.3024      1.200122       0.6799899    
     22400  -4625.5408     -4661.9186      36.377821      7933.0017      289.83633      8025.3364      1.2077436      0.6799899    
     22500  -4625.1887     -4660.1256      34.936869      9050.6299      278.3557       7993.8939      1.212494       0.6799899    
     22600  -4623.5607     -4659.685       36.124369      7455.8526      287.81698      7993.8404      1.2125021      0.6799899    
     22700  -4622.9754     -4659.9623      36.986901      6965.9063      294.6891       8023.8868      1.2079618      0.6799899    
     22800  -4623.4377     -4659.7867      36.348977      5979.141       289.60651      8074.3343      1.2004146      0.6799899    
     22900  -4623.6747     -4659.5802      35.905455      3734.1799      286.0728       8131.559       1.1919668      0.6799899    
     23000  -4624.6741     -4660.3669      35.692792      5413.3515      284.37843      8182.5119      1.1845444      0.67108205   
     23100  -4625.747      -4660.6017      34.854678      2603.08        277.70084      8215.3695      1.1798068      0.67108205   
     23200  -4625.2958     -4660.223       34.927157      3255.1451      278.27832      8220.358       1.1790908      0.67108205   
     23300  -4625.2818     -4660.2266      34.944775      5839.6541      278.41868      8201.0922      1.1818607      0.67108205   
     23400  -4625.9034     -4661.2315      35.328116      6825.8758      281.47292      8163.9296      1.1872406      0.67108205   
     23500  -4625.273      -4660.6523      35.379317      6414.9958      281.88085      8122.054       1.1933617      0.67108205   
     23600  -4626.0572     -4660.7412      34.683984      6918.2875      276.34086      8088.4807      1.1983151      0.67108205   
     23700  -4625.1965     -4659.6194      34.422917      6562.1367      274.26084      8067.839       1.201381       0.67108205   
     23800  -4626.8615     -4660.0777      33.216187      6645.9882      264.64635      8059.6647      1.2025995      0.67108205   
     23900  -4626.1754     -4661.2452      35.069784      4502.094       279.41468      8056.6168      1.2030544      0.67108205   
     24000  -4626.0194     -4660.3899      34.370495      8801.7678      273.84317      8055.1567      1.2032725      0.85587576   
     24100  -4624.7966     -4660.6825      35.885914      5425.7213      285.91711      8061.2279      1.2023663      0.85587576   
     24200  -4625.5708     -4661.4008      35.830012      5351.3423      285.47172      8075.3967      1.2002566      0.85587576   
     24300  -4625.7854     -4659.8431      34.05773       3402.7328      271.35125      8093.7108      1.1975407      0.85587576   
     24400  -4626.1087     -4660.226       34.117318      5462.8902      271.82601      8109.4621      1.1952147      0.85587576   
     24500  -4625.242      -4660.6918      35.449716      4033.3317      282.44175      8118.2906      1.1939149      0.85587576   
     24600  -4624.6246     -4659.6627      35.038101      4786.0538      279.16225      8128.1335      1.1924691      0.85587576   
     24700  -4624.2493     -4660.3062      36.056862      6423.3423      287.27912      8141.7871      1.1904694      0.85587576   
     24800  -4625.5307     -4661.3809      35.85018       3599.9478      285.6324       8159.0689      1.1879479      0.85587576   
     24900  -4625.0519     -4659.9416      34.889735      1981.2741      277.98016      8167.0724      1.1867837      0.85587576   
     25000  -4624.5579     -4659.8629      35.30498       3183.0259      281.28858      8157.4844      1.1881786      0.71763054   
     25100  -4624.8147     -4659.8567      35.041984      1284.6787      279.19319      8130.3947      1.1921375      0.71763054   
     25200  -4623.4666     -4659.5793      36.11271       5105.1369      287.72408      8097.6017      1.1969653      0.71763054   
     25300  -4623.1865     -4660.8263      37.639791      7810.7104      299.89093      8067.6096      1.2014152      0.71763054   
     25400  -4623.7342     -4659.9122      36.177999      6075.8134      288.24427      8046.6525      1.2045442      0.71763054   
     25500  -4624.6908     -4659.9798      35.289045      9346.7149      281.16162      8040.592       1.2054521      0.71763054   
     25600  -4624.0364     -4659.1504      35.11401       5276.4126      279.76704      8045.5479      1.2047096      0.71763054   
     25700  -4626.5496     -4660.542       33.992479      5409.9917      270.83137      8062.1315      1.2022315      0.71763054   
     25800  -4625.6159     -4661.7027      36.086847      5998.6037      287.51802      8089.7232      1.198131       0.71763054   
     25900  -4625.8213     -4660.2766      34.455264      4248.3257      274.51856      8121.8537      1.1933912      0.71763054   
     26000  -4626.1708     -4660.4229      34.252088      5174.5802      272.89977      8155.7233      1.1884352      0.70325058   
     26100  -4625.8375     -4660.3654      34.527897      3445.7732      275.09726      8179.9662      1.184913       0.70325058   
     26200  -4626.9432     -4662.9212      35.977985      4588.3051      286.65068      8190.5474      1.1833823      0.70325058   
     26300  -4626.6294     -4661.6546      35.025207      7272.8251      279.05952      8187.1285      1.1838764      0.70325058   
     26400  -4625.4471     -4660.8528      35.405643      2940.5531      282.0906       8172.0406      1.1860622      0.70325058   
     26500  -4625.9147     -4661.1614      35.246665      4410.3682      280.82396      8151.5615      1.1890419      0.70325058   
     26600  -4625.1094     -4660.531       35.421631      5440.0291      282.21799      8128.2902      1.1924462      0.70325058   
     26700  -4626.2856     -4661.8185      35.532848      5034.8476      283.1041       8111.0547      1.19498        0.70325058   
     26800  -4626.7045     -4660.6127      33.908257      5624.4922      270.16034      8095.3028      1.1973052      0.70325058   
     26900  -4625.8992     -4661.236       35.336822     -407.31305      281.54228      8081.724       1.1993169      0.70325058   
     27000  -4627.2063     -4662.1848      34.978524      2524.5676      278.68758      8069.6686      1.2011086      0.68591842   
     27100  -4627.1808     -4662.0279      34.847168      5748.3065      277.64101      8061.6122      1.2023089      0.68591842   
     27200  -4625.2663     -4661.9171      36.650795      5237.6226      292.01121      8065.2974      1.2017596      0.68591842   
     27300  -4624.9918     -4660.9635      35.971789      6831.0561      286.60131      8080.1719      1.1995473      0.68591842   
     27400  -4624.9424     -4660.5413      35.598975      2678.3252      283.63096      8097.7454      1.1969441      0.68591842   
     27500  -4625.9312     -4660.2357      34.304509      4139.3577      273.31744      8113.1785      1.1946672      0.68591842   
     27600  -4627.0505     -4661.5284      34.477829      5012.2116      274.69834      8127.9276      1.1924994      0.68591842   
     27700  -4626.0772     -4661.0632      34.985972      4463.4399      278.74692      8138.0813      1.1910115      0.68591842   
     27800  -4625.7296     -4660.6755      34.945812      3615.0753      278.42695      8143.9739      1.1901497      0.68591842   
     27900  -4624.6253     -4660.8287      36.203448      6325.8676      288.44703      8148.3895      1.1895048      0.68591842   
     28000  -4625.702      -4661.4997      35.797723      1614.0548      285.21446      8145.2785      1.1899591      0.71757649   
     28100  -4625.2067     -4660.3253      35.118669      4380.8155      279.80417      8133.8057      1.1916376      0.71757649   
     28200  -4624.9502     -4659.9597      35.009475      3572.8184      278.93418      8117.0532      1.1940969      0.71757649   
     28300  -4624.8621     -4658.9526      34.090502      9435.7678      271.61236      8092.4873      1.1977218      0.71757649   
     28400  -4626.6239     -4661.6516      35.027673      4062.7094      279.07917      8073.355       1.2005602      0.71757649   
     28500  -4625.0544     -4659.7257      34.671254      4322.8087      276.23943      8064.2611      1.201914       0.71757649   
     28600  -4625.3897     -4659.8399      34.45014       6921.1402      274.47774      8069.2757      1.2011671      0.71757649   
     28700  -4626.109      -4660.2667      34.157663      5071.4731      272.14746      8086.0596      1.1986739      0.71757649   
     28800  -4626.0921     -4660.7825      34.690339      3458.9069      276.39149      8108.1647      1.195406       0.71757649   
     28900  -4624.9767     -4659.8492      34.872492      3557.6854      277.84278      8133.7294      1.1916487      0.71757649   
     29000  -4624.7335     -4659.3532      34.61971       4041.9285      275.82877      8163.0354      1.1873706      0.85525365   
     29100  -4625.4003     -4660.444       35.043754      5346.557       279.20729      8189.4153      1.1835458      0.85525365   
     29200  -4625.7528     -4660.8069      35.054154      2750.497       279.29016      8206.7073      1.181052       0.85525365   
     29300  -4625.5832     -4661.9962      36.413001      4690.7571      290.11662      8210.9572      1.1804407      0.85525365   
     29400  -4625.2664     -4660.3216      35.055123      1784.6508      279.29787      8195.794       1.1826247      0.85525365   
     29500  -4625.6429     -4660.2064      34.563579      3949.8474      275.38155      8164.6016      1.1871429      0.85525365   
     29600  -4625.2272     -4660.4733      35.246065      2156.2364      280.81918      8124.8738      1.1929476      0.85525365   
     29700  -4625.0623     -4659.8391      34.776776      6823.5573      277.08017      8091.2803      1.1979005      0.85525365   
     29800  -4624.8575     -4660.8635      36.006021      6819.7409      286.87405      8069.0173      1.2012056      0.85525365   
     29900  -4624.6789     -4659.8634      35.184428      4143.301       280.32809      8059.3619      1.2026446      0.85525365   
     30000  -4624.2207     -4659.0768      34.856146      6249.475       277.71255      8066.6105      1.201564       0.69053732   
     30100  -4624.1664     -4658.9674      34.801062      5614.0502      277.27367      8084.7389      1.1988697      0.69053732   
     30200  -4624.8386     -4661.3621      36.523536      4582.6311      290.99729      8106.7933      1.1956082      0.69053732   
     30300  -4622.9718     -4660.7052      37.733388      6365.333       300.63665      8128.0202      1.1924858      0.69053732   
     30400  -4623.7111     -4659.0906      35.379526      5932.2565      281.88252      8142.1919      1.1904102      0.69053732   
     30500  -4622.8262     -4660.1566      37.330391      1611.5157      297.42582      8148.9279      1.1894262      0.69053732   
     30600  -4624.1592     -4660.4142      36.254971      4105.9101      288.85753      8153.2039      1.1888024      0.69053732   
     30700  -4622.8729     -4659.1926      36.319664      7583.0224      289.37296      8162.989       1.1873774      0.69053732   
     30800  -4624.9208     -4660.7595      35.838643      3538.231       285.54048      8175.4056      1.185574       0.69053732   
     30900  -4624.7962     -4659.5952      34.79894       2384.4271      277.25676      8178.1786      1.185172       0.69053732   
     31000  -4623.7174     -4659.9879      36.270522      3738.0885      288.98143      8175.3528      1.1855817      0.78701631   
     31100  -4623.1342     -4658.176       35.041745      3196.4966      279.19128      8160.847       1.187689       0.78701631   
     31200  -4622.4679     -4658.6958      36.227892      3409.8578      288.64178      8135.855       1.1913374      0.78701631   
     31300  -4622.8277     -4659.1719      36.344157      803.00737      289.56811      8104.5332      1.1959416      0.78701631   
     31400  -4623.8183     -4659.2898      35.471491      8401.1608      282.61524      8070.9409      1.2009193      0.78701631   
     31500  -4623.8498     -4658.9345      35.084624      5595.3996      279.53292      8042.2858      1.2051982      0.78701631   
     31600  -4624.7158     -4658.9942      34.278365      9033.7295      273.10914      8025.1253      1.2077753      0.78701631   
     31700  -4624.8707     -4660.6514      35.780665      5232.7032      285.07855      8029.5717      1.2071065      0.78701631   
     31800  -4626.1418     -4661.1616      35.019833      2074.8358      279.0167       8055.8742      1.2031653      0.78701631   
     31900  -4628.0066     -4663.0366      35.030039      7132.2981      279.09802      8097.6818      1.1969535      0.78701631   
     32000  -4627.4634     -4661.8553      34.391913      3924.9959      274.01382      8144.2968      1.1901025      0.78488308   
     32100  -4626.8113     -4661.773       34.961658      3029.4618      278.5532       8181.1198      1.1847459      0.78488308   
     32200  -4626.8165     -4660.7663      33.949841      3403.6043      270.49166      8201.5271      1.181798       0.78488308   
     32300  -4626.3377     -4662.2063      35.868593      6425.3398      285.77911      8204.2225      1.1814097      0.78488308   
     32400  -4626.6116     -4661.7633      35.151684      5693.2845      280.06721      8189.548       1.1835267      0.78488308   
     32500  -4626.67       -4661.0607      34.39065       4274.7274      274.00375      8172.7334      1.1859616      0.78488308   
     32600  -4627.785      -4660.8106      33.025621      8910.0037      263.12804      8157.1212      1.1882315      0.78488308   
     32700  -4627.431      -4660.8953      33.464279      5561.4922      266.623        8137.3495      1.1911186      0.78488308   
     32800  -4626.9494     -4661.2415      34.292135      4779.2158      273.21885      8107.8225      1.1954564      0.78488308   
     32900  -4625.5844     -4661.3814      35.797079      8669.6981      285.20933      8077.0223      1.2000151      0.78488308   
     33000  -4625.9757     -4660.1169      34.141125      6257.0857      272.01569      8055.0244      1.2032923      0.89698773   
     33100  -4625.6523     -4661.2928      35.640501      5816.2006      283.96181      8048.4546      1.2042745      0.89698773   
     33200  -4624.5368     -4660.1418      35.604998      4651.9562      283.67894      8062.2003      1.2022212      0.89698773   
     33300  -4624.7186     -4660.0474      35.32875       5885.7239      281.47797      8091.0321      1.1979372      0.89698773   
     33400  -4624.6389     -4660.625       35.986036      3712.4391      286.71482      8129.6649      1.1922445      0.89698773   
     33500  -4626.2772     -4662.2976      36.020407      7896.7073      286.98867      8168.6024      1.1865614      0.89698773   
     33600  -4625.25       -4660.5586      35.308642      4136.5852      281.31775      8200.1068      1.1820027      0.89698773   
     33700  -4625.4264     -4660.695       35.268525      5111.419       280.99813      8220.926       1.1790093      0.89698773   
     33800  -4624.5201     -4660.3592      35.839112      6247.0665      285.54422      8230.2832      1.1776689      0.89698773   
     33900  -4624.8663     -4660.073       35.206724      5250.3994      280.50574      8225.0028      1.1784249      0.89698773   
     34000  -4624.9467     -4661.4105      36.463769      5945.8009      290.52111      8200.6759      1.1819207      0.71171059   
     34100  -4624.5532     -4660.4307      35.877481      3471.0266      285.84992      8160.7949      1.1876966      0.71171059   
     34200  -4625.476      -4661.1905      35.714462      3834.2516      284.55108      8112.2937      1.1947975      0.71171059   
     34300  -4626.0133     -4660.8094      34.796102      5812.2411      277.23415      8063.7361      1.2019923      0.71171059   
     34400  -4625.6576     -4661.3272      35.669621      8877.4823      284.19382      8029.2629      1.207153       0.71171059   
     34500  -4626.4491     -4660.992       34.542858      4027.6955      275.21646      8015.7819      1.2091832      0.71171059   
     34600  -4626.2826     -4662.1833      35.900767      4657.3303      286.03545      8025.4678      1.2077238      0.71171059   
     34700  -4625.2088     -4660.2245      35.01562       7382.3107      278.98313      8050.0973      1.2040287      0.71171059   
     34800  -4623.5464     -4659.0638      35.517463      7193.0022      282.98151      8084.2529      1.1989418      0.71171059   
     34900  -4624.6033     -4660.4048      35.801484      6042.2034      285.24442      8122.8601      1.1932433      0.71171059   
     35000  -4624.1796     -4659.6041      35.42447       2627.0739      282.2406       8161.947       1.187529       0.67363142   
     35100  -4625.3039     -4659.8049      34.501023      2823.958       274.88314      8193.9338      1.1828932      0.67363142   
     35200  -4624.3692     -4660.7393      36.370101      3968.0244      289.77482      8215.0549      1.1798519      0.67363142   
     35300  -4624.1646     -4659.6677      35.503132      3599.9449      282.86733      8216.4602      1.1796501      0.67363142   
     35400  -4625.4593     -4660.8809      35.421608      2880.0991      282.2178       8201.2995      1.1818308      0.67363142   
     35500  -4624.4357     -4659.5425      35.106818      2410.6572      279.70974      8171.958       1.1860742      0.67363142   
     35600  -4625.6351     -4660.9813      35.346252      4969.6689      281.61741      8134.4912      1.1915371      0.67363142   
     35700  -4624.9049     -4660.2759      35.371005      6775.0071      281.81463      8095.9032      1.1972164      0.67363142   
     35800  -4623.982      -4661.593       37.611018      2947.5006      299.66169      8063.0163      1.2020996      0.67363142   
     35900  -4623.6608     -4661.5347      37.873881      4161.1386      301.75602      8037.5267      1.2059118      0.67363142   
     36000  -4623.9643     -4660.6886      36.724297      8373.3766      292.59683      8022.6086      1.2081542      0.67998534   
     36100  -4624.3481     -4659.053       34.704858      4284.7915      276.50718      8025.6459      1.207697       0.67998534   
     36200  -4625.6375     -4660.5199      34.882389      5301.5091      277.92163      8045.806       1.2046709      0.67998534   
     36300  -4626.7888     -4660.7988      34.010014      7679.1906      270.97108      8078.8703      1.1997406      0.67998534   
     36400  -4627.2973     -4661.0925      33.795241      2352.858       269.2599       8117.1329      1.1940852      0.67998534   
     36500  -4628.217      -4663.2816      35.06467       3992.9658      279.37394      8153.709       1.1887288      0.67998534   
     36600  -4627.6697     -4661.191       33.521314      5592.1914      267.07742      8179.856       1.184929       0.67998534   
     36700  -4627.9891     -4661.7612      33.772172      3397.7888      269.0761       8193.0138      1.183026       0.67998534   
     36800  -4628.4852     -4662.7899      34.30468       3367.3948      273.3188       8188.4491      1.1836855      0.67998534   
     36900  -4626.9028     -4662.1549      35.25215       3519.9171      280.86766      8164.3592      1.1871781      0.67998534   
     37000  -4626.5544     -4660.2921      33.737664      1605.3488      268.80116      8124.7575      1.1929646      0.76739994   
     37100  -4626.5058     -4661.1184      34.612666      4094.509       275.77264      8072.8018      1.2006424      0.76739994   
     37200  -4626.8557     -4661.4971      34.641369      6844.8722      276.00133      8020.6854      1.2084439      0.76739994   
     37300  -4625.7671     -4660.233       34.465874      8664.1207      274.60309      7985.4384      1.2137779      0.76739994   
     37400  -4625.3599     -4661.3082      35.948276      8515.2375      286.41397      7979.0683      1.2147469      0.76739994   
     37500  -4624.7049     -4659.0051      34.300216      4773.1232      273.28323      8003.1261      1.2110953      0.76739994   
     37600  -4625.1568     -4658.9124      33.755556      4600.254       268.94371      8054.8667      1.2033158      0.76739994   
     37700  -4624.8036     -4661.0908      36.287219      2181.1492      289.11446      8120.095       1.1936496      0.76739994   
     37800  -4625.4901     -4660.4429      34.952811      2302.1861      278.48272      8180.6805      1.1848096      0.76739994   
     37900  -4624.8711     -4659.2103      34.339156      5419.9056      273.59348      8229.2362      1.1778187      0.76739994   
     38000  -4625.4813     -4661.9992      36.517843      3116.4472      290.95193      8258.173       1.1736916      0.83604572   
     38100  -4625.8719     -4660.3849      34.513038      5984.9972      274.97887      8256.8515      1.1738795      0.83604572   
     38200  -4625.9448     -4660.3477      34.40287       2777.4261      274.10112      8223.9237      1.1785796      0.83604572   
     38300  -4624.4234     -4660.1792      35.755855      5578.8142      284.88088      8166.5096      1.1868655      0.83604572   
     38400  -4625.3088     -4660.7135      35.404754      3415.4413      282.08352      8102.0994      1.1963009      0.83604572   
     38500  -4625.1503     -4662.0129      36.86255       9148.6919      293.69835      8046.3134      1.2045949      0.83604572   
     38600  -4625.4785     -4661.128       35.649496      7575.4111      284.03347      8010.1314      1.2100361      0.83604572   
     38700  -4625.8801     -4661.3012      35.42112       6229.6954      282.21391      7997.4641      1.2119527      0.83604572   
     38800  -4624.5819     -4661.1122      36.530302      7784.7624      291.0512       8004.6553      1.2108639      0.83604572   
     38900  -4625.785      -4661.0714      35.286403      5538.7052      281.14057      8025.8318      1.207669       0.83604572   
     39000  -4625.7154     -4660.3832      34.667781      5027.6205      276.21176      8049.4418      1.2041268      0.81287706   
     39100  -4625.5634     -4660.5822      35.018823      3887.4678      279.00866      8075.44        1.2002502      0.81287706   
     39200  -4624.8574     -4659.9083      35.050929      6696.6295      279.26446      8106.5594      1.1956427      0.81287706   
     39300  -4625.9553     -4661.84        35.884689      8673.3998      285.90735      8137.2195      1.1911376      0.81287706   
     39400  -4626.1752     -4662.584       36.408814      5578.6611      290.08326      8161.48        1.1875969      0.81287706   
     39500  -4625.5528     -4661.7244      36.171505      1937.4073      288.19253      8171.2672      1.1861745      0.81287706   
     39600  -4624.6569     -4660.6288      35.971902      2661.3843      286.60221      8171.7627      1.1861025      0.81287706   
     39700  -4624.8567     -4660.2541      35.397362      4765.7739      282.02462      8164.8608      1.1871052      0.81287706   
     39800  -4624.6757     -4659.7122      35.036486      6931.3922      279.14939      8144.4005      1.1900874      0.81287706   
     39900  -4623.2144     -4658.4478      35.233325      5692.4532      280.71767      8117.5919      1.1940177      0.81287706   
     40000  -4623.731      -4659.6862      35.955173      4506.592       286.46893      8092.4301      1.1977303      0.67016087   
     40100  -4624.5314     -4659.8343      35.302861      6827.0702      281.2717       8071.4557      1.2008427      0.67016087   
     40200  -4626.2707     -4660.3146      34.043902      8018.8692      271.24108      8052.5062      1.2036685      0.67016087   
     40300  -4626.7115     -4661.636       34.924494      4192.1584      278.2571       8040.4422      1.2054745      0.67016087   
     40400  -4626.4291     -4661.1357      34.706587      5504.5584      276.52095      8038.4163      1.2057784      0.67016087   
     40500  -4626.4538     -4661.2532      34.799403      3465.2381      277.26045      8048.7327      1.2042329      0.67016087   
     40600  -4626.1032     -4661.9777      35.874515      5419.7296      285.82628      8074.7432      1.2003538      0.67016087   
     40700  -4627.1709     -4661.9288      34.757838      7335.6276      276.92928      8109.5549      1.195201       0.67016087   
     40800  -4626.2398     -4660.425       34.185229      4069.9911      272.36708      8138.9986      1.1908773      0.67016087   
     40900  -4625.5317     -4661.0413      35.509589      3862.5571      282.91878      8154.4006      1.1886279      0.67016087   
     41000  -4625.9008     -4660.7026      34.801832      5849.2341      277.27981      8155.296       1.1884974      0.7302642    
     41100  -4625.2869     -4659.8012      34.514285      6273.5906      274.9888       8148.8843      1.1894326      0.7302642    
     41200  -4624.3068     -4660.6155      36.308615      1200.2138      289.28493      8146.7636      1.1897422      0.7302642    
     41300  -4625.345      -4660.294       34.94908       7507.3846      278.45299      8152.0102      1.1889765      0.7302642    
     41400  -4625.6663     -4660.8633      35.196949      5214.9212      280.42786      8157.9862      1.1881055      0.7302642    
     41500  -4625.1987     -4659.903       34.704334      3233.6552      276.503        8155.1831      1.1885139      0.7302642    
     41600  -4625.8506     -4660.9807      35.130047      930.37701      279.89482      8134.8594      1.1914832      0.7302642    
     41700  -4626.1888     -4660.214       34.025205      6045.5487      271.09211      8100.8553      1.1964846      0.7302642    
     41800  -4625.6312     -4660.1625      34.53124       4298.3528      275.12389      8061.2662      1.2023605      0.7302642    
     41900  -4626.9455     -4660.5281      33.582636      5197.402       267.56599      8031.0018      1.2068916      0.7302642    
     42000  -4627.4703     -4662.3949      34.924582      3314.8436      278.2578       8020.6044      1.2084561      0.75024672   
     42100  -4627.5429     -4660.9469      33.403948      7662.388       266.14232      8030.8664      1.2069119      0.75024672   
     42200  -4629.0269     -4662.1372      33.110324      4453.2454      263.8029       8056.6285      1.2030527      0.75024672   
     42300  -4629.155      -4662.3851      33.230127      5973.3944      264.75741      8086.1263      1.198664       0.75024672   
     42400  -4628.0944     -4662.4749      34.380526      2958.8052      273.92309      8109.8157      1.1951626      0.75024672   
     42500  -4627.6244     -4662.2536      34.629219      6018.6282      275.90453      8122.8285      1.1932479      0.75024672   
     42600  -4628.2477     -4662.2208      33.973107      2103.2662      270.67703      8118.6203      1.1938665      0.75024672   
     42700  -4628.6251     -4662.2647      33.639607      1698.2227      268.0199       8093.8931      1.1975138      0.75024672   
     42800  -4626.8278     -4661.4406      34.612836      9106.8813      275.774        8060.6901      1.2024465      0.75024672   
     42900  -4625.4619     -4661.3505      35.888594      8015.8803      285.93846      8039.6336      1.2055958      0.75024672   
     43000  -4625.9198     -4661.5043      35.584536      7270.3138      283.51591      8041.2789      1.2053491      1.0661128    
     43100  -4624.5179     -4659.45        34.932061      5335.0532      278.31739      8058.482       1.202776       1.0661128    
     43200  -4625.7017     -4660.655       34.953338      4125.1817      278.48691      8085.838       1.1987067      1.0661128    
     43300  -4626.9837     -4661.594       34.61033       2849.0376      275.75403      8110.6743      1.1950361      1.0661128    
     43400  -4626.7635     -4661.6938      34.930303      3290.6862      278.30338      8126.7664      1.1926697      1.0661128    
     43500  -4625.3451     -4661.1509      35.805775      6839.7429      285.27861      8141.8995      1.190453       1.0661128    
     43600  -4625.026      -4659.5872      34.561207      2328.5841      275.36265      8154.3166      1.1886402      1.0661128    
     43700  -4624.319      -4659.7495      35.430516      6980.2269      282.28877      8162.3346      1.1874726      1.0661128    
     43800  -4624.484      -4660.7947      36.31065       6865.0597      289.30115      8161.3836      1.1876109      1.0661128    
     43900  -4625.7081     -4660.6495      34.941434      5185.5011      278.39207      8157.0865      1.1882366      1.0661128    
     44000  -4624.7041     -4660.384       35.679873      6240.3375      284.2755       8151.7879      1.1890089      0.71254073   
     44100  -4624.2513     -4661.0889      36.837589      5204.8395      293.49947      8147.437       1.1896439      0.71254073   
     44200  -4624.5566     -4660.729       36.17236       5721.1837      288.19933      8139.6279      1.1907852      0.71254073   
     44300  -4624.2438     -4659.4465      35.202671      4835.2862      280.47344      8127.607       1.1925464      0.71254073   
     44400  -4624.6596     -4660.5761      35.916556      4209.1387      286.16124      8108.9436      1.1952911      0.71254073   
     44500  -4625.5662     -4660.4663      34.900182      7730.9868      278.0634       8083.6231      1.1990352      0.71254073   
     44600  -4624.8537     -4660.4775      35.623832      8449.9469      283.829        8062.3924      1.2021926      0.71254073   
     44700  -4625.3908     -4660.0472      34.656403      7586.6282      276.12111      8055.5957      1.2032069      0.71254073   
     44800  -4625.9438     -4660.4276      34.483839      5949.3835      274.74623      8061.1578      1.2023767      0.71254073   
     44900  -4625.0194     -4659.5112      34.491784      5176.4836      274.80953      8071.8395      1.2007856      0.71254073   
     45000  -4625.3414     -4660.0384      34.696985      5118.3594      276.44445      8083.7903      1.1990104      0.71740724   
     45100  -4624.8714     -4660.8157      35.944325      8501.3972      286.38249      8099.0719      1.196748       0.71740724   
     45200  -4625.7064     -4660.6598      34.953401      4140.8655      278.48741      8117.4678      1.194036       0.71740724   
     45300  -4625.6239     -4661.694       36.070128      4467.4047      287.38481      8132.7159      1.1917972      0.71740724   
     45400  -4626.2601     -4660.4306      34.170543      2804.252       272.25008      8141.72        1.1904792      0.71740724   
     45500  -4625.9338     -4660.4131      34.479254      5808.9925      274.7097       8146.8936      1.1897232      0.71740724   
     45600  -4627.8752     -4661.9796      34.104379      6254.9117      271.72292      8143.2099      1.1902614      0.71740724   
     45700  -4626.1226     -4661.45        35.327314      2111.0498      281.46652      8128.7424      1.1923798      0.71740724   
     45800  -4626.1019     -4659.7206      33.618754      3627.4249      267.85376      8107.7967      1.1954602      0.71740724   
     45900  -4625.9942     -4658.748       32.753711      7914.2492      260.96162      8087.9565      1.1983927      0.71740724   
     46000  -4625.3924     -4660.7856      35.393153      6501.0531      281.99109      8080.313       1.1995264      0.62649412   
     46100  -4625.2685     -4660.3315      35.062966      3583.9509      279.36036      8083.6253      1.1990348      0.62649412   
     46200  -4624.6214     -4661.2961      36.674694      4869.9298      292.20163      8098.3293      1.1968578      0.62649412   
     46300  -4625.6105     -4659.9913      34.380785      3924.0432      273.92516      8122.4413      1.1933048      0.62649412   
     46400  -4626.1762     -4659.8096      33.633409      1104.9946      267.97052      8149.476       1.1893462      0.62649412   
     46500  -4625.5697     -4660.9451      35.375393      2651.3748      281.84959      8170.0824      1.1863465      0.62649412   
     46600  -4626.3935     -4661.1477      34.754166      2318.3254      276.90003      8183.1775      1.184448       0.62649412   
     46700  -4624.9665     -4659.8818      34.915353      7194.5688      278.18427      8187.3017      1.1838514      0.62649412   
     46800  -4626.1441     -4661.9765      35.832401      2116.9942      285.49075      8177.7095      1.18524        0.62649412   
     46900  -4627.0265     -4661.7233      34.696762      3333.4127      276.44267      8152.2507      1.1889414      0.62649412   
     47000  -4626.1455     -4662.5278      36.382245      6709.6268      289.87157      8111.2176      1.194956       0.8716456    
     47100  -4625.9186     -4661.3721      35.453446      4104.0704      282.47147      8063.9015      1.2019676      0.8716456    
     47200  -4626.6631     -4662.5812      35.918095      5980.6334      286.17351      8028.436       1.2072773      0.8716456    
     47300  -4627.6217     -4660.5178      32.896081      6939.2678      262.09594      8016.5805      1.2090627      0.8716456    
     47400  -4627.7866     -4661.4409      33.654225      2510.0226      268.13637      8023.6466      1.2079979      0.8716456    
     47500  -4627.5679     -4661.4147      33.846777      6692.4757      269.67051      8043.9278      1.2049522      0.8716456    
     47600  -4627.3766     -4661.6843      34.307747      6053.5517      273.34324      8075.2779      1.2002743      0.8716456    
     47700  -4626.3352     -4661.0043      34.669154      5543.7956      276.22271      8108.0659      1.1954205      0.8716456    
     47800  -4625.9008     -4661.0968      35.195979      3367.1713      280.42013      8133.8865      1.1916257      0.8716456    
     47900  -4625.7854     -4661.5456      35.760215      6530.6983      284.91562      8149.1923      1.1893876      0.8716456    
     48000  -4625.6984     -4661.4078      35.709369      5862.2447      284.5105       8152.3671      1.1889244      0.70059929   
     48100  -4626.4888     -4660.5331      34.044303      5711.6312      271.24427      8146.1471      1.1898322      0.70059929   
     48200  -4626.4889     -4662.7634      36.274508      2765.5542      289.01319      8139.0846      1.1908647      0.70059929   
     48300  -4626.2193     -4661.2793      35.060004      659.20435      279.33676      8118.7227      1.1938514      0.70059929   
     48400  -4627.1548     -4661.0476      33.892796      4291.3398      270.03716      8081.7363      1.1993151      0.70059929   
     48500  -4626.4536     -4661.4839      35.030328      5410.197       279.10032      8034.6759      1.2063397      0.70059929   
     48600  -4624.816      -4659.7674      34.951402      9296.1075      278.47149      7998.2786      1.2118293      0.70059929   
     48700  -4624.5597     -4660.9044      36.344788      6600.9913      289.57314      7990.5532      1.2130009      0.70059929   
     48800  -4624.5074     -4658.9074      34.399994      4466.2669      274.07821      8012.1261      1.2097349      0.70059929   
     48900  -4625.638      -4661.1934      35.555323      5708.2275      283.28316      8053.2175      1.2035622      0.70059929   
     49000  -4626.898      -4661.7982      34.900166      3716.6443      278.06327      8095.6913      1.1972478      0.77377512   
     49100  -4627.5223     -4661.0975      33.575149      4976.9514      267.50634      8132.0402      1.1918963      0.77377512   
     49200  -4625.4193     -4660.4962      35.076978      4493.7059      279.472        8161.2494      1.1876305      0.77377512   
     49300  -4624.9786     -4659.7225      34.743853      5519.2293      276.81786      8183.3578      1.1844219      0.77377512   
     49400  -4626.3993     -4661.1294      34.730038      5023.5614      276.70779      8201.5292      1.1817977      0.77377512   
     49500  -4626.8657     -4661.8919      35.026239      4917.5734      279.06774      8203.0512      1.1815784      0.77377512   
     49600  -4625.9153     -4660.3159      34.400615      2575.7064      274.08315      8183.8572      1.1843496      0.77377512   
     49700  -4624.4589     -4660.3894      35.930485      7789.3833      286.27223      8152.0084      1.1889767      0.77377512   
     49800  -4625.0989     -4660.062       34.963095      3775.0556      278.56465      8116.6806      1.1941518      0.77377512   
     49900  -4626.2966     -4660.9061      34.609552      6281.8467      275.74783      8090.3215      1.1980424      0.77377512   
     50000  -4626.0044     -4661.2895      35.285025      4649.3971      281.12959      8075.6227      1.200223       0.74329646   
     50100  -4625.9826     -4660.2188      34.2362        6105.6503      272.77319      8060.9508      1.2024076      0.74329646   
     50200  -4626.9484     -4660.587       33.63857       5823.3055      268.01164      8043.2674      1.2050511      0.74329646   
     50300  -4625.8956     -4660.4569      34.561278      3759.463       275.36322      8031.8293      1.2067672      0.74329646   
     50400  -4625.7461     -4660.9499      35.203787      3968.0121      280.48234      8034.4426      1.2063747      0.74329646   
     50500  -4625.4736     -4660.2567      34.783112      5250.1377      277.13066      8055.8715      1.2031657      0.74329646   
     50600  -4625.8269     -4659.4217      33.594743      2893.1149      267.66246      8090.0969      1.1980757      0.74329646   
     50700  -4625.587      -4660.3512      34.76419       5727.0965      276.97989      8126.7998      1.1926648      0.74329646   
     50800  -4627.602      -4661.4938      33.891818      1262.3461      270.02936      8151.5018      1.1890506      0.74329646   
     50900  -4627.8273     -4662.1336      34.306272      4067.7936      273.33148      8162.9936      1.1873767      0.74329646   
     51000  -4628.4114     -4661.8937      33.482315      6154.9081      266.7667       8167.7269      1.1866886      0.73830846   
     51100  -4627.1531     -4660.4317      33.278545      4012.608       265.14318      8162.8782      1.1873935      0.73830846   
     51200  -4627.8848     -4661.6254      33.740608      2896.4173      268.82462      8146.4381      1.1897897      0.73830846   
     51300  -4626.9176     -4661.612       34.694409      2537.1711      276.42392      8116.4609      1.1941841      0.73830846   
     51400  -4626.8758     -4661.5065      34.630773      5650.7971      275.91691      8081.0887      1.1994112      0.73830846   
     51500  -4628.1775     -4662.6042      34.426756      1899.7617      274.29143      8051.3074      1.2038478      0.73830846   
     51600  -4628.2865     -4662.0714      33.784889      5290.1067      269.17742      8035.3408      1.2062399      0.73830846   
     51700  -4627.3034     -4661.284       33.980633      5170.708       270.73699      8040.775       1.2054247      0.73830846   
     51800  -4628.4663     -4662.7003      34.23406       4251.567       272.75614      8064.5585      1.2018697      0.73830846   
     51900  -4626.6789     -4661.4718      34.79293       4514.4216      277.20888      8096.8459      1.1970771      0.73830846   
     52000  -4627.6813     -4662.5654      34.884042      8059.8067      277.9348       8129.8113      1.192223       0.76271871   
     52100  -4627.0783     -4662.4217      35.343397      4650.7802      281.59466      8156.4046      1.1883359      0.76271871   
     52200  -4626.3108     -4661.0325      34.721702      5268.1849      276.64138      8179.6247      1.1849625      0.76271871   
     52300  -4624.3644     -4659.6814      35.316982      4601.6278      281.38421      8196.4202      1.1825343      0.76271871   
     52400  -4625.6578     -4659.5999      33.942094      2430.0641      270.42993      8212.5554      1.180211       0.76271871   
     52500  -4625.6706     -4659.7516      34.080954      2176.582       271.53629      8213.8784      1.1800209      0.76271871   
     52600  -4624.6598     -4660.0613      35.401471      2435.2939      282.05736      8195.2826      1.1826985      0.76271871   
     52700  -4623.1979     -4660.8454      37.647473      5664.1286      299.95214      8157.3256      1.1882017      0.76271871   
     52800  -4624.198      -4660.7079      36.509901      4088.9405      290.88866      8112.9473      1.1947013      0.76271871   
     52900  -4623.9328     -4660.251       36.318245      4631.8243      289.36166      8078.0955      1.1998556      0.76271871   
     53000  -4623.2474     -4658.7461      35.49872       4293.7747      282.83218      8058.5735      1.2027623      0.77882181   
     53100  -4624.6892     -4659.1669      34.477696      8037.2927      274.69728      8056.5565      1.2030634      0.77882181   
     53200  -4624.7331     -4660.5333      35.800189      3782.724       285.2341       8069.2175      1.2011758      0.77882181   
     53300  -4624.0377     -4660.8325      36.794798     -1016.0253      293.15854      8088.1096      1.1983701      0.77882181   
     53400  -4625.3851     -4661.1793      35.794197      7478.295       285.18637      8111.4267      1.1949252      0.77882181   
     53500  -4625.8593     -4660.9602      35.100915      6103.3736      279.66271      8133.554       1.1916744      0.77882181   
     53600  -4624.7677     -4660.6359      35.868254      3305.8721      285.77641      8156.1864      1.1883677      0.77882181   
     53700  -4625.4776     -4661.8219      36.344271      1946.9134      289.56902      8173.2365      1.1858886      0.77882181   
     53800  -4625.472      -4660.2404      34.768402      6299.8198      277.01345      8172.4772      1.1859988      0.77882181   
     53900  -4627.0832     -4662.048       34.964879      3486.0372      278.57886      8158.046       1.1880968      0.77882181   
     54000  -4626.7314     -4661.4414      34.709974      3785.6719      276.54794      8133.1391      1.1917352      0.73825402   
     54100  -4626.5862     -4660.3378      33.751595      5292.1459      268.91216      8106.6507      1.1956292      0.73825402   
     54200  -4626.3386     -4661.0995      34.760945      5379.3614      276.95404      8082.8221      1.199154       0.73825402   
     54300  -4625.9865     -4659.8057      33.819146      4247.2522      269.45036      8064.0972      1.2019384      0.73825402   
     54400  -4626.6893     -4660.7436      34.054316      7083.4946      271.32405      8055.9464      1.2031545      0.73825402   
     54500  -4626.0851     -4661.4367      35.351605      4165.6326      281.66006      8057.9632      1.2028534      0.73825402   
     54600  -4625.9814     -4660.1536      34.172143      7210.2607      272.26283      8066.4528      1.2015874      0.73825402   
     54700  -4625.1326     -4660.4216      35.288996      3364.6127      281.16123      8084.1887      1.1989513      0.73825402   
     54800  -4624.2711     -4658.9313      34.660115      4809.2096      276.15069      8114.1315      1.1945269      0.73825402   
     54900  -4624.6223     -4660.6785      36.056231      7285.9068      287.27409      8157.2874      1.1882073      0.73825402   
     55000  -4625.903      -4661.5002      35.597124      3627.5517      283.61621      8210.4677      1.1805111      0.97957784   
     55100  -4625.4236     -4661.2336      35.810044      395.7078       285.31263      8260.3332      1.1733847      0.97957784   
[...]
   2186400  -4627.662      -4660.9482      33.286144      5317.1023      265.20372      8114.0907      1.1945329      0.90655322   
   2186500  -4627.8419     -4662.871       35.029119      1982.963       279.09069      8142.6325      1.1903458      0.90655322   
   2186600  -4626.8792     -4661.5934      34.714191      6642.635       276.58154      8158.4331      1.1880404      0.90655322   
   2186700  -4626.5601     -4661.2284      34.668365      4406.5965      276.21642      8162.8855      1.1873924      0.90655322   
   2186800  -4624.173      -4659.3675      35.194545      5234.7363      280.40871      8153.9404      1.188695       0.90655322   
   2186900  -4623.3859     -4660.0807      36.69476       6216.4592      292.3615       8139.7944      1.1907608      0.90655322   
   2187000  -4624.2097     -4659.9875      35.777736      3155.8657      285.05521      8123.2035      1.1931929      0.72296042   
   2187100  -4624.8325     -4659.7085      34.875968      6412.1031      277.87047      8096.9175      1.1970665      0.72296042   
   2187200  -4624.1365     -4659.1064      34.96987       7338.9766      278.61863      8064.9928      1.201805       0.72296042   
   2187300  -4623.2309     -4659.035       35.804082      8006.304       285.26512      8038.6972      1.2057362      0.72296042   
   2187400  -4622.271      -4659.6908      37.419744      5221.8237      298.13773      8028.4389      1.2072769      0.72296042   
   2187500  -4624.2715     -4658.8521      34.580677      7091.2007      275.51777      8041.833       1.2052661      0.72296042   
   2187600  -4625.5101     -4661.02        35.509896      6613.4481      282.92123      8076.7511      1.2000553      0.72296042   
   2187700  -4624.7093     -4660.6179      35.908671      6269.5599      286.09843      8117.3772      1.1940493      0.72296042   
   2187800  -4625.7499     -4660.3152      34.565389      1343.4031      275.39597      8148.4286      1.1894991      0.72296042   
   2187900  -4625.5233     -4660.2825      34.759134      2757.396       276.93961      8159.8173      1.1878389      0.72296042   
   2188000  -4625.5663     -4660.0401      34.473723      2254.1493      274.66563      8152.9138      1.1888447      0.66719437   
   2188100  -4625.9567     -4660.9104      34.953702      3541.1126      278.48981      8134.7873      1.1914938      0.66719437   
   2188200  -4626.3592     -4660.5979      34.238668      6131.4571      272.79285      8114.2123      1.194515       0.66719437   
   2188300  -4627.3178     -4661.9934      34.675693      3604.0762      276.2748       8094.4915      1.1974252      0.66719437   
   2188400  -4627.4661     -4662.478       35.011917      4377.1597      278.95364      8074.8934      1.2003314      0.66719437   
   2188500  -4626.8177     -4661.1371      34.319489      4945.7035      273.43679      8055.1868      1.203268       0.66719437   
   2188600  -4626.7108     -4661.2084      34.497631      6859.2645      274.85611      8042.2806      1.205199       0.66719437   
   2188700  -4625.7901     -4660.7584      34.968368      6722.6564      278.60666      8041.7412      1.2052798      0.66719437   
   2188800  -4627.2079     -4662.3196      35.111661      6592.823       279.74833      8058.7255      1.2027396      0.66719437   
   2188900  -4626.8661     -4660.4987      33.632611      5814.6889      267.96416      8086.6284      1.1985896      0.66719437   
   2189000  -4625.9504     -4660.3641      34.413707      6569.4076      274.18746      8114.5326      1.1944679      0.81755833   
   2189100  -4626.7375     -4660.8555      34.118002      759.45886      271.83146      8140.1694      1.190706       0.81755833   
   2189200  -4626.5938     -4661.5909      34.997043      4323.2978      278.83512      8160.8287      1.1876917      0.81755833   
   2189300  -4625.6335     -4661.1538      35.520304      5636.5598      283.00415      8171.9053      1.1860818      0.81755833   
   2189400  -4625.9196     -4661.5028      35.583247      4942.4012      283.50565      8178.9668      1.1850578      0.81755833   
   2189500  -4626.3333     -4661.1296      34.796334      2654.0941      277.236        8171.6735      1.1861155      0.81755833   
   2189600  -4626.0164     -4660.4931      34.476721      3955.6977      274.68952      8149.1784      1.1893896      0.81755833   
   2189700  -4624.2801     -4659.9495      35.669335      3639.0693      284.19154      8119.409       1.1937505      0.81755833   
   2189800  -4623.4401     -4659.7706      36.330479      4028.7539      289.45913      8084.1673      1.1989545      0.81755833   
   2189900  -4625.1689     -4660.921       35.752162      5936.2586      284.85145      8053.8988      1.2034604      0.81755833   
   2190000  -4624.3409     -4659.3189      34.977989      4442.8764      278.68332      8037.8916      1.2058571      0.72701567   
   2190100  -4623.8532     -4659.6416      35.788355      6788.6759      285.13982      8042.9042      1.2051055      0.72701567   
   2190200  -4624.5313     -4659.1744      34.643139      2299.3201      276.01544      8064.3796      1.2018964      0.72701567   
   2190300  -4626.8212     -4660.0567      33.235505      1893.1152      264.80027      8093.9923      1.1974991      0.72701567   
   2190400  -4627.966      -4662.442       34.475952      1802.7906      274.68339      8125.7171      1.1928238      0.72701567   
   2190500  -4628.8428     -4661.72        32.877244      5249.6732      261.94586      8150.7112      1.189166       0.72701567   
   2190600  -4628.4302     -4662.5098      34.079569      3678.2504      271.52525      8163.1885      1.1873483      0.72701567   
   2190700  -4627.3993     -4661.366       33.966694      1823.7891      270.62593      8162.5071      1.1874475      0.72701567   
   2190800  -4626.1771     -4661.776       35.598914      2958.9108      283.63047      8149.8899      1.1892858      0.72701567   
   2190900  -4626.0797     -4660.2277      34.148029      9162.3846      272.0707       8130.288       1.1921532      0.72701567   
   2191000  -4625.2193     -4660.4612      35.241929      665.66842      280.78623      8106.5184      1.1956487      0.82022334   
   2191100  -4625.7906     -4659.1197      33.329079      6011.8994      265.5458       8078.694       1.1997667      0.82022334   
   2191200  -4624.943      -4661.1255      36.182496      7877.7802      288.28009      8056.7627      1.2030326      0.82022334   
   2191300  -4624.7942     -4660.1977      35.403505      7472.1748      282.07357      8049.1165      1.2041754      0.82022334   
   2191400  -4625.1099     -4659.8787      34.768767      4429.601       277.01636      8059.0654      1.2026889      0.82022334   
   2191500  -4624.6444     -4659.3695      34.725122      6669.5848      276.66862      8080.1026      1.1995576      0.82022334   
   2191600  -4625.1554     -4660.1183      34.962879      4217.8945      278.56292      8104.0879      1.1960073      0.82022334   
   2191700  -4625.2662     -4661.8958      36.629653      4895.8117      291.84276      8130.9151      1.1920612      0.82022334   
   2191800  -4625.2313     -4660.4579      35.226634      4200.9872      280.66437      8156.7351      1.1882878      0.82022334   
   2191900  -4626.1663     -4660.5959      34.42954       2794.2009      274.31361      8182.3776      1.1845638      0.82022334   
   2192000  -4625.9771     -4660.8184      34.841297      5393.038       277.59424      8200.1322      1.181999       0.74478178   
   2192100  -4626.3799     -4661.1838      34.803969      4353.8715      277.29683      8205.4174      1.1812377      0.74478178   
   2192200  -4625.7776     -4662.2815      36.503957      311.90572      290.8413       8193.5828      1.1829439      0.74478178   
   2192300  -4625.7114     -4659.666       33.954683      7169.5569      270.53023      8167.1323      1.186775       0.74478178   
   2192400  -4626.8018     -4660.9729      34.171065      5959.4157      272.25424      8129.0125      1.1923402      0.74478178   
   2192500  -4625.9457     -4662.1106      36.164958      2731.2549      288.14036      8078.674       1.1997697      0.74478178   
   2192600  -4626.3533     -4660.8639      34.510593      5312.6813      274.95939      8024.3904      1.2078859      0.74478178   
   2192700  -4625.1744     -4661.5223      36.347836      2808.1121      289.59742      7980.4527      1.2145362      0.74478178   
   2192800  -4625.4916     -4659.1163      33.624682      6694.0987      267.90099      7963.5295      1.2171172      0.74478178   
   2192900  -4625.4131     -4660.451       35.037891      4526.1462      279.16058      7979.3813      1.2146992      0.74478178   
   2193000  -4625.5644     -4659.3375      33.773042      4137.6331      269.08303      8024.6946      1.2078402      0.72849573   
   2193100  -4625.6759     -4660.6984      35.022507      4451.3202      279.03801      8091.4687      1.1978726      0.72849573   
   2193200  -4626.2265     -4661.0155      34.788974      4028.766       277.17736      8162.6289      1.1874297      0.72849573   
   2193300  -4625.0214     -4660.415       35.393585      3036.193       281.99453      8224.0438      1.1785624      0.72849573   
   2193400  -4625.9549     -4660.3528      34.397847      4637.3797      274.0611       8256.5195      1.1739267      0.72849573   
   2193500  -4624.8439     -4660.8007      35.956756      4995.7175      286.48154      8256.9514      1.1738653      0.72849573   
   2193600  -4626.7267     -4661.8934      35.166746      2928.5205      280.18722      8233.9948      1.177138       0.72849573   
   2193700  -4626.409      -4661.1474      34.738392      3167.345       276.77435      8190.1413      1.1834409      0.72849573   
   2193800  -4627.4723     -4662.4405      34.968234      4142.6749      278.60559      8128.1643      1.1924646      0.72849573   
   2193900  -4626.6612     -4661.4073      34.746109      8264.4669      276.83583      8061.6859      1.2022979      0.72849573   
   2194000  -4625.6092     -4660.4465      34.837325      6491.1466      277.56259      8008.7152      1.2102501      0.77451658   
   2194100  -4624.0279     -4660.2008      36.172923      5359.2322      288.20382      7981.3531      1.2143991      0.77451658   
   2194200  -4624.3063     -4660.3797      36.073406      11756.504      287.41093      7986.7733      1.213575       0.77451658   
   2194300  -4625.167      -4660.8371      35.670128      5319.7869      284.19785      8022.6317      1.2081507      0.77451658   
   2194400  -4625.3951     -4660.7822      35.387014      4508.1811      281.94217      8077.6626      1.1999199      0.77451658   
   2194500  -4624.1025     -4659.8808      35.77831       2178.3924      285.05978      8135.7434      1.1913538      0.77451658   
   2194600  -4625.6599     -4661.0793      35.419422      1744.1324      282.20039      8186.8413      1.183918       0.77451658   
   2194700  -4627.1454     -4661.6628      34.517437      6604.0064      275.01391      8221.5345      1.1789221      0.77451658   
   2194800  -4625.8232     -4660.2936      34.470394      7178.1652      274.63911      8234.7855      1.177025       0.77451658   
   2194900  -4626.468      -4660.7765      34.308442      3442.3998      273.34878      8226.4591      1.1782163      0.77451658   
   2195000  -4626.8951     -4661.5532      34.658103      5879.0072      276.13466      8201.249       1.1818381      0.68830102   
   2195100  -4626.148      -4660.2379      34.089936      6289.4585      271.60785      8165.3867      1.1870287      0.68830102   
   2195200  -4626.0079     -4661.1001      35.092221      6885.1437      279.59345      8124.4743      1.1930062      0.68830102   
   2195300  -4626.0456     -4660.9743      34.928615      4508.0188      278.28993      8087.3909      1.1984766      0.68830102   
   2195400  -4624.6738     -4659.936       35.262162      4723.2057      280.94744      8054.978       1.2032992      0.68830102   
   2195500  -4623.5479     -4659.1237      35.575795      4987.3058      283.44627      8031.008       1.2068906      0.68830102   
   2195600  -4625.726      -4661.5244      35.798481      1425.1594      285.22049      8018.5083      1.208772       0.68830102   
   2195700  -4625.477      -4661.3293      35.8523        9821.998       285.6493       8016.0829      1.2091377      0.68830102   
   2195800  -4625.8198     -4660.8174      34.997651      5595.236       278.83997      8029.3681      1.2071371      0.68830102   
   2195900  -4624.8873     -4660.6128      35.725507      6998.5723      284.63908      8065.1648      1.2017793      0.68830102   
   2196000  -4626.3155     -4660.8971      34.581634      4252.4465      275.5254       8116.0399      1.194246       0.67823211   
   2196100  -4627.1588     -4661.2095      34.050662      6502.5441      271.29494      8164.7901      1.1871154      0.67823211   
   2196200  -4625.7141     -4661.8047      36.090587      5383.1713      287.54782      8196.118       1.1825779      0.67823211   
   2196300  -4625.9167     -4662.1051      36.18839       2964.0659      288.32706      8206.7382      1.1810476      0.67823211   
   2196400  -4625.5252     -4659.6347      34.10953       3412.0729      271.76396      8195.4243      1.1826781      0.67823211   
   2196500  -4624.7472     -4659.0901      34.342907      3173.3706      273.62337      8166.2596      1.1869018      0.67823211   
   2196600  -4623.6188     -4659.9703      36.351468      6851.8179      289.62636      8127.6603      1.1925386      0.67823211   
   2196700  -4624.1698     -4661.0839      36.914036      6967.3607      294.10856      8083.2364      1.1990925      0.67823211   
   2196800  -4624.8263     -4659.5796      34.753245      8868.6305      276.8927       8047.7605      1.2043783      0.67823211   
   2196900  -4624.7683     -4660.5626      35.794237      4962.7381      285.18668      8036.3103      1.2060944      0.67823211   
   2197000  -4624.7826     -4660.0468      35.264186      5459.7878      280.96356      8043.3156      1.2050439      0.70691938   
   2197100  -4624.5328     -4661.5203      36.987533      6145.1917      294.69414      8067.7469      1.2013947      0.70691938   
   2197200  -4624.9954     -4660.9355      35.940104      3630.928       286.34886      8104.1572      1.1959971      0.70691938   
   2197300  -4624.9328     -4659.6194      34.686566      4127.9481      276.36143      8141.4056      1.1905252      0.70691938   
   2197400  -4625.8819     -4660.3519      34.469956      4237.755       274.63562      8167.2568      1.1867569      0.70691938   
   2197500  -4626.867      -4660.9075      34.040512      4104.8804      271.21407      8173.4419      1.1858589      0.70691938   
   2197600  -4625.9757     -4660.9196      34.943886      7272.9479      278.41161      8164.026       1.1872265      0.70691938   
   2197700  -4625.1286     -4659.893       34.764412      4857.6022      276.98166      8143.8348      1.1901701      0.70691938   
   2197800  -4624.9515     -4661.691       36.739503      5731.7439      292.71799      8122.0993      1.1933551      0.70691938   
   2197900  -4624.0723     -4660.3529      36.280529      5025.3817      289.06116      8099.7854      1.1966426      0.70691938   
   2198000  -4625.2185     -4660.3016      35.083063      5502.0804      279.52048      8084.0769      1.1989679      0.72238893   
   2198100  -4624.6294     -4659.2761      34.646639      3646.8056      276.04332      8075.3219      1.2002677      0.72238893   
   2198200  -4626.0984     -4660.6669      34.568554      2610.6313      275.42119      8070.6747      1.2009589      0.72238893   
   2198300  -4627.3281     -4661.7417      34.413615      5962.0195      274.18673      8073.2276      1.2005791      0.72238893   
   2198400  -4626.3877     -4660.4857      34.098013      6241.9343      271.6722       8086.891       1.1985506      0.72238893   
   2198500  -4625.2155     -4659.9033      34.687824      5623.2462      276.37146      8102.9893      1.1961695      0.72238893   
   2198600  -4624.7662     -4659.7414      34.975244      3885.2652      278.66144      8114.0841      1.1945339      0.72238893   
   2198700  -4625.5932     -4661.7409      36.147666      5620.582       288.00259      8121.1492      1.1934947      0.72238893   
   2198800  -4624.398      -4660.4461      36.048096      5321.3861      287.20927      8124.9234      1.1929403      0.72238893   
   2198900  -4624.6941     -4660.4269      35.732838      8985.4484      284.69749      8127.33        1.192587       0.72238893   
   2199000  -4624.2573     -4659.1387      34.881358      8390.115       277.91342      8127.4558      1.1925686      0.79180893   
   2199100  -4624.1579     -4659.7026      35.544691      5581.2513      283.19845      8130.6878      1.1920945      0.79180893   
   2199200  -4624.7008     -4659.5401      34.839287      4244.6187      277.57822      8135.4789      1.1913925      0.79180893   
   2199300  -4625.3486     -4660.4414      35.092778      3251.3482      279.59788      8140.953       1.1905914      0.79180893   
   2199400  -4624.3939     -4660.7648      36.370969      5450.1912      289.78173      8150.2921      1.1892271      0.79180893   
   2199500  -4624.0006     -4659.6178      35.617162      5624.2594      283.77585      8155.0284      1.1885364      0.79180893   
   2199600  -4624.6374     -4659.9879      35.350487      4296.3708      281.65116      8151.331       1.1890755      0.79180893   
   2199700  -4624.0573     -4658.268       34.210624      4264.6163      272.56942      8135.0231      1.1914592      0.79180893   
   2199800  -4624.7434     -4660.2266      35.483166      5764.7924      282.70825      8115.1377      1.1943788      0.79180893   
   2199900  -4624.0234     -4659.645       35.621577      6353.3804      283.81104      8093.5548      1.1975638      0.79180893   
   2200000  -4625.0976     -4660.7401      35.642552      6849.5275      283.97815      8078.1726      1.1998442      0.75883248   
   2200100  -4626.6702     -4660.1132      33.442987      5629.0085      266.45335      8072.3228      1.2007137      0.75883248   
   2200200  -4626.7591     -4660.0393      33.280189      5068.047       265.15628      8074.2834      1.2004221      0.75883248   
   2200300  -4625.7744     -4659.9311      34.156677      4922.3897      272.1396       8082.957       1.199134       0.75883248   
   2200344  -4625.016      -4659.5733      34.557289      5660.4882      275.33144      8089.1955      1.1982092      0.75883248   
Loop time of 6757.39 on 1 procs for 2000000 steps with 972 atoms

Performance: 12.786 ns/day, 1.877 hours/ns, 295.972 timesteps/s, 287.685 katom-step/s
99.8% CPU use with 1 MPI tasks x 1 OpenMP threads

MPI task timing breakdown:
Section |  min time  |  avg time  |  max time  |%varavg| %total
---------------------------------------------------------------
Pair    | 4787.7     | 4787.7     | 4787.7     |   0.0 | 70.85
Neigh   | 67.589     | 67.589     | 67.589     |   0.0 |  1.00
Comm    | 87.806     | 87.806     | 87.806     |   0.0 |  1.30
Output  | 4.5724     | 4.5724     | 4.5724     |   0.0 |  0.07
Modify  | 1763.2     | 1763.2     | 1763.2     |   0.0 | 26.09
Other   |            | 46.47      |            |       |  0.69

Nlocal:            972 ave         972 max         972 min
Histogram: 1 0 0 0 0 0 0 0 0 0
Nghost:           3381 ave        3381 max        3381 min
Histogram: 1 0 0 0 0 0 0 0 0 0
Neighs:              0 ave           0 max           0 min
Histogram: 1 0 0 0 0 0 0 0 0 0
FullNghs:       131544 ave      131544 max      131544 min
Histogram: 1 0 0 0 0 0 0 0 0 0

Total # of neighbors = 131544
Ave neighs/atom = 135.33333
Neighbor list builds = 199010
Dangerous builds = 194060

unfix		3
unfix		4
Total wall time: 2:03:58
