LAMMPS (27 Jun 2024)
KOKKOS mode with Kokkos version 4.3.1 is enabled (src/KOKKOS/kokkos.cpp:72)
  will use up to 1 GPU(s) per node
WARNING: When using a single thread, the Kokkos Serial backend (i.e. Makefile.kokkos_mpi_only) gives better performance than the OpenMP backend (src/KOKKOS/kokkos.cpp:202)
  using 1 OpenMP thread(s) per MPI task
Reading data file ...
  triclinic box = (0 0 0) to (23.34 21.468634 16.394175) with tilt (-9.157148 -9.15715 7.607424)
WARNING: Triclinic box skew is large. LAMMPS will run inefficiently. (src/domain.cpp:221)
  1 by 1 by 1 MPI processor grid
  reading atoms ...
  972 atoms
  read_data CPU = 0.015 seconds
ACE/AL version: 2023.11.25
Loading /pc2/users/a/acepdw01/work/phase_diagram/pot_dir/interim_potential_ladder_step_1.yaml
Total number of basis functions
	H: 23 (r=1) 664 (r>1)
	O: 23 (r=1) 664 (r>1)
Mapping LAMMPS atom type #1(H) -> ACE species type #0
Mapping LAMMPS atom type #2(O) -> ACE species type #1
Loading ASI /pc2/users/a/acepdw01/work/phase_diagram/pot_dir/interim_potential_ladder_step_1.asi
LINEAR ASI is loaded

CITE-CITE-CITE-CITE-CITE-CITE-CITE-CITE-CITE-CITE-CITE-CITE-CITE

Your simulation uses code contributions which should be cited:
- Type Label Framework: https://doi.org/10.1021/acs.jpcb.3c08419
The log file lists these citations in BibTeX format.

CITE-CITE-CITE-CITE-CITE-CITE-CITE-CITE-CITE-CITE-CITE-CITE-CITE

Switching to 'neigh_modify every 1 delay 0 check yes' setting during minimization
Neighbor list info ...
  update: every = 1 steps, delay = 0 steps, check = yes
  max neighbors/atom: 2000, page size: 100000
  master list distance cutoff = 6.5
  ghost atom cutoff = 6.5
  binsize = 6.5, bins = 7 5 3
  1 neighbor lists, perpetual/occasional/extra = 1 0 0
  (1) pair pace/extrapolation/kk, perpetual
      attributes: full, newton on, kokkos_device
      pair build: full/bin/kk/device
      stencil: full/bin/3d
      bin: kk/device
Setting up cg/kk style minimization ...
  Unit style    : metal
  Current step  : 0
WARNING: Fix with atom-based arrays not compatible with sending data in Kokkos communication, switching to classic exchange/border communication (src/KOKKOS/comm_kokkos.cpp:754)
WARNING: Fix with atom-based arrays not compatible with Kokkos sorting on device, switching to classic host sorting (src/KOKKOS/atom_kokkos.cpp:216)
Per MPI rank memory allocation (min/avg/max) = 777.8 | 777.8 | 777.8 Mbytes
   Step         TotEng         PotEng         KinEng         Press           Temp          Volume        Density     c_max_pace_gamma
         0  -4629.8845     -4629.8845      0              19281.688      0              8214.7591      1.1798944      7.700355     
       100  -4698.3625     -4698.3625      0             -7998.344       0              8214.7591      1.1798944      7.700355     
       200  -4698.384      -4698.384       0             -8095.8802      0              8214.7591      1.1798944      7.700355     
       211  -4698.384      -4698.384       0             -8095.9653      0              8214.7591      1.1798944      7.700355     
Loop time of 1.12145 on 1 procs for 211 steps with 972 atoms

99.0% CPU use with 1 MPI tasks x 1 OpenMP threads

Minimization stats:
  Stopping criterion = force tolerance
  Energy initial, next-to-last, final = 
     -4629.88450587203  -4698.38398317787  -4698.38398318376
  Force two-norm initial, final = 81.896981 0.00036013335
  Force max component initial, final = 12.801874 1.9928815e-05
  Final line search alpha, max atom move = 1 1.9928815e-05
  Iterations, force evaluations = 211 419

MPI task timing breakdown:
Section |  min time  |  avg time  |  max time  |%varavg| %total
---------------------------------------------------------------
Pair    | 0.95614    | 0.95614    | 0.95614    |   0.0 | 85.26
Neigh   | 0.0023372  | 0.0023372  | 0.0023372  |   0.0 |  0.21
Comm    | 0.012069   | 0.012069   | 0.012069   |   0.0 |  1.08
Output  | 0.00025162 | 0.00025162 | 0.00025162 |   0.0 |  0.02
Modify  | 0.089412   | 0.089412   | 0.089412   |   0.0 |  7.97
Other   |            | 0.06125    |            |       |  5.46

Nlocal:            972 ave         972 max         972 min
Histogram: 1 0 0 0 0 0 0 0 0 0
Nghost:           3683 ave        3683 max        3683 min
Histogram: 1 0 0 0 0 0 0 0 0 0
Neighs:              0 ave           0 max           0 min
Histogram: 1 0 0 0 0 0 0 0 0 0
FullNghs:       131994 ave      131994 max      131994 min
Histogram: 1 0 0 0 0 0 0 0 0 0

Total # of neighbors = 131994
Ave neighs/atom = 135.7963
Neighbor list builds = 6
Dangerous builds = 0
Setting up Verlet run ...
  Unit style    : metal
  Current step  : 211
  Time step     : 0.0005
WARNING: Fix with atom-based arrays not compatible with Kokkos sorting on device, switching to classic host sorting (src/KOKKOS/atom_kokkos.cpp:216)
Per MPI rank memory allocation (min/avg/max) = 779.6 | 779.6 | 779.6 Mbytes
   Step         TotEng         PotEng         KinEng         Press           Temp          Volume        Density     c_max_pace_gamma
       211  -4664.4959     -4698.384       33.888132     -3689.6872      270            8214.7591      1.1798944      7.700355     
       300  -4657.8628     -4673.9459      16.083098     -6121.9623      128.14033      8167.6969      1.186693       7.700355     
       400  -4651.6415     -4673.5354      21.893864      1021.976       174.43698      8046.4369      1.2045765      7.700355     
       500  -4646.1405     -4671.7023      25.561861      5778.6305      203.66134      7902.6501      1.2264934      7.700355     
       600  -4643.4688     -4671.4131      27.944252      10123.768      222.64278      7793.3018      1.2437024      7.700355     
       700  -4640.3575     -4668.8286      28.471079      13571.73       226.84022      7742.9738      1.2517863      7.700355     
       800  -4638.8609     -4668.2573      29.39643       8257.9003      234.21285      7753.7577      1.2500453      7.700355     
       900  -4637.6694     -4668.6799      31.010525      7309.5462      247.07298      7813.0486      1.2405591      7.700355     
      1000  -4636.8859     -4668.5381      31.652173      6226.8003      252.18523      7899.3206      1.2270104      0.63606458   
      1100  -4636.5267     -4668.6363      32.109524      4760.3295      255.82913      7986.3716      1.213636       0.63606458   
      1200  -4634.8501     -4666.6857      31.835554      4855.5342      253.64631      8053.2904      1.2035513      0.63606458   
      1300  -4633.7254     -4664.7         30.974563      2179.5247      246.78646      8092.1685      1.197769       0.63606458   
      1400  -4633.1585     -4665.0523      31.893798      5918.0518      254.11036      8100.5073      1.196536       0.63606458   
      1500  -4632.3738     -4664.9222      32.54834       2731.0206      259.32535      8082.7455      1.1991654      0.63606458   
      1600  -4631.5457     -4665.2757      33.730013      5870.155       268.7402       8047.4706      1.2044217      0.63606458   
      1700  -4631.2896     -4664.9092      33.619633      7962.4022      267.86076      8008.3436      1.2103063      0.63606458   
      1800  -4631.7352     -4665.2282      33.493003      8777.2558      266.85185      7976.8246      1.2150886      0.63606458   
      1900  -4632.3304     -4665.6331      33.302737      5651.6566      265.33593      7955.5541      1.2183373      0.63606458   
      2000  -4631.7516     -4665.7979      34.046336      7705.07        271.26047      7945.1636      1.2199306      0.69102765   
      2100  -4631.1031     -4663.5384      32.435318      7202.3752      258.42486      7950.3801      1.2191302      0.69102765   
      2200  -4630.3659     -4664.3869      34.020997      5365.572       271.05859      7971.8262      1.2158504      0.69102765   
      2300  -4630.2947     -4663.2159      32.921136      6360.9138      262.29557      8000.6073      1.2114766      0.69102765   
      2400  -4629.6119     -4664.3777      34.765735      5169.1895      276.9922       8032.9164      1.2066039      0.69102765   
      2500  -4628.9921     -4664.4562      35.464144      4235.9234      282.5567       8063.6841      1.202          0.69102765   
      2600  -4629.4616     -4663.9161      34.454444      4664.1974      274.51203      8081.9926      1.1992771      0.69102765   
      2700  -4629.1864     -4663.4051      34.218673      5083.8457      272.63355      8082.7511      1.1991645      0.69102765   
      2800  -4630.0287     -4663.752       33.723298      4556.087       268.6867       8067.8214      1.2013836      0.69102765   
      2900  -4629.813      -4664.1059      34.292898      1735.3466      273.22493      8040.9129      1.205404       0.69102765   
      3000  -4629.7813     -4663.9239      34.142588      5900.7697      272.02735      8010.6464      1.2099583      0.64524403   
      3100  -4628.8243     -4662.7845      33.960188      7414.0516      270.5741       7984.9458      1.2138527      0.64524403   
      3200  -4628.2691     -4662.8582      34.589097      3461.0951      275.58486      7969.9522      1.2161363      0.64524403   
      3300  -4628.251      -4662.0525      33.801519      1395.0869      269.30992      7967.9176      1.2164469      0.64524403   
      3400  -4628.419      -4662.7727      34.35364       8681.9306      273.70888      7980.5873      1.2145157      0.64524403   
      3500  -4629.1931     -4663.0281      33.835012      6250.3296      269.57677      8004.6904      1.2108586      0.64524403   
      3600  -4628.9528     -4663.7968      34.84393       7443.7506      277.61521      8034.0507      1.2064336      0.64524403   
      3700  -4628.1777     -4663.1297      34.951957      3820.0607      278.47591      8063.4512      1.2020347      0.64524403   
      3800  -4628.3143     -4663.0219      34.707641      1693.9108      276.52935      8087.2295      1.1985005      0.64524403   
      3900  -4629.4353     -4663.2539      33.818611      6525.8197      269.4461       8095.9368      1.1972115      0.64524403   
      4000  -4630.7524     -4665.1116      34.35921       4974.4341      273.75326      8088.2207      1.1983536      0.64233995   
      4100  -4630.1556     -4663.6929      33.53727       6973.979       267.20454      8061.9119      1.2022642      0.64233995   
      4200  -4629.8179     -4663.5264      33.708515      8502.7246      268.56892      8026.2371      1.207608       0.64233995   
      4300  -4629.3125     -4663.3879      34.075416      7908.3249      271.49217      7993.1528      1.2126064      0.64233995   
      4400  -4628.5298     -4663.5074      34.97764       4871.6392      278.68053      7971.3439      1.215924       0.64233995   
      4500  -4628.0436     -4662.4462      34.402549      5203.9227      274.09856      7963.7072      1.21709        0.64233995   
      4600  -4629.535      -4662.9837      33.448729      3925.4024      266.49911      7975.7346      1.2152546      0.64233995   
      4700  -4631.1352     -4663.5831      32.447915      4553.9934      258.52523      8004.5438      1.2108808      0.64233995   
      4800  -4630.6387     -4663.7255      33.086831      5982.264       263.61572      8044.9138      1.2048045      0.64233995   
      4900  -4631.1615     -4664.9303      33.76879       4124.5981      269.04915      8083.6233      1.1990351      0.64233995   
      5000  -4631.3454     -4663.2258      31.880418      4985.9851      254.00376      8108.655       1.1953337      0.71571409   
      5100  -4631.9078     -4664.9981      33.090237      2019.4974      263.64286      8113.052       1.1946859      0.71571409   
      5200  -4631.7819     -4665.2608      33.478933      5169.2165      266.73975      8088.125       1.1983678      0.71571409   
      5300  -4630.479      -4665.1747      34.695775      2284.7975      276.4348       8043.4849      1.2050185      0.71571409   
      5400  -4630.7345     -4664.1691      33.434572      4699.4849      266.38631      7989.7738      1.2131193      0.71571409   
      5500  -4630.6154     -4664.1002      33.484815      3213.3162      266.78662      7942.8714      1.2202827      0.71571409   
      5600  -4629.8546     -4664.1888      34.334144      3825.4189      273.55355      7911.9601      1.2250502      0.71571409   
      5700  -4630.4516     -4663.5057      33.054094      7548.8555      263.35489      7905.3854      1.2260691      0.71571409   
      5800  -4629.8171     -4664.1766      34.359447      8304.5046      273.75515      7924.9842      1.2230369      0.71571409   
      5900  -4629.9341     -4664.7372      34.803058      7143.5308      277.28957      7966.3484      1.2166865      0.71571409   
      6000  -4630.0879     -4664.979       34.891108      3002.8473      277.9911       8017.9773      1.2088521      0.66245928   
      6100  -4631.3632     -4664.3784      33.015112      2357.2664      263.0443       8065.8209      1.2016816      0.66245928   
      6200  -4631.7542     -4665.0528      33.298653      3605.4756      265.30339      8093.8957      1.1975134      0.66245928   
      6300  -4631.7363     -4666.2099      34.473621      2961.9639      274.66482      8091.751       1.1978308      0.66245928   
      6400  -4631.0755     -4664.7207      33.645158      2315.4368      268.06413      8060.2465      1.2025126      0.66245928   
      6500  -4631.4966     -4664.4873      32.990709      1788.9398      262.84988      8010.4486      1.2099882      0.66245928   
      6600  -4630.7405     -4663.8415      33.100939      6460.1069      263.72812      7959.6537      1.2177098      0.66245928   
      6700  -4630.4204     -4663.4464      33.026008      7877.4977      263.13112      7920.4972      1.2237298      0.66245928   
      6800  -4631.6498     -4665.892       34.242217      6447.8276      272.82113      7902.6534      1.2264929      0.66245928   
      6900  -4631.4058     -4664.7935      33.387663      11542.769      266.01256      7911.0428      1.2251923      0.66245928   
      7000  -4631.7635     -4664.5136      32.750163      4549.8124      260.93335      7945.2734      1.2199138      0.63203514   
      7100  -4631.6532     -4664.4468      32.79353       3364.7206      261.27887      7991.9077      1.2127953      0.63203514   
      7200  -4631.4812     -4664.6917      33.210516      5675.7064      264.60117      8034.8956      1.2063067      0.63203514   
      7300  -4631.0944     -4664.5585      33.464024      5591.467       266.62096      8062.1718      1.2022255      0.63203514   
      7400  -4631.2474     -4663.9168      32.669327      2955.8128      260.2893       8071.2726      1.2008699      0.63203514   
      7500  -4631.7163     -4664.4594      32.743077      187.81388      260.8769       8062.1092      1.2022348      0.63203514   
      7600  -4632.1157     -4665.2441      33.128434      4744.9336      263.94719      8040.4681      1.2054707      0.63203514   
      7700  -4631.3261     -4666.2017      34.875538      2964.4367      277.86705      8012.855       1.2096248      0.63203514   
      7800  -4631.1476     -4663.513       32.365341      6162.0771      257.86733      7981.5837      1.2143641      0.63203514   
      7900  -4632.74       -4666.2155      33.475569      4509.5233      266.71295      7952.9572      1.2187351      0.63203514   
      8000  -4631.5073     -4664.7398      33.232508      5097.0105      264.77638      7930.4164      1.2221992      0.68870283   
      8100  -4633.3556     -4664.6748      31.319229      3258.9008      249.53255      7922.694       1.2233905      0.68870283   
      8200  -4632.7441     -4664.2257      31.481681      3435.1851      250.82686      7931.535       1.2220268      0.68870283   
      8300  -4632.8945     -4665.2833      32.388741      1258.1554      258.05376      7950.3986      1.2191274      0.68870283   
      8400  -4633.8339     -4666.553       32.719156      3787.7262      260.68631      7973.6969      1.2155652      0.68870283   
      8500  -4635.0234     -4666.5062      31.482829      4957.0944      250.83601      7994.3131      1.2124304      0.68870283   
      8600  -4633.9735     -4666.6175      32.644091      6399.4814      260.08824      8006.0986      1.2106456      0.68870283   
      8700  -4632.4431     -4665.3053      32.862257      5042.5071      261.82645      8011.149       1.2098824      0.68870283   
      8800  -4631.5244     -4664.8284      33.30403       3916.6953      265.34623      8011.8042      1.2097835      0.68870283   
      8900  -4631.1602     -4664.8933      33.733038      3304.0345      268.76431      8008.1662      1.2103331      0.68870283   
      9000  -4631.0812     -4665.7999      34.71876       2709.2726      276.61793      8001.4445      1.2113498      0.6744835    
      9100  -4629.1057     -4663.3378      34.232084      5343.801       272.74039      7993.1759      1.2126029      0.6744835    
      9200  -4629.4099     -4663.9031      34.493174      3653.0654      274.82061      7987.5744      1.2134533      0.6744835    
      9300  -4629.1944     -4662.8541      33.659662      8862.7105      268.17968      7982.9448      1.214157       0.6744835    
      9400  -4630.3594     -4664.966       34.606587      5361.5464      275.72421      7985.8239      1.2137193      0.6744835    
      9500  -4632.4741     -4665.1501      32.675942      6045.3638      260.34201      7993.4468      1.2125618      0.6744835    
      9600  -4631.3754     -4664.801       33.425573      4413.1303      266.31461      8000.131       1.2115487      0.6744835    
      9700  -4630.7457     -4665.0755      34.329796      87.678521      273.51891      8006.821       1.2105364      0.6744835    
      9800  -4630.3228     -4664.6667      34.34391       2631.9898      273.63136      8012.0196      1.209751       0.6744835    
      9900  -4631.7832     -4664.7393      32.956078      6422.2707      262.57396      8012.031       1.2097492      0.6744835    
     10000  -4631.1248     -4665.2784      34.153562      3118.4126      272.11479      8008.3722      1.2103019      0.71301658   
     10100  -4630.5282     -4664.3896      33.861449      5875.1249      269.78741      8001.2678      1.2113766      0.71301658   
     10200  -4630.4444     -4664.572       34.127583      6852.1534      271.9078       7993.2848      1.2125864      0.71301658   
     10300  -4631.4768     -4664.6444      33.167628      4376.2708      264.25946      7979.5465      1.2146741      0.71301658   
     10400  -4630.7529     -4665.1239      34.371001      4013.4429      273.84721      7963.0414      1.2171918      0.71301658   
     10500  -4630.7203     -4665.1055      34.385195      3292.0276      273.96029      7949.5792      1.219253       0.71301658   
     10600  -4631.6526     -4665.8512      34.198545      6375.6364      272.47318      7948.5469      1.2194114      0.71301658   
     10700  -4629.8791     -4664.4627      34.583567      8348.048       275.5408       7961.6617      1.2174027      0.71301658   
     10800  -4630.1309     -4664.7205      34.589676      5987.5293      275.58948      7982.8101      1.2141775      0.71301658   
     10900  -4630.4686     -4665.0438      34.575274      1360.3358      275.47473      8009.4538      1.2101385      0.71301658   
     11000  -4630.9397     -4663.8359      32.896214      2194.9146      262.097        8029.0347      1.2071873      0.67973471   
     11100  -4630.8626     -4664.3764      33.513884      2839.0097      267.01821      8036.58        1.2060539      0.67973471   
     11200  -4631.4914     -4664.2923      32.800872      5169.0353      261.33738      8032.6826      1.206639       0.67973471   
     11300  -4629.9524     -4663.3519      33.399558      4152.7636      266.10733      8018.4144      1.2087862      0.67973471   
     11400  -4629.9781     -4664.7819      34.803849      2120.0533      277.29587      8003.3955      1.2110545      0.67973471   
     11500  -4629.4165     -4662.4956      33.079032      4250.0265      263.55358      7991.3455      1.2128807      0.67973471   
     11600  -4628.4999     -4663.6246      35.124692      4783.2701      279.85216      7990.7552      1.2129703      0.67973471   
     11700  -4628.9298     -4664.0436      35.113842      8384.8328      279.76571      8003.9627      1.2109687      0.67973471   
     11800  -4628.0239     -4663.1634      35.139569      4496.1284      279.97068      8024.4618      1.2078752      0.67973471   
     11900  -4628.2639     -4662.1097      33.845854      5029.1774      269.66315      8047.5758      1.204406       0.67973471   
     12000  -4629.045      -4663.4426      34.397545      3039.4287      274.05869      8067.3142      1.2014591      0.69393326   
     12100  -4629.6536     -4664.7765      35.122922      1852.3546      279.83805      8076.9804      1.2000213      0.69393326   
     12200  -4630.7891     -4664.5433      33.754189      4757.7082      268.93282      8071.8993      1.2007767      0.69393326   
     12300  -4629.1601     -4663.9298      34.769722      4089.7086      277.02397      8056.127       1.2031276      0.69393326   
     12400  -4628.6374     -4664.027       35.389573      3868.2307      281.96256      8038.2535      1.2058028      0.69393326   
     12500  -4628.6602     -4662.9196      34.259409      6913.353       272.9581       8025.0796      1.2077822      0.69393326   
     12600  -4628.5404     -4663.1766      34.636267      3676.1753      275.96068      8020.1142      1.20853        0.69393326   
     12700  -4629.4214     -4663.1102      33.688799      5771.6253      268.41183      8019.9067      1.2085612      0.69393326   
     12800  -4630.0174     -4663.1911      33.173662      4336.9952      264.30754      8021.8505      1.2082684      0.69393326   
     12900  -4628.899      -4664.1252      35.226154      6405.3842      280.66055      8024.2942      1.2079004      0.69393326   
     13000  -4629.0996     -4662.4384      33.338831      5700.3085      265.6235       8028.9367      1.207202       0.65182145   
     13100  -4628.526      -4662.3798      33.853814      3918.3329      269.72657      8036.9356      1.2060005      0.65182145   
     13200  -4626.1947     -4661.1856      34.990887      3972.7561      278.78608      8044.6262      1.2048476      0.65182145   
     13300  -4626.6348     -4661.2165      34.581699      4821.2059      275.52592      8051.28        1.2038519      0.65182145   
     13400  -4628.1397     -4663.1923      35.052558      3491.3011      279.27743      8055.4002      1.2032361      0.65182145   
     13500  -4628.2845     -4662.9859      34.701364      6130.415       276.47934      8057.3906      1.2029389      0.65182145   
     13600  -4627.9208     -4662.7799      34.859084      2981.1332      277.73595      8057.6299      1.2029032      0.65182145   
     13700  -4627.1143     -4663.2397      36.125463      4799.4493      287.82569      8055.1308      1.2032763      0.65182145   
     13800  -4628.1854     -4661.9028      33.717404      6262.8453      268.63974      8052.612       1.2036527      0.65182145   
     13900  -4629.377      -4663.167       33.789991      3219.0622      269.21807      8045.1797      1.2047647      0.65182145   
     14000  -4628.5863     -4663.3232      34.736829      2412.1496      276.7619       8034.8773      1.2063094      0.66466141   
     14100  -4628.2308     -4663.7816      35.550786      3166.3105      283.24701      8022.8383      1.2081196      0.66466141   
     14200  -4627.9374     -4663.2281      35.290652      4948.6096      281.17442      8014.5604      1.2093674      0.66466141   
     14300  -4627.4824     -4662.4142      34.931803      5187.4228      278.31534      8017.5297      1.2089195      0.66466141   
     14400  -4627.8034     -4662.9486      35.145152      7664.0825      280.01517      8025.3009      1.2077489      0.66466141   
     14500  -4627.7965     -4662.7517      34.95513       7469.3577      278.50119      8034.0232      1.2064377      0.66466141   
     14600  -4627.9904     -4663.0505      35.060116      6153.1391      279.33766      8045.6338      1.2046967      0.66466141   
     14700  -4628.4415     -4662.7554      34.313875      2012.8904      273.39206      8056.6439      1.2030504      0.66466141   
     14800  -4627.3429     -4663.1364      35.793434      4253.3536      285.18028      8063.9157      1.2019655      0.66466141   
     14900  -4627.4858     -4661.5775      34.09179       3136.3233      271.62262      8064.0161      1.2019505      0.66466141   
     15000  -4628.8332     -4662.4491      33.615914      2447.5014      267.83113      8056.5993      1.203057       0.68415325   
     15100  -4627.5957     -4663.6302      36.034567      4199.1544      287.10149      8040.5081      1.2054647      0.68415325   
     15200  -4627.0766     -4662.0172      34.940554      4579.5422      278.38506      8016.4639      1.2090803      0.68415325   
     15300  -4626.2248     -4663.103       36.878118      5164.293       293.82238      7997.6301      1.2119276      0.68415325   
     15400  -4627.3282     -4662.0222      34.694005      4308.1355      276.42071      7994.2382      1.2124418      0.68415325   
     15500  -4627.1389     -4662.4414      35.302439      6954.8698      281.26833      8011.7017      1.209799       0.68415325   
     15600  -4627.7079     -4662.0869      34.378969      5084.2904      273.91069      8042.638       1.2051454      0.68415325   
     15700  -4627.8316     -4663.1587      35.32705       2658.1934      281.46442      8076.3786      1.2001107      0.68415325   
     15800  -4627.9714     -4663.6509      35.679436      1098.6122      284.27202      8102.5683      1.1962316      0.68415325   
     15900  -4628.9307     -4662.4372      33.506544      5561.0412      266.95973      8113.7358      1.1945852      0.68415325   
     16000  -4629.1789     -4661.5185      32.339557      6463.7193      257.6619       8109.9807      1.1951383      0.68653563   
     16100  -4628.0496     -4662.3702      34.320624      3208.2222      273.44583      8095.3144      1.1973035      0.68653563   
     16200  -4628.301      -4660.9198      32.618832      5323.1119      259.88699      8069.2837      1.2011659      0.68653563   
     16300  -4628.3954     -4663.0896      34.694191      1874.5288      276.42219      8033.3433      1.2065398      0.68653563   
     16400  -4628.0116     -4662.3718      34.360172      4555.036       273.76093      7993.6765      1.212527       0.68653563   
     16500  -4627.864      -4662.5154      34.651416      6882.1295      276.08138      7964.1762      1.2170183      0.68653563   
     16600  -4627.7777     -4663.223       35.445306      7870.3301      282.40661      7955.2654      1.2183815      0.68653563   
     16700  -4627.8088     -4662.818       35.00918       7410.5302      278.93183      7964.2917      1.2170007      0.68653563   
     16800  -4626.563      -4661.3654      34.802344      6331.8462      277.28388      7988.3458      1.2133361      0.68653563   
     16900  -4627.2684     -4661.0534      33.785038      6698.6038      269.17861      8019.324       1.2086491      0.68653563   
     17000  -4628.9873     -4663.6655      34.678225      3747.9462      276.29498      8046.6631      1.2045426      0.6323229    
     17100  -4628.5139     -4663.7758      35.261969      2634.6297      280.94589      8063.2972      1.2020577      0.6323229    
     17200  -4629.1617     -4662.536       33.374263      3387.479       265.90581      8065.0939      1.2017899      0.6323229    
     17300  -4629.2798     -4663.3921      34.112242      2204.7197      271.78557      8055.9729      1.2031506      0.6323229    
     17400  -4630.4793     -4663.555       33.075686      2700.8257      263.52693      8037.6325      1.2058959      0.6323229    
     17500  -4630.7743     -4664.8252      34.050942      5820.6741      271.29717      8009.2734      1.2101658      0.6323229    
     17600  -4632.3339     -4665.4469      33.113086      2206.4809      263.8249       7978.76        1.2147938      0.6323229    
     17700  -4633.0284     -4664.5858      31.557459      5300.9242      251.43062      7950.244       1.2191511      0.6323229    
     17800  -4632.8337     -4664.5189      31.685231      6833.458       252.44863      7932.9735      1.2218052      0.6323229    
     17900  -4632.1597     -4665.9164      33.756734      8583.655       268.9531       7932.6888      1.2218491      0.6323229    
     18000  -4631.5308     -4663.8483      32.317537      9528.3627      257.48645      7944.9126      1.2199692      0.82806002   
     18100  -4630.9422     -4664.7921      33.84985       4359.6267      269.69499      7964.77        1.2169276      0.82806002   
     18200  -4630.8651     -4664.7148      33.849769      1551.6778      269.69435      7988.5764      1.2133011      0.82806002   
     18300  -4630.8439     -4663.6955      32.851637      1923.2804      261.74184      8011.0506      1.2098973      0.82806002   
     18400  -4630.4949     -4664.2616      33.766612      4097.4886      269.0318       8027.9442      1.2073512      0.82806002   
     18500  -4630.7951     -4663.9071      33.111993      5578.9467      263.8162       8035.2153      1.2062587      0.82806002   
     18600  -4628.9237     -4663.1759      34.252161      3481.9243      272.90036      8030.1311      1.2070224      0.82806002   
     18700  -4629.5961     -4663.9511      34.354946      3712.404       273.71929      8020.1326      1.2085272      0.82806002   
     18800  -4629.7976     -4664.0697      34.272156      2981.4573      273.05967      8008.0758      1.2103467      0.82806002   
     18900  -4629.8099     -4663.4154      33.605584      4401.3651      267.74883      7994.4911      1.2124034      0.82806002   
     19000  -4629.4578     -4663.9694      34.51154       4090.8507      274.96693      7985.9623      1.2136982      0.6868265    
     19100  -4629.3242     -4663.7861      34.461928      9602.6651      274.57165      7983.5959      1.214058       0.6868265    
     19200  -4629.6007     -4663.9751      34.374422      4291.7616      273.87446      7987.2785      1.2134982      0.6868265    
     19300  -4629.5367     -4664.5185      34.981736      5570.4879      278.71317      7996.7621      1.2120591      0.6868265    
     19400  -4630.4027     -4664.0373      33.634623      5196.8472      267.98019      8008.922       1.2102189      0.6868265    
     19500  -4629.6695     -4664.0301      34.360583      4478.4533      273.7642       8021.6856      1.2082932      0.6868265    
     19600  -4630.3665     -4663.6374      33.270955      3115.5407      265.08271      8031.6323      1.2067968      0.6868265    
     19700  -4630.9185     -4663.8191      32.900606      4766.5378      262.132        8036.4057      1.20608        0.6868265    
     19800  -4630.5168     -4663.2738      32.757         4341.3862      260.98783      8029.6933      1.2070882      0.6868265    
     19900  -4629.9165     -4663.7411      33.824574      6679.3061      269.49361      8017.1846      1.2089716      0.6868265    
     20000  -4631.2594     -4664.5279      33.268471      4473.5608      265.06292      8001.4365      1.211351       0.62082806   
     20100  -4632.4931     -4665.9079      33.414835      4913.0772      266.22906      7982.1254      1.2142817      0.62082806   
     20200  -4632.2329     -4664.3244      32.091522      6516.9344      255.6857       7962.9566      1.2172047      0.62082806   
     20300  -4630.6098     -4664.2591      33.649302      3008.9635      268.09715      7951.3916      1.2189751      0.62082806   
     20400  -4630.3518     -4663.8136      33.46176       3110.4771      266.60293      7947.5752      1.2195604      0.62082806   
     20500  -4630.6639     -4663.7762      33.112309      4482.5829      263.81871      7955.3466      1.2183691      0.62082806   
     20600  -4630.741      -4664.6011      33.860132      7468.1334      269.77691      7975.9039      1.2152288      0.62082806   
     20700  -4629.0754     -4663.8446      34.769238      5800.6682      277.02011      8005.6099      1.2107196      0.62082806   
     20800  -4628.7809     -4663.6935      34.912606      4338.0014      278.16238      8038.7271      1.2057317      0.62082806   
     20900  -4627.1116     -4661.6145      34.50286       5536.0657      274.89777      8066.3551      1.201602       0.62082806   
     21000  -4627.4833     -4662.8684      35.385104      6189.9913      281.92696      8080.9027      1.1994388      0.60124757   
     21100  -4627.5344     -4661.4444      33.909994      3837.9497      270.17418      8072.0866      1.2007488      0.60124757   
     21200  -4628.3836     -4664.1062      35.722597      4800.6557      284.6159       8046.6973      1.2045375      0.60124757   
     21300  -4629.0077     -4662.7564      33.748687      3506.7537      268.88898      8010.2732      1.2100147      0.60124757   
     21400  -4627.2363     -4661.7221      34.485748      7478.5833      274.76144      7976.9984      1.2150621      0.60124757   
     21500  -4628.6574     -4664.7971      36.139675      5342.6573      287.93892      7954.6595      1.2184743      0.60124757   
     21600  -4629.0516     -4663.6001      34.548486      7310.5308      275.2613       7944.4195      1.2200449      0.60124757   
     21700  -4628.1812     -4662.6774      34.496228      8245.1877      274.84494      7949.0957      1.2193272      0.60124757   
     21800  -4628.8519     -4663.7798      34.927906      6489.4008      278.28428      7969.9915      1.2161303      0.60124757   
     21900  -4629.1261     -4664.7512      35.625176      6145.2039      283.83971      8001.7606      1.211302       0.60124757   
     22000  -4629.4973     -4663.5012      34.003847      2526.3315      270.92194      8037.4274      1.2059267      0.67460405   
     22100  -4629.523      -4663.2749      33.751895      4773.7331      268.91454      8068.2652      1.2013175      0.67460405   
     22200  -4629.2262     -4663.1667      33.940563      3952.9503      270.41774      8085.8917      1.1986988      0.67460405   
     22300  -4628.6329     -4663.3351      34.702185      6047.9225      276.48588      8083.948       1.198987       0.67460405   
     22400  -4628.7645     -4664.2235      35.459082      3415.3627      282.51637      8065.0117      1.2018022      0.67460405   
     22500  -4628.6412     -4663.5294      34.888206      6599.5457      277.96798      8036.464       1.2060713      0.67460405   
     22600  -4629.1354     -4663.3594      34.224006      7337.9623      272.67604      8010.346       1.2100037      0.67460405   
     22700  -4628.7657     -4663.4341      34.66833       4813.414       276.21614      7993.7802      1.2125113      0.67460405   
     22800  -4628.3108     -4663.8142      35.50339       6472.5973      282.86939      7985.9408      1.2137015      0.67460405   
     22900  -4629.8555     -4663.2749      33.419403      6229.8242      266.26545      7988.2531      1.2133502      0.67460405   
     23000  -4629.0977     -4662.7657      33.667966      5998.874       268.24585      7996.6496      1.2120762      0.62918948   
     23100  -4630.212      -4664.6086      34.396626      5186.906       274.05137      8012.6421      1.209657       0.62918948   
     23200  -4629.6865     -4664.4805      34.794043      5624.8576      277.21774      8029.5439      1.2071107      0.62918948   
     23300  -4628.6715     -4663.019       34.347449      4067.706       273.65956      8045.5744      1.2047056      0.62918948   
     23400  -4629.1911     -4664.1493      34.958193      3912.9392      278.5256       8056.4717      1.2030761      0.62918948   
     23500  -4628.9211     -4664.0454      35.124281      3705.0471      279.84888      8056.1954      1.2031173      0.62918948   
     23600  -4628.0376     -4662.3486      34.311048      6105.9543      273.36954      8044.3889      1.2048831      0.62918948   
     23700  -4627.1986     -4661.3304      34.131798      4758.83        271.94138      8026.5634      1.2075589      0.62918948   
     23800  -4627.1916     -4661.5802      34.388575      4561.0425      273.98722      8012.8749      1.2096218      0.62918948   
     23900  -4627.0737     -4661.9215      34.847763      7019.983       277.64575      8002.7023      1.2111594      0.62918948   
     24000  -4626.674      -4662.8379      36.163882      6067.1576      288.13179      7998.489       1.2117974      0.65110601   
     24100  -4626.5111     -4662.8584      36.347238      3916.4358      289.59266      7996.4357      1.2121086      0.65110601   
     24200  -4627.833      -4662.4643      34.631318      2838.3945      275.92125      7999.1396      1.2116989      0.65110601   
     24300  -4627.5783     -4663.7996      36.221381      4252.1779      288.58991      8006.333       1.2106102      0.65110601   
     24400  -4628.7237     -4662.6918      33.968109      1234.2816      270.63721      8014.6266      1.2093575      0.65110601   
     24500  -4629.0903     -4662.4006      33.310375      5183.6279      265.39678      8019.239       1.2086619      0.65110601   
     24600  -4628.3297     -4662.632       34.30221       5572.6688      273.29912      8019.6794      1.2085955      0.65110601   
     24700  -4628.771      -4661.9188      33.147806      621.20462      264.10153      8015.6442      1.2092039      0.65110601   
     24800  -4629.9592     -4665.5403      35.581133      5373.9802      283.4888       8012.731       1.2096436      0.65110601   
     24900  -4629.075      -4663.6226      34.547658      7572.4486      275.2547       8008.7822      1.21024        0.65110601   
     25000  -4629.97       -4664.3185      34.348453      5734.398       273.66755      8004.9255      1.2108231      0.71922842   
     25100  -4630.2725     -4663.3341      33.061583      5459.199       263.41456      8000.723       1.2114591      0.71922842   
     25200  -4630.1171     -4665.1372      35.020062      5892.8182      279.01852      7994.6287      1.2123826      0.71922842   
     25300  -4629.7908     -4664.3711      34.580291      5295.5057      275.5147       7987.1787      1.2135134      0.71922842   
     25400  -4629.4101     -4662.389       32.978836      4391.4397      262.75528      7981.7156      1.214344       0.71922842   
     25500  -4628.6663     -4663.4152      34.748887      9855.8675      276.85797      7985.1438      1.2138226      0.71922842   
     25600  -4629.2715     -4664.4489      35.177411      7233.6338      280.27219      7997.5943      1.211933       0.71922842   
     25700  -4629.4191     -4664.233       34.813834      5605.7801      277.37543      8010.3918      1.2099968      0.71922842   
     25800  -4629.1965     -4662.1336      32.937064      1630.3092      262.42247      8019.9302      1.2085577      0.71922842   
     25900  -4629.8331     -4664.8785      35.045337      2457.6695      279.2199       8024.8593      1.2078154      0.71922842   
     26000  -4628.9336     -4663.4423      34.508748      6284.3527      274.94469      8024.764       1.2078297      0.6443479    
     26100  -4629.3323     -4663.5122      34.179943      5028.8357      272.32497      8026.0159      1.2076413      0.6443479    
     26200  -4628.7438     -4662.0206      33.276833      7755.4886      265.12954      8027.6163      1.2074006      0.6443479    
     26300  -4629.4505     -4664.6724      35.221971      2460.8057      280.62721      8029.7079      1.207086       0.6443479    
     26400  -4629.3625     -4663.9061      34.543591      3408.9322      275.2223       8023.6524      1.207997       0.6443479    
     26500  -4628.8957     -4663.6638      34.768135      4680.5234      277.01132      8012.4502      1.209686       0.6443479    
     26600  -4629.8382     -4663.5587      33.72055       4007.0873      268.66481      8000.3251      1.2115193      0.6443479    
     26700  -4629.6454     -4664.4386      34.793242      5278.7464      277.21136      7989.6956      1.2131311      0.6443479    
     26800  -4630.3641     -4662.8389      32.474782      5159.6734      258.73929      7980.5574      1.2145202      0.6443479    
     26900  -4630.6169     -4663.5311      32.91416       4240.4062      262.23998      7977.0387      1.215056       0.6443479    
     27000  -4630.4256     -4664.2482      33.822665      2415.0987      269.4784       7983.6298      1.2140528      0.66520596   
     27100  -4631.3361     -4665.5609      34.224833      4737.3624      272.68263      7994.9374      1.2123358      0.66520596   
     27200  -4630.3925     -4664.5562      34.163631      6363.31        272.19501      8002.4103      1.2112036      0.66520596   
     27300  -4630.3996     -4664.6304      34.230795      4144.6345      272.73013      8009.9429      1.2100646      0.66520596   
     27400  -4630.1729     -4664.0747      33.90181       3657.8217      270.10897      8015.0457      1.2092942      0.66520596   
     27500  -4631.3958     -4663.9185      32.522639      2516.9627      259.12058      8014.3266      1.2094027      0.66520596   
     27600  -4632.0506     -4665.0598      33.00916       3783.42        262.99689      8007.6012      1.2104185      0.66520596   
     27700  -4632.1199     -4665.9093      33.789393      3197.0257      269.21331      7998.4481      1.2118036      0.66520596   
     27800  -4631.3473     -4665.3091      33.961767      8370.5696      270.58667      7989.6011      1.2131455      0.66520596   
     27900  -4631.3067     -4663.9592      32.652547      7242.3144      260.15561      7982.6611      1.2142002      0.66520596   
     28000  -4632.2908     -4665.2528      32.961974      6780.324       262.62093      7979.3956      1.2146971      0.67624893   
     28100  -4632.2332     -4664.4471      32.21389       5799.8626      256.66066      7976.7707      1.2150968      0.67624893   
     28200  -4630.791      -4664.718       33.927025      4572.8902      270.30987      7980.1159      1.2145874      0.67624893   
     28300  -4631.8656     -4664.5665      32.700849      5078.6406      260.54045      7988.6711      1.2132867      0.67624893   
     28400  -4631.889      -4664.1141      32.225138      4220.5684      256.75028      8000.3846      1.2115103      0.67624893   
     28500  -4629.4252     -4663.2667      33.841447      4824.2349      269.62804      8012.8915      1.2096193      0.67624893   
     28600  -4630.0541     -4663.2714      33.217253      5016.8738      264.65484      8026.296       1.2075992      0.67624893   
     28700  -4630.6167     -4665.599       34.982354      3146.5846      278.71809      8034.1736      1.2064151      0.67624893   
     28800  -4631.6667     -4664.1557      32.488989     -104.64779      258.85248      8033.4284      1.206527       0.67624893   
     28900  -4631.1087     -4664.2365      33.12778       3502.9525      263.94198      8024.6942      1.2078402      0.67624893   
     29000  -4630.1426     -4663.4505      33.307926      5340.6415      265.37727      8013.0842      1.2095902      0.62734187   
     29100  -4629.894      -4664.424       34.529967      6652.2907      275.11375      8003.0111      1.2111127      0.62734187   
     29200  -4629.8575     -4664.2794      34.421944      4337.4955      274.25308      7996.7936      1.2120543      0.62734187   
     29300  -4629.9015     -4663.2163      33.314798      5775.8271      265.43202      7999.1773      1.2116932      0.62734187   
     29400  -4629.0174     -4663.2957      34.278378      6317.4635      273.10924      8009.3094      1.2101603      0.62734187   
     29500  -4628.5549     -4664.4761      35.921152      4214.7814      286.19787      8024.3808      1.2078874      0.62734187   
     29600  -4628.9542     -4662.3913      33.437047      7704.5891      266.40603      8041.5308      1.2053114      0.62734187   
     29700  -4628.8558     -4662.0145      33.158687      5819.0619      264.18822      8059.1618      1.2026745      0.62734187   
     29800  -4628.414      -4664.0056      35.591567      4093.2115      283.57193      8074.6537      1.2003671      0.62734187   
     29900  -4628.9717     -4664.23        35.258261      4119.1256      280.91635      8078.6692      1.1997704      0.62734187   
     30000  -4629.0428     -4663.4681      34.425348      4810.4419      274.28021      8069.459       1.2011398      0.68144045   
     30100  -4629.283      -4662.6953      33.412216      4505.9741      266.20819      8050.7224      1.2039352      0.68144045   
     30200  -4627.0894     -4661.7536      34.664221      4972.5302      276.1834       8026.1807      1.2076165      0.68144045   
     30300  -4626.1104     -4662.3636      36.253201      6607.0401      288.84343      8002.9267      1.2111255      0.68144045   
     30400  -4626.9279     -4662.9131      35.985195      4254.7321      286.70812      7989.412       1.2131742      0.68144045   
     30500  -4628.1188     -4662.8179      34.699036      5928.0211      276.46079      7988.0653      1.2133787      0.68144045   
     30600  -4629.6158     -4662.8917      33.275899      7124.7789      265.1221       7993.5657      1.2125438      0.68144045   
     30700  -4630.8802     -4664.5754      33.695272      4003.5656      268.4634       8006.6498      1.2105623      0.68144045   
     30800  -4629.7663     -4663.6969      33.930605      7165.7873      270.3384       8019.7509      1.2085847      0.68144045   
     30900  -4630.1149     -4664.2739      34.158997      6170.2563      272.15808      8030.2834      1.2069995      0.68144045   
     31000  -4629.1317     -4663.2824      34.150674      7189.6745      272.09177      8031.0865      1.2068789      0.63985039   
     31100  -4629.6883     -4663.7071      34.018795      4831.7137      271.04104      8027.6145      1.2074008      0.63985039   
     31200  -4629.7862     -4663.283       33.496799      7044.3706      266.88209      8018.9137      1.2087109      0.63985039   
     31300  -4629.9294     -4663.3316      33.40225       6934.8311      266.12879      8005.6279      1.2107168      0.63985039   
     31400  -4629.805      -4664.5273      34.722291      3493.4579      276.64607      7989.6624      1.2131362      0.63985039   
     31500  -4629.1686     -4664.0383      34.8697        6342.4426      277.82053      7975.801       1.2152445      0.63985039   
     31600  -4629.3318     -4662.1618      32.83004       7081.2343      261.56977      7968.3511      1.2163807      0.63985039   
     31700  -4629.6248     -4664.3777      34.752954      5605.6222      276.89037      7971.4196      1.2159125      0.63985039   
     31800  -4628.2017     -4662.9664      34.764684      4319.7831      276.98383      7986.8678      1.2135606      0.63985039   
     31900  -4628.611      -4663.1003      34.489334      4066.4986      274.79001      8016.7371      1.2090391      0.63985039   
     32000  -4627.969      -4662.5312      34.562159      6336.1132      275.37023      8051.8229      1.2037707      0.64207337   
     32100  -4628.9198     -4662.533       33.613256      4230.0544      267.80995      8087.2099      1.1985034      0.64207337   
     32200  -4629.6949     -4664.023       34.328116      3566.5896      273.50552      8111.7331      1.1948801      0.64207337   
     32300  -4629.6626     -4663.4131      33.750574      3965.9414      268.90402      8112.2492      1.1948041      0.64207337   
     32400  -4630.8297     -4665.1952      34.365564      5510.2869      273.80389      8091.5926      1.1978542      0.64207337   
     32500  -4630.9217     -4664.7376      33.815917      4889.258       269.42463      8049.017       1.2041903      0.64207337   
     32600  -4630.4309     -4664.8153      34.384383      1560.6084      273.95382      7995.8446      1.2121982      0.64207337   
     32700  -4629.0928     -4663.6238      34.530923      10216.395      275.12136      7948.7206      1.2193847      0.64207337   
     32800  -4629.2342     -4665.0912      35.85703       9135.0121      285.68698      7925.0517      1.2230265      0.64207337   
     32900  -4630.1345     -4664.7225      34.588052      8928.5073      275.57654      7931.8965      1.2219711      0.64207337   
     33000  -4630.5026     -4664.8924      34.389823      7006.354       273.99717      7964.051       1.2170375      0.62298931   
     33100  -4630.7129     -4663.4382      32.725278      9321.3717      260.73509      8004.8565      1.2108335      0.62298931   
     33200  -4630.608      -4664.0232      33.41524       5920.5708      266.23228      8044.0327      1.2049365      0.62298931   
     33300  -4629.8045     -4664.2796      34.475047      5109.2763      274.67618      8070.8372      1.2009347      0.62298931   
     33400  -4630.098      -4664.2825      34.184447      5175.457       272.36086      8080.7745      1.1994578      0.62298931   
     33500  -4630.3624     -4664.1284      33.766055      1787.8024      269.02736      8070.7846      1.2009425      0.62298931   
     33600  -4630.3649     -4664.0879      33.722929      1338.5487      268.68376      8045.273       1.2047507      0.62298931   
     33700  -4630.178      -4664.0637      33.885716      4664.7176      269.98075      8009.6461      1.2101094      0.62298931   
     33800  -4629.5334     -4663.7141      34.180791      3464.2816      272.33173      7971.0018      1.2159762      0.62298931   
     33900  -4628.9947     -4663.7478      34.753164      6661.2271      276.89205      7942.4983      1.22034        0.62298931   
     34000  -4629.917      -4663.1285      33.211479      8448.5176      264.60884      7931.7778      1.2219894      0.68570269   
     34100  -4629.6642     -4664.6068      34.942635      8803.7563      278.40164      7940.4441      1.2206557      0.68570269   
     34200  -4628.0036     -4663.3602      35.356684      9145.3667      281.70053      7965.4878      1.2168179      0.68570269   
     34300  -4627.6334     -4664.3062      36.672766      6252.583       292.18627      7999.3101      1.211673       0.68570269   
     34400  -4628.0415     -4663.4126      35.371054      3264.8953      281.81502      8034.5102      1.2063646      0.68570269   
     34500  -4627.6049     -4662.0857      34.480802      4348.5539      274.72203      8066.0861      1.2016421      0.68570269   
     34600  -4627.5137     -4661.6498      34.136056      2535.8302      271.9753       8086.3209      1.1986351      0.68570269   
     34700  -4628.5372     -4662.738       34.200771      2648.2533      272.49091      8089.2261      1.1982047      0.68570269   
     34800  -4629.9856     -4663.12        33.134393      2115.4101      263.99467      8074.0317      1.2004595      0.68570269   
     34900  -4630.6564     -4664.2407      33.584315      3254.8233      267.57937      8042.4603      1.205172       0.68570269   
     35000  -4631.0424     -4665.0833      34.040862      3748.2332      271.21686      8000.3965      1.2115085      0.62454685   
     35100  -4630.538      -4665.8505      35.312522      8854.1561      281.34867      7958.9381      1.2178193      0.62454685   
     35200  -4630.0146     -4664.1397      34.125173      11316.66       271.88859      7926.8183      1.222754       0.62454685   
     35300  -4630.4968     -4665.8878      35.390994      5241.5724      281.97389      7916.0385      1.2244191      0.62454685   
     35400  -4631.5986     -4666.0064      34.407779      6834.9013      274.14023      7927.0686      1.2227153      0.62454685   
     35500  -4630.9031     -4664.2701      33.367013      6066.3741      265.84804      7954.2275      1.2185405      0.62454685   
     35600  -4630.8896     -4665.0343      34.144612      7048.428       272.04348      7992.0953      1.2127669      0.62454685   
     35700  -4631.1548     -4664.3433      33.188484      5509.7406      264.42563      8031.5722      1.2068059      0.62454685   
     35800  -4632.4118     -4664.3673      31.955534      8221.6643      254.60223      8065.7141      1.2016975      0.62454685   
     35900  -4633.5537     -4666.5566      33.002942      3546.3647      262.94734      8085.8909      1.1986989      0.62454685   
     36000  -4632.6798     -4666.9862      34.306417      1201.0316      273.33264      8081.9835      1.1992784      0.73929857   
     36100  -4631.8209     -4664.5298      32.708914      1684.3446      260.6047       8055.21        1.2032645      0.73929857   
     36200  -4632.3664     -4663.9108      31.544375      7876.5643      251.32637      8017.6733      1.2088979      0.73929857   
     36300  -4631.7311     -4664.2759      32.544749      7287.3112      259.29674      7979.112       1.2147402      0.73929857   
     36400  -4631.3295     -4665.2181      33.888627      7933.7537      270.00394      7950.2532      1.2191496      0.73929857   
     36500  -4631.8243     -4665.2436      33.419384      8750.8833      266.2653       7937.6618      1.2210836      0.73929857   
     36600  -4632.9171     -4666.4953      33.578286      4717.6688      267.53133      7943.3275      1.2202126      0.73929857   
     36700  -4631.9585     -4665.2673      33.308855      4551.2037      265.38468      7965.0545      1.2168841      0.73929857   
     36800  -4632.0079     -4664.4445      32.436634      6821.1228      258.43534      7993.0629      1.2126201      0.73929857   
     36900  -4632.0527     -4664.5129      32.460243      5688.4118      258.62345      8023.4483      1.2080278      0.73929857   
     37000  -4631.4916     -4665.0065      33.514937      3600.3037      267.02661      8052.6859      1.2036417      0.72274662   
     37100  -4631.1068     -4664.9652      33.85843       2809.3667      269.76335      8072.0214      1.2007585      0.72274662   
     37200  -4631.0322     -4664.0252      32.993013      4189.7899      262.86824      8076.7177      1.2000603      0.72274662   
     37300  -4630.824      -4664.089       33.265         4875.5329      265.03526      8063.4771      1.2020309      0.72274662   
     37400  -4629.613      -4664.5632      34.950173      8153.3006      278.46169      8039.8312      1.2055662      0.72274662   
     37500  -4630.1682     -4664.1175      33.949322      7939.936       270.48753      8008.5808      1.2102704      0.72274662   
     37600  -4629.8386     -4663.3168      33.478187      5509.6502      266.73381      7977.5561      1.2149772      0.72274662   
     37700  -4629.0822     -4663.4459      34.363716      5373.5246      273.78916      7956.0665      1.2182589      0.72274662   
     37800  -4629.7621     -4664.1768      34.414785      5051.2554      274.19605      7950.7912      1.2190672      0.72274662   
     37900  -4628.9684     -4662.5969      33.628511      4371.4085      267.9315       7962.428       1.2172855      0.72274662   
     38000  -4629.6347     -4664.2158      34.581016      7607.0406      275.52047      7992.6142      1.2126881      0.64272663   
     38100  -4629.4168     -4662.9822      33.565458      3019.2309      267.42913      8029.9579      1.2070485      0.64272663   
     38200  -4629.7113     -4663.8355      34.124231      4297.9919      271.88109      8065.3218      1.2017559      0.64272663   
     38300  -4630.6223     -4663.2953      32.673022      5068.0387      260.31874      8085.3381      1.1987808      0.64272663   
     38400  -4630.1241     -4663.4869      33.362743      4305.2598      265.81402      8083.8896      1.1989956      0.64272663   
     38500  -4627.9924     -4662.4593      34.466967      3547.3027      274.6118       8064.3124      1.2019064      0.64272663   
     38600  -4628.2909     -4662.2655      33.974588      3858.9612      270.68883      8038.3804      1.2057837      0.64272663   
     38700  -4628.0449     -4662.8732      34.828248      5191.1003      277.49027      8014.5733      1.2093655      0.64272663   
     38800  -4628.4151     -4663.5335      35.118404      6417.2503      279.80205      7997.429       1.211958       0.64272663   
     38900  -4629.2601     -4663.9768      34.71668       7992.7129      276.60137      7989.5202      1.2131578      0.64272663   
     39000  -4628.4691     -4662.3642      33.895089      7438.1178      270.05543      7992.7946      1.2126608      0.64074122   
     39100  -4629.0038     -4663.124       34.120201      5482.1402      271.84898      8008.9372      1.2102166      0.64074122   
     39200  -4630.0204     -4663.068       33.047517      4257.693       263.30249      8033.4705      1.2065207      0.64074122   
     39300  -4629.8873     -4663.0124      33.125081      3501.8412      263.92047      8061.1392      1.2023795      0.64074122   
     39400  -4630.4329     -4663.9075      33.474598      4140.4334      266.70521      8080.5515      1.199491       0.64074122   
     39500  -4630.3606     -4663.5877      33.227045      4805.1877      264.73286      8084.0258      1.1989754      0.64074122   
     39600  -4629.4535     -4663.1367      33.683218      3899.2447      268.36737      8074.0435      1.2004578      0.64074122   
     39700  -4628.857      -4663.6727      34.815717      5177.9489      277.39043      8057.8304      1.2028732      0.64074122   
     39800  -4629.4635     -4664.9821      35.518548      6115.0078      282.99016      8038.9419      1.2056995      0.64074122   
     39900  -4628.3995     -4662.8161      34.416524      6264.118       274.2099       8020.4904      1.2084733      0.64074122   
     40000  -4629.0422     -4663.3079      34.265672      6805.7891      273.00801      8009.0586      1.2101982      0.70325528   
     40100  -4628.5717     -4662.5899      34.018188      5652.7761      271.03621      8006.3087      1.2106139      0.70325528   
     40200  -4628.9161     -4663.9924      35.076304      5100.603       279.46663      8011.0414      1.2098987      0.70325528   
     40300  -4628.4011     -4663.1147      34.713635      3913.9771      276.57711      8025.8843      1.2076611      0.70325528   
     40400  -4627.3544     -4662.7793      35.424865      7878.3405      282.24375      8049.6841      1.2040905      0.70325528   
     40500  -4627.7153     -4662.8695      35.154197      4897.5663      280.08724      8077.3267      1.1999698      0.70325528   
     40600  -4628.2918     -4662.5298      34.238012      146.09912      272.78763      8097.7022      1.1969505      0.70325528   
     40700  -4630.0804     -4664.1047      34.024297      1351.4851      271.08488      8102.3947      1.1962572      0.70325528   
     40800  -4630.9353     -4664.6009      33.6656        1761.0979      268.227        8089.9843      1.1980924      0.70325528   
     40900  -4630.4883     -4664.8336      34.345343      4070.0883      273.64278      8064.1187      1.2019352      0.70325528   
     41000  -4631.0716     -4665.4209      34.349315      3870.2185      273.67443      8027.7166      1.2073855      0.68280315   
     41100  -4629.9696     -4664.1454      34.175835      8369.2045      272.29224      7988.6048      1.2132968      0.68280315   
     41200  -4629.9173     -4664.6425      34.725137      6789.8273      276.66875      7956.6107      1.2181755      0.68280315   
     41300  -4630.4117     -4663.0495      32.637774      6636.2931      260.0379       7937.3274      1.221135       0.68280315   
     41400  -4630.6033     -4664.7542      34.150895      7771.6302      272.09353      7938.3033      1.2209849      0.68280315   
     41500  -4632.4168     -4666.1607      33.743898      7816.9977      268.85083      7962.2432      1.2173138      0.68280315   
     41600  -4633.5105     -4666.5231      33.012594      4053.8309      263.02425      8000.028       1.2115643      0.68280315   
     41700  -4634.0443     -4666.3998      32.355502      3056.9682      257.78894      8039.0916      1.2056771      0.68280315   
     41800  -4634.0041     -4665.4541      31.450034      4674.185       250.57472      8065.8876      1.2016716      0.68280315   
     41900  -4633.4825     -4666.2264      32.743937      2970.151       260.88375      8077.5206      1.199941       0.68280315   
     42000  -4632.7281     -4665.1929      32.464814      1331.0359      258.65987      8070.6158      1.2009676      0.63875514   
     42100  -4633.2176     -4665.0777      31.860038      3750.4049      253.84138      8048.3099      1.2042961      0.63875514   
     42200  -4633.3649     -4666.1908      32.825934      5666.5098      261.53705      8017.401       1.208939       0.63875514   
     42300  -4634.2496     -4665.8551      31.605469      6168.4321      251.81313      7983.8197      1.214024       0.63875514   
     42400  -4633.3569     -4665.0827      31.725795      5095.6914      252.77182      7959.2978      1.2177643      0.63875514   
     42500  -4633.0856     -4664.5331      31.447501      5689.3236      250.55454      7947.3667      1.2195925      0.63875514   
     42600  -4632.3616     -4666.2747      33.913155      7112.4388      270.19937      7950.1816      1.2191606      0.63875514   
     42700  -4631.9821     -4665.7512      33.769128      6011.1603      269.05184      7965.7951      1.216771       0.63875514   
     42800  -4631.5046     -4664.8245      33.319892      2204.5992      265.47261      7993.6223      1.2125352      0.63875514   
     42900  -4631.5701     -4664.0696      32.499531      3819.4902      258.93647      8025.4593      1.2077251      0.63875514   
     43000  -4631.2744     -4664.8001      33.525701      924.05108      267.11237      8055.5492      1.2032139      0.70236026   
     43100  -4632.6024     -4665.0965      32.494051      3435.7134      258.89281      8076.9689      1.200023       0.70236026   
     43200  -4632.7006     -4665.9561      33.255509      3858.6602      264.95965      8084.4479      1.1989128      0.70236026   
     43300  -4632.4485     -4665.2375      32.788992      5024.2978      261.24272      8073.1874      1.2005851      0.70236026   
     43400  -4631.6395     -4665.3784      33.738898      5599.2808      268.81099      8045.2015      1.2047614      0.70236026   
     43500  -4631.6429     -4664.3732      32.730308      4004.2194      260.77516      8004.5883      1.2108741      0.70236026   
     43600  -4630.5945     -4664.8535      34.258952      7592.5473      272.95447      7969.0576      1.2162729      0.70236026   
     43700  -4631.2196     -4664.4862      33.266556      6180.8036      265.04766      7944.9131      1.2199691      0.70236026   
     43800  -4630.9507     -4664.6848      33.734074      5718.9093      268.77256      7941.0389      1.2205643      0.70236026   
     43900  -4630.787      -4665.0242      34.23714       6846.0563      272.78068      7961.2395      1.2174673      0.70236026   
     44000  -4631.0073     -4664.3304      33.323161      5817.3168      265.49865      8002.5862      1.211177       0.67028252   
     44100  -4630.7413     -4664.9756      34.234301      6639.9676      272.75806      8051.9088      1.2037578      0.67028252   
     44200  -4629.17       -4663.4651      34.295107      4374.1538      273.24253      8096.8509      1.1970763      0.67028252   
     44300  -4628.8459     -4663.5351      34.689275      4220.6799      276.38302      8133.5042      1.1916817      0.67028252   
     44400  -4629.4134     -4664.4547      35.041309      4220.9811      279.18781      8155.5265      1.1884638      0.67028252   
     44500  -4630.1813     -4664.0376      33.856327      4455.4109      269.74659      8152.686       1.1888779      0.67028252   
     44600  -4630.0294     -4664.8308      34.801407      2211.0007      277.27641      8118.3914      1.1939001      0.67028252   
     44700  -4631.2183     -4664.1572      32.938873      3440.6552      262.43688      8056.4859      1.203074       0.67028252   
     44800  -4630.7001     -4664.4214      33.721336      4620.6602      268.67107      7978.9239      1.2147689      0.67028252   
     44900  -4630.3332     -4663.906       33.572889      4754.8277      267.48833      7910.4134      1.2252897      0.67028252   
     45000  -4629.9326     -4664.237       34.304349      9437.6842      273.31616      7866.8534      1.2320744      0.78848319   
     45100  -4628.772      -4662.7337      33.961712      10215.719      270.58624      7859.0974      1.2332903      0.78848319   
     45200  -4628.2234     -4663.6489      35.425485      7425.0721      282.24869      7893.7853      1.2278708      0.78848319   
     45300  -4628.719      -4663.2715      34.552439      5062.3883      275.29279      7959.2268      1.2177751      0.78848319   
     45400  -4629.1706     -4663.8603      34.689753      5253.6814      276.38683      8037.9205      1.2058527      0.78848319   
     45500  -4627.4994     -4662.8377      35.338338      2955.7573      281.55436      8108.0401      1.1954243      0.78848319   
     45600  -4627.6225     -4662.0341      34.411642      1155.0034      274.17101      8154.592       1.1886         0.78848319   
     45700  -4629.4124     -4663.938       34.525537      6183.9381      275.07845      8170.7167      1.1862544      0.78848319   
     45800  -4628.0369     -4662.1646      34.127644      6858.4803      271.90829      8150.3038      1.1892254      0.78848319   
     45900  -4629.0795     -4663.0589      33.979367      398.36047      270.72691      8108.3804      1.1953742      0.78848319   
     46000  -4629.8164     -4665.1024      35.286044      562.29722      281.13771      8055.4643      1.2032265      0.66638856   
     46100  -4629.7056     -4662.0039      32.298302      4371.4622      257.3332       8003.2976      1.2110694      0.66638856   
     46200  -4629.722      -4664.1028      34.380841      6174.0479      273.9256       7966.408       1.2166774      0.66638856   
     46300  -4629.7217     -4664.3536      34.631821      5461.9393      275.92526      7950.2745      1.2191464      0.66638856   
     46400  -4630.4603     -4663.8152      33.354871      7682.6934      265.7513       7955.1594      1.2183978      0.66638856   
     46500  -4629.6911     -4664.3983      34.707178      2795.5673      276.52566      7979.0648      1.2147474      0.66638856   
     46600  -4630.4705     -4663.7601      33.289614      6565.8594      265.23137      8015.1329      1.2092811      0.66638856   
     46700  -4630.726      -4665.0696      34.343684      4703.4864      273.62956      8052.4316      1.2036797      0.66638856   
     46800  -4631.9208     -4666.1477      34.226912      1330.8843      272.69919      8078.7479      1.1997587      0.66638856   
     46900  -4631.6159     -4664.395       32.779067      3102.6837      261.16364      8088.5781      1.1983006      0.66638856   
     47000  -4631.4105     -4663.8489      32.438465      5325.3241      258.44994      8081.0169      1.1994219      0.64881572   
     47100  -4629.8217     -4664.2535      34.43183       1772.9954      274.33185      8059.2687      1.2026585      0.64881572   
     47200  -4629.7239     -4663.7999      34.076022      4455.0516      271.49699      8027.9666      1.2073479      0.64881572   
     47300  -4629.6377     -4664.2111      34.573453      5481.9516      275.46022      7995.0227      1.2123228      0.64881572   
     47400  -4630.1687     -4662.6704      32.501745      6660.6576      258.95411      7965.6699      1.2167901      0.64881572   
     47500  -4630.3277     -4663.5661      33.238331      7364.8598      264.82278      7953.1446      1.2187064      0.64881572   
     47600  -4631.5533     -4664.9781      33.424807      7127.1919      266.30851      7956.0194      1.2182661      0.64881572   
     47700  -4631.073      -4664.5706      33.497572      3519.0604      266.88825      7973.0079      1.2156702      0.64881572   
     47800  -4631.0614     -4664.9531      33.891767      5818.5388      270.02896      7997.5854      1.2119344      0.64881572   
     47900  -4631.9015     -4665.2476      33.346031      5272.0103      265.68086      8022.6516      1.2081477      0.64881572   
     48000  -4631.5299     -4664.8905      33.360526      3691.9296      265.79636      8043.0213      1.205088       0.63672276   
     48100  -4630.7383     -4664.0608      33.322489      4909.3037      265.4933       8049.0122      1.204191       0.63672276   
     48200  -4629.8115     -4662.7005      32.889018      4466.7983      262.03967      8041.5935      1.205302       0.63672276   
     48300  -4629.4341     -4663.1151      33.680967      4844.1147      268.34944      8028.2606      1.2073037      0.63672276   
     48400  -4630.3609     -4665.3495      34.988643      7306.2368      278.7682       8009.0838      1.2101944      0.63672276   
     48500  -4628.6175     -4663.8444      35.226976      6528.9923      280.66709      7987.9742      1.2133926      0.63672276   
     48600  -4628.0319     -4663.0753      35.043389      4106.3927      279.20439      7973.6781      1.2155681      0.63672276   
     48700  -4628.1137     -4663.7075      35.593864      7373.3766      283.59023      7973.7737      1.2155535      0.63672276   
     48800  -4628.0536     -4663.8754      35.821831      6268.9268      285.40654      7987.2365      1.2135046      0.63672276   
     48900  -4629.5094     -4663.0124      33.503008      3253.8845      266.93156      8010.4765      1.209984       0.63672276   
     49000  -4631.2211     -4664.5113      33.290169      6447.4437      265.23579      8034.84        1.2063151      0.66970801   
     49100  -4631.6943     -4663.2362      31.541924      5312.2731      251.30684      8052.6069      1.2036535      0.66970801   
     49200  -4629.3514     -4663.6542      34.302799      4094.5829      273.30381      8063.0187      1.2020992      0.66970801   
     49300  -4629.4071     -4663.7121      34.305048      5983.2356      273.32173      8064.0415      1.2019467      0.66970801   
     49400  -4628.1733     -4662.6329      34.459606      4359.3752      274.55315      8051.9048      1.2037585      0.66970801   
     49500  -4628.5167     -4663.4677      34.950965      6312.7291      278.468        8035.1798      1.206264       0.66970801   
     49600  -4629.442      -4664.0842      34.642116      5633.4531      276.00728      8019.7856      1.2085795      0.66970801   
     49700  -4629.3358     -4663.6831      34.347375      3649.6297      273.65897      8006.0801      1.2106484      0.66970801   
     49800  -4628.6648     -4661.3867      32.72188       6886.398       260.70802      7996.5729      1.2120878      0.66970801   
     49900  -4628.2222     -4662.425       34.202831      6578.1246      272.50733      7994.7848      1.2123589      0.66970801   
     50000  -4629.222      -4663.4706      34.248579      6581.5764      272.87182      8002.3944      1.211206       0.65797497   
     50100  -4629.7915     -4663.3954      33.603838      1781.2882      267.73492      8014.7235      1.2093428      0.65797497   
     50200  -4631.2905     -4664.4505      33.159993      5093.3242      264.19863      8025.5771      1.2077074      0.65797497   
     50300  -4630.7383     -4664.9913      34.252992      4277.9149      272.90698      8032.2101      1.20671        0.65797497   
     50400  -4630.9902     -4665.7518      34.761559      8472.8103      276.95894      8031.1021      1.2068765      0.65797497   
     50500  -4630.3221     -4664.59        34.267934      5669.2519      273.02603      8024.6377      1.2078487      0.65797497   
     50600  -4631.3789     -4665.0716      33.692779      5060.941       268.44354      8014.3922      1.2093928      0.65797497   
     50700  -4631.9293     -4664.8658      32.936438      3082.7249      262.41748      7999.9752      1.2115723      0.65797497   
     50800  -4632.4389     -4665.4389      33.000002      2150.844       262.92392      7979.0163      1.2147548      0.65797497   
     50900  -4632.1903     -4664.7069      32.516611      3602.9577      259.07255      7954.8741      1.2184415      0.65797497   
     51000  -4633.0428     -4665.4139      32.3711        7206.1354      257.91321      7936.7375      1.2212258      0.69824455   
     51100  -4633.1251     -4666.5501      33.424993      7167.4217      266.30999      7931.5361      1.2220266      0.69824455   
     51200  -4632.9911     -4666.4833      33.492131      5390.3781      266.8449       7938.583       1.2209419      0.69824455   
     51300  -4632.9407     -4666.9156      33.97494       5157.6855      270.69163      7958.4205      1.2178985      0.69824455   
     51400  -4633.806      -4665.8801      32.074137      4247.6659      255.54719      7982.0053      1.2142999      0.69824455   
     51500  -4632.2676     -4665.9913      33.723681      8120.1891      268.68975      8002.9697      1.211119       0.69824455   
     51600  -4632.658      -4665.134       32.475953      6162.3028      258.74862      8015.829       1.2091761      0.69824455   
     51700  -4632.0456     -4664.951       32.90539       26.534584      262.17011      8018.1244      1.2088299      0.69824455   
     51800  -4631.3864     -4664.409       33.022617      3830.0812      263.10411      8011.197       1.2098752      0.69824455   
     51900  -4631.3196     -4664.977       33.657494      4749.2062      268.16241      8000.4111      1.2115063      0.69824455   
     52000  -4631.1586     -4663.7585      32.599951      4128.495       259.73656      7986.6199      1.2135983      0.679976     
     52100  -4631.0772     -4664.7867      33.709537      6148.765       268.57706      7975.4778      1.2152938      0.679976     
     52200  -4629.8781     -4664.1635      34.285377      6796.9392      273.165        7968.3328      1.2163835      0.679976     
     52300  -4629.441      -4663.8729      34.431879      6574.332       274.33225      7969.9594      1.2161352      0.679976     
     52400  -4629.2282     -4662.9976      33.769396      4324.4741      269.05398      7980.6031      1.2145133      0.679976     
     52500  -4630.0188     -4664.3791      34.36028       2909.2778      273.76178      7999.2909      1.211676       0.679976     
     52600  -4629.8372     -4663.8054      33.96819       5073.3992      270.63785      8014.772       1.2093355      0.679976     
     52700  -4630.3806     -4664.5879      34.207336      7122.9532      272.54322      8025.537       1.2077134      0.679976     
     52800  -4629.8918     -4663.4687      33.576893      7670.0033      267.52024      8026.6995      1.2075385      0.679976     
     52900  -4630.1545     -4663.9598      33.805349      2936.8166      269.34044      8021.5797      1.2083092      0.679976     
     53000  -4630.7412     -4663.9931      33.251917      2967.6259      264.93103      8013.416       1.2095402      0.72900363   
     53100  -4629.1128     -4663.6891      34.576362      4754.7104      275.4834       8004.4644      1.2108928      0.72900363   
     53200  -4629.4481     -4663.4473      33.9992        7793.7022      270.88492      8001.0701      1.2114065      0.72900363   
     53300  -4628.8332     -4663.5336      34.700423      8454.2811      276.47184      8001.1414      1.2113957      0.72900363   
     53400  -4629.4958     -4664.4921      34.996282      7695.228       278.82906      8002.9195      1.2111266      0.72900363   
     53500  -4630.1618     -4665.5745      35.412695      3219.1464      282.14679      8007.9397      1.2103673      0.72900363   
     53600  -4629.8066     -4663.6725      33.865861      8585.3295      269.82256      8011.7251      1.2097954      0.72900363   
     53700  -4631.0137     -4664.3555      33.341794      5418.4093      265.64711      8015.6623      1.2092012      0.72900363   
     53800  -4632.2356     -4665.8739      33.638329      4098.318       268.00972      8016.4275      1.2090858      0.72900363   
     53900  -4631.9676     -4666.1976      34.229985      6327.5448      272.72368      8010.7659      1.2099403      0.72900363   
     54000  -4631.7729     -4664.9439      33.170942      2706.4079      264.28586      7998.3742      1.2118148      0.64989904   
     54100  -4632.1814     -4665.6841      33.502766      2123.6921      266.92964      7984.3985      1.213936       0.64989904   
     54200  -4631.2562     -4663.7074      32.451183      4270.6743      258.55127      7971.8548      1.2158461      0.64989904   
     54300  -4630.5431     -4664.4017      33.858533      7671.2256      269.76417      7969.5114      1.2162036      0.64989904   
     54400  -4630.8321     -4663.8825      33.050352      4600.8337      263.32508      7979.0351      1.2147519      0.64989904   
     54500  -4630.8616     -4664.741       33.879374      4305.7259      269.93022      7995.621       1.2122321      0.64989904   
     54600  -4631.083      -4664.3464      33.263429      4439.8745      265.02275      8011.3455      1.2098528      0.64989904   
     54700  -4630.862      -4663.4209      32.558943      6536.2057      259.40983      8024.0576      1.207936       0.64989904   
     54800  -4630.5719     -4665.1651      34.59316       5837.9405      275.61723      8035.383       1.2062335      0.64989904   
     54900  -4629.6387     -4662.3973      32.758597      2385.4682      261.00055      8040.2435      1.2055043      0.64989904   
     55000  -4628.9352     -4662.8103      33.875086      2983.3305      269.89605      8040.0459      1.205534       0.65926931   
     55100  -4628.9824     -4663.2249      34.242539      5272.294       272.8237       8031.717       1.2067841      0.65926931   
     55200  -4630.6658     -4663.6309      32.965131      3216.2774      262.64609      8016.8857      1.2090167      0.65926931   
     55300  -4630.9348     -4665.1613      34.226472      1933.9665      272.69568      7998.5268      1.2117917      0.65926931   
     55400  -4632.379      -4665.7255      33.346483      5381.4448      265.68447      7981.8533      1.214323       0.65926931   
     55500  -4632.5772     -4665.9705      33.393316      5537.3117      266.05761      7968.8275      1.216308       0.65926931   
     55600  -4632.5692     -4665.0395      32.470286      6398.5694      258.70347      7963.1305      1.2171781      0.65926931   
     55700  -4630.7859     -4664.8618      34.075909      7439.3241      271.49609      7968.5956      1.2163434      0.65926931   
     55800  -4629.155      -4665.1182      35.963185      6187.4551      286.53275      7987.2307      1.2135055      0.65926931   
     55900  -4629.5048     -4663.5566      34.051772      4054.988       271.30378      8013.6787      1.2095005      0.65926931   
     56000  -4629.2147     -4663.6649      34.450246      6032.4494      274.47858      8041.9667      1.205246       0.6588917    
     56100  -4629.497      -4663.3984      33.90145       7070.515       270.10611      8064.9107      1.2018172      0.6588917    
     56200  -4628.9135     -4664.2581      35.344562      5336.5409      281.60395      8074.3147      1.2004175      0.6588917    
     56300  -4628.7509     -4663.6434      34.892525      4202.5399      278.00239      8065.5011      1.2017292      0.6588917    
     56400  -4629.688      -4663.508       33.820017      5240.2472      269.4573       8043.9055      1.2049555      0.6588917    
     56500  -4629.827      -4663.753       33.926013      4933.5491      270.30181      8017.8885      1.2088655      0.6588917    
     56600  -4628.8499     -4663.2051      34.355235      7323.2159      273.72159      7996.0966      1.21216        0.6588917    
     56700  -4628.6473     -4663.4025      34.75511       5606.0945      276.90755      7989.5223      1.2131574      0.6588917    
     56800  -4628.6605     -4663.2076      34.547068      6095.3059      275.25         7993.6979      1.2125237      0.6588917    
     56900  -4628.6833     -4662.9662      34.28286       4213.3523      273.14495      8007.2941      1.2104649      0.6588917    
[...]
   2186200  -4628.8909     -4662.5784      33.687524      8356.5895      268.40167      7997.1094      1.2120065      0.66171966   
   2186300  -4629.0871     -4663.6135      34.526415      5898.0885      275.08545      7993.5297      1.2125492      0.66171966   
   2186400  -4629.35       -4663.4046      34.054554      4757.8386      271.32595      8001.341       1.2113655      0.66171966   
   2186500  -4629.3398     -4664.3875      35.04768       6891.651       279.23857      8018.2466      1.2088115      0.66171966   
   2186600  -4629.6107     -4663.6932      34.082494      896.18835      271.54855      8036.2849      1.2060982      0.66171966   
   2186700  -4629.0197     -4662.9716      33.951923      3163.8025      270.50825      8049.1026      1.2041775      0.66171966   
   2186800  -4628.2003     -4661.8556      33.655276      8473.7712      268.14474      8058.9551      1.2027053      0.66171966   
   2186900  -4629.1578     -4663.5994      34.441634      3645.3093      274.40997      8066.1198      1.2016371      0.66171966   
   2187000  -4628.9804     -4662.3009      33.32047       5844.2895      265.47722      8066.4929      1.2015815      0.67316553   
   2187100  -4628.91       -4662.7484      33.838404      5025.2292      269.60379      8062.5364      1.2021711      0.67316553   
   2187200  -4627.8177     -4664.7728      36.955112      2914.8725      294.43583      8054.6926      1.2033418      0.67316553   
   2187300  -4628.5716     -4664.2066      35.63504       6405.6307      283.9183       8043.3591      1.2050374      0.67316553   
   2187400  -4629.6627     -4663.2346      33.571905      6917.406       267.48049      8029.0802      1.2071804      0.67316553   
   2187500  -4630.3719     -4664.075       33.703179      2951.1363      268.52641      8019.2695      1.2086573      0.67316553   
   2187600  -4630.9199     -4663.9224      33.002486      7125.2886      262.94371      8014.4435      1.2093851      0.67316553   
   2187700  -4629.7609     -4663.9142      34.153308      1422.1091      272.11276      8010.0259      1.2100521      0.67316553   
   2187800  -4630.3602     -4664.1263      33.766124      2436.4732      269.02791      8004.4189      1.2108997      0.67316553   
   2187900  -4630.146      -4662.4761      32.330067      3107.6663      257.58629      8002.5498      1.2111825      0.67316553   
   2188000  -4629.5928     -4663.581       33.988242      5395.6877      270.79762      8007.1674      1.2104841      0.67094911   
   2188100  -4628.7261     -4662.602       33.875967      4629.015       269.90308      8015.0583      1.2092923      0.67094911   
   2188200  -4629.1959     -4664.2781      35.082191      3338.0041      279.51353      8028.8475      1.2072154      0.67094911   
   2188300  -4630.1173     -4664.9981      34.880764      6679.5313      277.90868      8044.8579      1.2048129      0.67094911   
   2188400  -4631.5021     -4665.4316      33.929525      3858.2133      270.32979      8055.3521      1.2032433      0.67094911   
   2188500  -4631.6541     -4665.3859      33.731774      4818.358       268.75423      8054.9851      1.2032981      0.67094911   
   2188600  -4631.0672     -4664.3812      33.313951      5720.7567      265.42527      8047.9149      1.2043552      0.67094911   
   2188700  -4630.6162     -4664.2087      33.592552      6602.5765      267.645        8036.2284      1.2061066      0.67094911   
   2188800  -4629.2833     -4661.9128      32.629564      5965.7234      259.97249      8023.87        1.2079643      0.67094911   
   2188900  -4629.0296     -4662.7487      33.719099      4632.1128      268.65324      8013.9227      1.2094637      0.67094911   
   2189000  -4630.4303     -4664.293       33.862687      2309.4255      269.79727      8007.3587      1.2104551      0.65388546   
   2189100  -4632.0123     -4664.667       32.654665      6263.0513      260.17249      8005.4245      1.2107476      0.65388546   
   2189200  -4632.0362     -4664.2277      32.19159       4914.1168      256.48299      8007.0685      1.210499       0.65388546   
   2189300  -4632.7906     -4664.7634      31.972785      3673.2549      254.73968      8011.7313      1.2097945      0.65388546   
   2189400  -4633.1279     -4665.8811      32.75328       9366.634       260.95819      8012.4109      1.2096919      0.65388546   
   2189500  -4633.1905     -4666.086       32.895496      4202.6782      262.09128      8009.7446      1.2100946      0.65388546   
   2189600  -4632.7823     -4666.2318      33.449513      3565.8556      266.50535      8004.6641      1.2108626      0.65388546   
   2189700  -4632.2832     -4665.0858      32.802605      6110.7731      261.35118      8000.7821      1.2114501      0.65388546   
   2189800  -4629.9619     -4663.5423      33.580474      6063.0244      267.54877      7998.5342      1.2117906      0.65388546   
   2189900  -4631.2693     -4664.9893      33.720036      7374.9631      268.66071      8000.2653      1.2115284      0.65388546   
   2190000  -4631.7463     -4664.7598      33.013471      5283.9238      263.03123      8003.1041      1.2110986      0.68990929   
   2190100  -4632.2741     -4664.2322      31.958153      4334.7797      254.6231       8005.8471      1.2106837      0.68990929   
   2190200  -4630.1351     -4663.082       32.946895      2472.9813      262.5008       8008.6413      1.2102613      0.68990929   
   2190300  -4630.3418     -4664.9757      34.633889      4957.4786      275.94173      8012.9179      1.2096153      0.68990929   
   2190400  -4630.8224     -4663.9947      33.172367      6791.5818      264.29722      8017.4882      1.2089258      0.68990929   
   2190500  -4630.6464     -4663.9035      33.257112      3110.3127      264.97241      8021.4591      1.2083273      0.68990929   
   2190600  -4631.895      -4664.0269      32.131889      5645.0696      256.00733      8024.8803      1.2078122      0.68990929   
   2190700  -4632.192      -4664.4958      32.303806      3917.4255      257.37705      8025.0934      1.2077801      0.68990929   
   2190800  -4632.1301     -4664.8609      32.730755      787.41135      260.77872      8021.2084      1.2083651      0.68990929   
   2190900  -4632.7034     -4665.0657      32.36237       4537.1155      257.84365      8015.3578      1.2092471      0.68990929   
   2191000  -4632.8998     -4664.0046      31.104862      6622.2778      247.8246       8007.0168      1.2105068      0.60348111   
   2191100  -4633.0153     -4665.2885      32.273119      1828.8204      257.13256      7999.1744      1.2116936      0.60348111   
   2191200  -4633.8292     -4665.9813      32.152157      893.35288      256.1688       7992.8825      1.2126474      0.60348111   
   2191300  -4633.5463     -4665.7434      32.197083      6803.5165      256.52675      7989.0311      1.213232       0.60348111   
   2191400  -4632.5206     -4664.9846      32.463982      7943.4175      258.65323      7986.7072      1.213585       0.60348111   
   2191500  -4631.6178     -4664.9639      33.346098      6133.7845      265.6814       7988.2397      1.2133522      0.60348111   
   2191600  -4632.1512     -4665.3675      33.216293      3926.5687      264.6472       7998.0992      1.2118565      0.60348111   
   2191700  -4630.6801     -4664.5343      33.854152      4187.029       269.72927      8012.0564      1.2097454      0.60348111   
   2191800  -4631.367      -4664.2433      32.876265      4783.6657      261.93806      8024.6414      1.2078482      0.60348111   
   2191900  -4631.2479     -4665.1516      33.903651      5990.6491      270.12364      8032.6454      1.2066446      0.60348111   
   2192000  -4631.4691     -4665.0389      33.569752      4473.9609      267.46334      8031.0978      1.2068771      0.67288128   
   2192100  -4630.9275     -4663.801       32.873504      4161.389       261.91606      8021.8149      1.2082738      0.67288128   
   2192200  -4629.8352     -4663.8792      34.044043      6675.346       271.24221      8007.0281      1.2105051      0.67288128   
   2192300  -4630.0754     -4662.861       32.785528      7974.6386      261.21512      7991.6641      1.2128323      0.67288128   
   2192400  -4628.6545     -4664.1468      35.492296      5222.1172      282.781        7983.636       1.2140519      0.67288128   
   2192500  -4629.4153     -4664.6739      35.258556      4201.0859      280.9187       7986.8037      1.2135704      0.67288128   
   2192600  -4629.1765     -4663.69        34.513557      4081.2101      274.983        7997.1935      1.2119937      0.67288128   
   2192700  -4629.3856     -4663.5556      34.170042      4009.9583      272.24608      8009.1853      1.2101791      0.67288128   
   2192800  -4630.7639     -4664.6676      33.903716      3605.7993      270.12416      8018.1339      1.2088285      0.67288128   
   2192900  -4630.4405     -4663.113       32.67259       4770.9426      260.3153       8019.1922      1.2086689      0.67288128   
   2193000  -4630.0738     -4664.0771      34.003336      2127.2519      270.91787      8017.4157      1.2089367      0.73552599   
   2193100  -4631.3605     -4665.392       34.031519      3907.7374      271.14241      8011.7914      1.2097854      0.73552599   
   2193200  -4630.7912     -4665.1175      34.3263        3425.0021      273.49106      8008.8406      1.2102312      0.73552599   
   2193300  -4632.888      -4665.5181      32.630094      1598.3046      259.97672      8005.3539      1.2107583      0.73552599   
   2193400  -4633.6373     -4664.9658      31.328478      6366.2418      249.60623      8000.81        1.2114459      0.73552599   
   2193500  -4632.0061     -4664.6893      32.683171      5301.1913      260.3996       7998.8346      1.2117451      0.73552599   
   2193600  -4631.8883     -4665.8272      33.938852      4119.2096      270.40411      7997.957       1.211878       0.73552599   
   2193700  -4630.6321     -4664.5707      33.938567      2956.4734      270.40183      8001.7162      1.2113087      0.73552599   
   2193800  -4631.4292     -4664.747       33.317711      1526.5478      265.45523      8009.3676      1.2101515      0.73552599   
   2193900  -4630.4632     -4663.8321      33.368859      3828.6729      265.86275      8019.2573      1.2086591      0.73552599   
   2194000  -4631.6485     -4665.5871      33.93863       3040.4582      270.40233      8030.4528      1.2069741      0.74560272   
   2194100  -4631.8922     -4665.0218      33.129669      4251.7569      263.95703      8037.374       1.2059347      0.74560272   
   2194200  -4631.0067     -4663.7813      32.774548      5572.2702      261.12764      8037.9457      1.205849       0.74560272   
   2194300  -4631.9089     -4664.4464      32.537504      5069.5942      259.23901      8030.7095      1.2069355      0.74560272   
   2194400  -4630.9869     -4663.7195      32.73257      -682.63962      260.79318      8015.3961      1.2092413      0.74560272   
   2194500  -4630.5041     -4664.0833      33.579241      2648.0673      267.53894      7992.2296      1.2127465      0.74560272   
   2194600  -4630.8166     -4663.9634      33.146816      5732.0843      264.09364      7970.3081      1.216082       0.74560272   
   2194700  -4631.3004     -4664.5913      33.290836      3721.6405      265.24111      7958.9807      1.2178128      0.74560272   
   2194800  -4632.0139     -4664.8706      32.856661      4365.7215      261.78186      7957.9833      1.2179654      0.74560272   
   2194900  -4631.6355     -4664.6809      33.045372      7729.3681      263.2854       7964.0367      1.2170396      0.74560272   
   2195000  -4632.1088     -4664.6184      32.509564      5368.0137      259.01641      7975.0539      1.2153584      0.69186664   
   2195100  -4631.464      -4665.1433      33.679329      5060.7428      268.33638      7986.6992      1.2135863      0.69186664   
   2195200  -4631.1708     -4664.2366      33.065835      3774.8878      263.44844      7996.6898      1.2120701      0.69186664   
   2195300  -4631.5312     -4664.1127      32.581452      6504.1323      259.58916      8007.4312      1.2104442      0.69186664   
   2195400  -4631.369      -4664.3395      32.970532      6739.7075      262.68912      8018.3944      1.2087892      0.69186664   
   2195500  -4632.2942     -4666.5533      34.259093      4555.6097      272.95559      8024.1994      1.2079147      0.69186664   
   2195600  -4632.5945     -4665.9816      33.387153      6927.87        266.0085       8018.659       1.2087493      0.69186664   
   2195700  -4631.8722     -4664.821       32.948813      1341.3067      262.51608      8007.8222      1.2103851      0.69186664   
   2195800  -4631.3335     -4664.4363      33.102866      5761.8509      263.74348      7999.1799      1.2116928      0.69186664   
   2195900  -4630.2572     -4664.575       34.317767      3471.0814      273.42307      7997.3973      1.2119628      0.69186664   
   2196000  -4630.7037     -4664.2884      33.58469       6140.2354      267.58235      8002.3639      1.2112107      0.63009615   
   2196100  -4630.906      -4665.2393      34.333275      7003.4922      273.54663      8010.0916      1.2100421      0.63009615   
   2196200  -4631.3118     -4664.5475      33.235703      7410.8084      264.80185      8017.9983      1.2088489      0.63009615   
   2196300  -4631.9626     -4666.2724      34.309762      4392.9176      273.35929      8021.2659      1.2083565      0.63009615   
   2196400  -4632.1312     -4665.2692      33.138006      5604.3909      264.02345      8016.6198      1.2090568      0.63009615   
   2196500  -4631.43       -4665.241       33.811019      5338.561       269.38561      8008.6572      1.2102589      0.63009615   
   2196600  -4629.5738     -4663.0387      33.464867      5542.2864      266.62768      8000.8859      1.2114344      0.63009615   
   2196700  -4630.4618     -4664.7323      34.270458      4967.8756      273.04614      7996.5757      1.2120874      0.63009615   
   2196800  -4629.6763     -4663.9915      34.315208      4400.8208      273.40268      7995.766       1.2122101      0.63009615   
   2196900  -4629.6504     -4663.8201      34.169784      5471.3099      272.24403      7997.2936      1.2119786      0.63009615   
   2197000  -4630.195      -4664.0921      33.897126      4193.2683      270.07166      8002.4701      1.2111946      0.64399529   
   2197100  -4631.2325     -4664.2183      32.985729      2887.1832      262.8102       8011.1788      1.2098779      0.64399529   
   2197200  -4631.4764     -4665.3145      33.83817       6886.3496      269.60193      8018.7049      1.2087424      0.64399529   
   2197300  -4631.0112     -4663.4241      32.412887      5412.5229      258.24614      8022.6913      1.2081418      0.64399529   
   2197400  -4629.5538     -4662.7964      33.242646      5272.8038      264.85716      8021.7708      1.2082804      0.64399529   
   2197500  -4630.321      -4663.2959      32.974852      5546.4512      262.72354      8019.2016      1.2086675      0.64399529   
   2197600  -4630.802      -4663.7328      32.930871      8960.0722      262.37312      8015.6824      1.2091982      0.64399529   
   2197700  -4631.9657     -4665.7679      33.802191      4747.4822      269.31528      8012.8654      1.2096233      0.64399529   
   2197800  -4633.5919     -4665.7154      32.123507      3441.4682      255.94054      8007.4078      1.2104477      0.64399529   
   2197900  -4633.0441     -4665.8523      32.808223      2146.6887      261.39594      8001.4227      1.2113531      0.64399529   
   2198000  -4632.7895     -4664.0789      31.289385      5324.8026      249.29477      7997.0832      1.2120105      0.806072     
   2198100  -4631.7903     -4663.8821      32.091811      7712.2395      255.68801      7994.8669      1.2123464      0.806072     
   2198200  -4631.8609     -4665.0906      33.229697      5000.9163      264.75399      7993.3781      1.2125722      0.806072     
   2198300  -4631.9624     -4666.0875      34.125115      4965.6519      271.88813      7996.6577      1.2120749      0.806072     
   2198400  -4630.3802     -4664.6883      34.308096      5483.3381      273.34602      8003.3269      1.2110649      0.806072     
   2198500  -4630.6468     -4665.2146      34.567879      4438.6539      275.41581      8012.1201      1.2097358      0.806072     
   2198600  -4630.75       -4664.9588      34.208798      4410.5273      272.55487      8018.2123      1.2088166      0.806072     
   2198700  -4632.2408     -4664.7613      32.520488      5452.8526      259.10344      8022.941       1.2081042      0.806072     
   2198800  -4632.4383     -4665.6146      33.176292      4541.7839      264.32849      8026.7703      1.2075278      0.806072     
   2198900  -4632.2192     -4665.3172      33.098021      5478.6471      263.70487      8024.1683      1.2079194      0.806072     
   2199000  -4631.0949     -4664.3374      33.24251       3879.772       264.85608      8013.0549      1.2095947      0.62587357   
   2199100  -4630.4556     -4663.957       33.501402      4310.1276      266.91877      7998.3378      1.2118203      0.62587357   
   2199200  -4629.7959     -4662.9131      33.117137      8802.3751      263.85718      7984.2698      1.2139555      0.62587357   
   2199300  -4629.5908     -4663.1902      33.599415      5982.5887      267.69968      7973.346       1.2156187      0.62587357   
   2199400  -4629.6375     -4663.8627      34.225244      3547.6819      272.6859       7968.4988      1.2163581      0.62587357   
   2199500  -4629.8242     -4663.9746      34.150391      5706.924       272.08952      7973.6915      1.215566       0.62587357   
   2199600  -4630.0923     -4664.1982      34.105905      6812.6077      271.73508      7987.3949      1.2134806      0.62587357   
   2199700  -4629.6367     -4664.1695      34.532775      1828.5439      275.13612      8007.6441      1.210412       0.62587357   
   2199800  -4630.619      -4664.6902      34.071202      3239.6571      271.45859      8027.5959      1.2074036      0.62587357   
   2199900  -4629.5275     -4663.94        34.412552      6080.595       274.17826      8043.5672      1.2050062      0.62587357   
   2200000  -4628.7974     -4663.6244      34.826977      6692.9599      277.48014      8052.9322      1.2036049      0.61591888   
   2200100  -4628.8378     -4662.6223      33.784534      6668.8029      269.17459      8055.8085      1.2031751      0.61591888   
   2200200  -4629.1379     -4663.4041      34.266276      2953.4331      273.01282      8055.8889      1.2031631      0.61591888   
   2200211  -4629.4061     -4662.4871      33.081026      6466.101       263.56947      8055.402       1.2032358      0.61591888   
Loop time of 6906 on 1 procs for 2000000 steps with 972 atoms

Performance: 12.511 ns/day, 1.918 hours/ns, 289.603 timesteps/s, 281.494 katom-step/s
99.8% CPU use with 1 MPI tasks x 1 OpenMP threads

MPI task timing breakdown:
Section |  min time  |  avg time  |  max time  |%varavg| %total
---------------------------------------------------------------
Pair    | 4923.3     | 4923.3     | 4923.3     |   0.0 | 71.29
Neigh   | 76.24      | 76.24      | 76.24      |   0.0 |  1.10
Comm    | 91.11      | 91.11      | 91.11      |   0.0 |  1.32
Output  | 4.6086     | 4.6086     | 4.6086     |   0.0 |  0.07
Modify  | 1764.4     | 1764.4     | 1764.4     |   0.0 | 25.55
Other   |            | 46.43      |            |       |  0.67

Nlocal:            972 ave         972 max         972 min
Histogram: 1 0 0 0 0 0 0 0 0 0
Nghost:           3848 ave        3848 max        3848 min
Histogram: 1 0 0 0 0 0 0 0 0 0
Neighs:              0 ave           0 max           0 min
Histogram: 1 0 0 0 0 0 0 0 0 0
FullNghs:       134142 ave      134142 max      134142 min
Histogram: 1 0 0 0 0 0 0 0 0 0

Total # of neighbors = 134142
Ave neighs/atom = 138.00617
Neighbor list builds = 198156
Dangerous builds = 188936
Total wall time: 2:06:42
