LAMMPS (7 Feb 2024 - Update 1)
KOKKOS mode with Kokkos version 4.2.0 is enabled (src/KOKKOS/kokkos.cpp:72)
  will use up to 2 GPU(s) per node
  using 1 OpenMP thread(s) per MPI task
package kokkos
package kokkos newton on neigh half

units		metal						## E in [eV], t in [ps], P in [10000 Pa], l in [A]
atom_style	atomic						## mass x y z vx vy vz

neighbor	0.5 bin						## neighbor list, skin = 0.5 Angstrom
neigh_modify	every 2 delay 10 check yes			## update of neighbor list

############################## main variables
variable        seed equal 84338

variable	temperature equal 300
variable	tempDamp equal 0.1

variable        pressure equal 1000
variable        pressureDamp equal 1.0 				# This is 1 ps

##############################

read_data water.dat
Reading data file ...
  orthogonal box = (0 0 0) to (18.207572 23.629178 22.213196)
  1 by 2 by 1 MPI processor grid
  reading atoms ...
  864 atoms
  read_data CPU = 0.010 seconds

mass		1 1.008    # H
mass		2 15.9994  # O


pair_style	pace/extrapolation
ACE/AL version: 2023.11.25
pair_coeff	* * /home/cicn/cicn607503/pd/pot_dir/interim_potential_ladder_step_5.yaml /home/cicn/cicn607503/pd/pot_dir/interim_potential_ladder_step_5.asi H O
Loading /home/cicn/cicn607503/pd/pot_dir/interim_potential_ladder_step_5.yaml
Total number of basis functions
	H: 24 (r=1) 863 (r>1)
	O: 24 (r=1) 863 (r>1)
Mapping LAMMPS atom type #1(H) -> ACE species type #0
Mapping LAMMPS atom type #2(O) -> ACE species type #1
Loading ASI /home/cicn/cicn607503/pd/pot_dir/interim_potential_ladder_step_5.asi
LINEAR ASI is loaded

fix pace_gamma all pair 1000 pace/extrapolation gamma 1
compute max_pace_gamma all reduce max f_pace_gamma
variable dump_skip equal "c_max_pace_gamma < 10"

dump pace_dump all custom 1000 extrapolative_structures.dump id type x y z f_pace_gamma
dump_modify pace_dump skip v_dump_skip
dump_modify pace_dump element H O

variable max_pace_gamma equal c_max_pace_gamma

timestep	0.0005						## timestep = 0.0005*ps = 0.5 fs

thermo		100
thermo_style custom step etotal pe ke press temp vol density c_max_pace_gamma


min_style cg/kk
minimize 0.0 5.0e-4 10000 100000
Switching to 'neigh_modify every 1 delay 0 check yes' setting during minimization
Neighbor list info ...
  update: every = 1 steps, delay = 0 steps, check = yes
  max neighbors/atom: 2000, page size: 100000
  master list distance cutoff = 6.5
  ghost atom cutoff = 6.5
  binsize = 6.5, bins = 3 4 4
  1 neighbor lists, perpetual/occasional/extra = 1 0 0
  (1) pair pace/extrapolation/kk, perpetual
      attributes: full, newton on, kokkos_device
      pair build: full/bin/kk/device
      stencil: full/bin/3d
      bin: kk/device
WARNING: Fix with atom-based arrays not compatible with sending data in Kokkos communication, switching to classic exchange/border communication (src/KOKKOS/comm_kokkos.cpp:666)
WARNING: Fix with atom-based arrays not compatible with Kokkos sorting on device, switching to classic host sorting (src/KOKKOS/atom_kokkos.cpp:218)
Per MPI rank memory allocation (min/avg/max) = 449.3 | 453 | 456.7 Mbytes
   Step         TotEng         PotEng         KinEng         Press           Temp          Volume        Density     c_max_pace_gamma
         0  -4180.7249     -4180.7249      0              931.57303      0              9556.7825      0.90151666     0.51848273   
       100  -4182.8568     -4182.8568      0             -5818.1351      0              9556.7825      0.90151666     0.51848273   
       191  -4182.8571     -4182.8571      0             -5809.5218      0              9556.7825      0.90151666     0.51848273   
Loop time of 0.669422 on 2 procs for 191 steps with 864 atoms

99.6% CPU use with 2 MPI tasks x 1 OpenMP threads

Minimization stats:
  Stopping criterion = force tolerance
  Energy initial, next-to-last, final = 
      -4180.7249004513  -4182.85708343912  -4182.85708344367
  Force two-norm initial, final = 6.5563152 0.00040677855
  Force max component initial, final = 0.28078875 3.6224289e-05
  Final line search alpha, max atom move = 1 3.6224289e-05
  Iterations, force evaluations = 191 382

MPI task timing breakdown:
Section |  min time  |  avg time  |  max time  |%varavg| %total
---------------------------------------------------------------
Pair    | 0.45887    | 0.46064    | 0.46241    |   0.3 | 68.81
Neigh   | 0          | 0          | 0          |   0.0 |  0.00
Comm    | 0.06776    | 0.069608   | 0.071455   |   0.7 | 10.40
Output  | 0.000153   | 0.00015358 | 0.00015416 |   0.0 |  0.02
Modify  | 0.090192   | 0.090957   | 0.091722   |   0.3 | 13.59
Other   |            | 0.04806    |            |       |  7.18

Nlocal:            432 ave         436 max         428 min
Histogram: 1 0 0 0 0 0 0 0 0 1
Nghost:           2169 ave        2174 max        2164 min
Histogram: 1 0 0 0 0 0 0 0 0 1
Neighs:              0 ave           0 max           0 min
Histogram: 2 0 0 0 0 0 0 0 0 0
FullNghs:        45636 ave       46083 max       45189 min
Histogram: 1 0 0 0 0 0 0 0 0 1

Total # of neighbors = 91272
Ave neighs/atom = 105.63889
Neighbor list builds = 0
Dangerous builds = 0

################## equilibration of main calculation
# Equilibrate to specified number of ice

fix             3 all nph aniso ${pressure} ${pressure} ${pressureDamp}
fix             3 all nph aniso 1000 ${pressure} ${pressureDamp}
fix             3 all nph aniso 1000 1000 ${pressureDamp}
fix             3 all nph aniso 1000 1000 1
fix             4 all temp/csvr ${temperature} ${temperature} ${tempDamp} ${seed}
fix             4 all temp/csvr 300 ${temperature} ${tempDamp} ${seed}
fix             4 all temp/csvr 300 300 ${tempDamp} ${seed}
fix             4 all temp/csvr 300 300 0.1 ${seed}
fix             4 all temp/csvr 300 300 0.1 84338
velocity 	all create ${temperature} ${seed} dist gaussian
velocity 	all create 300 ${seed} dist gaussian
velocity 	all create 300 84338 dist gaussian

run 200000
WARNING: Fix with atom-based arrays not compatible with sending data in Kokkos communication, switching to classic exchange/border communication (src/KOKKOS/comm_kokkos.cpp:666)
WARNING: Fix with atom-based arrays not compatible with Kokkos sorting on device, switching to classic host sorting (src/KOKKOS/atom_kokkos.cpp:218)
Per MPI rank memory allocation (min/avg/max) = 453.3 | 454.9 | 456.4 Mbytes
   Step         TotEng         PotEng         KinEng         Press           Temp          Volume        Density     c_max_pace_gamma
       191  -4149.3916     -4182.8571      33.465452     -2069.2421      300            9556.7825      0.90151666     0.51848273   
       200  -4149.3755     -4172.7357      23.360202     -9485.3755      209.4118       9556.5407      0.90153946     0.51848273   
       300  -4142.2827     -4162.4864      20.203636     -1569.7143      181.11486      9518.8461      0.90510956     0.51848273   
       400  -4135.1593     -4156.8377      21.67842      -655.16758      194.33552      9431.1928      0.91352162     0.51848273   
       500  -4128.071      -4154.9731      26.902099     -1406.6142      241.16303      9309.6344      0.92544973     0.51848273   
       600  -4125.7434     -4155.1487      29.405271      4398.723       263.60264      9193.1119      0.93717978     0.51848273   
       700  -4122.9731     -4153.6581      30.685009      2907.3122      275.07481      9123.7771      0.94430174     0.51848273   
       800  -4122.2635     -4152.4953      30.231833      2551.9305      271.01233      9119.5738      0.94473698     0.51848273   
       900  -4121.3163     -4151.8036      30.487284      4101.0428      273.30231      9175.9953      0.93892796     0.51848273   
      1000  -4121.0857     -4150.4621      29.376413      2496.3211      263.34394      9270.7821      0.92932813     0.79520494   
      1100  -4119.7767     -4149.7533      29.97657       291.96467      268.72403      9378.6046      0.91864397     0.79520494   
      1200  -4117.0999     -4149.622       32.522089      273.01754      291.54326      9477.1974      0.90908718     0.79520494   
      1300  -4115.4302     -4148.0279      32.597651      42.615755      292.22063      9548.0986      0.90233658     0.79520494   
      1400  -4115.5568     -4148.3998      32.84302      -526.24572      294.42023      9586.8677      0.89868754     0.79520494   
      1500  -4114.0074     -4148.2568      34.249356     -526.46114      307.02728      9592.0366      0.89820327     0.79520494   
      1600  -4114.2568     -4147.677       33.420277      2228.1261      299.59503      9573.7247      0.89992128     0.79520494   
      1700  -4114.3528     -4146.6689      32.316072      968.73959      289.69643      9539.5547      0.90314474     0.79520494   
      1800  -4114.5951     -4147.2683      32.673223      852.56105      292.89809      9492.6203      0.90761016     0.79520494   
      1900  -4113.8793     -4147.842       33.962708      1179.0886      304.45764      9440.5604      0.91261517     0.79520494   
      2000  -4114.2549     -4147.3491      33.094253      908.34663      296.67241      9398.7637      0.9166736      0.70933082   
      2100  -4113.3474     -4146.9405      33.593076      964.14455      301.14409      9373.9883      0.91909637     0.70933082   
      2200  -4113.9155     -4146.356       32.440563      3229.7229      290.81242      9368.1967      0.91966457     0.70933082   
      2300  -4113.7244     -4146.8348      33.110453     -740.3184       296.81762      9382.8035      0.91823287     0.70933082   
      2400  -4114.5244     -4147.8842      33.359732      581.03656      299.05228      9410.9178      0.91548973     0.70933082   
      2500  -4114.2026     -4146.1984      31.995759      2322.7669      286.82498      9445.0238      0.91218389     0.70933082   
      2600  -4113.4604     -4145.9091      32.448735      2739.0411      290.88567      9484.4275      0.90839416     0.70933082   
      2700  -4112.3884     -4146.1365      33.748135     -786.61212      302.5341       9523.1232      0.90470304     0.70933082   
      2800  -4110.773      -4145.8513      35.078258      321.40447      314.45795      9554.3069      0.90175025     0.70933082   
      2900  -4109.6041     -4144.6121      35.007999     -943.87747      313.82812      9575.4464      0.89975947     0.70933082   
      3000  -4111.6057     -4144.8654      33.259776      3254.2915      298.15623      9581.5864      0.8991829      0.77211238   
      3100  -4112.8015     -4146.1761      33.374585     -3139.8917      299.18543      9572.7187      0.90001585     0.77211238   
      3200  -4113.2819     -4145.5144      32.232503     -47.58882       288.94727      9545.8357      0.90255048     0.77211238   
      3300  -4112.6929     -4146.4818      33.788835      1877.6713      302.89896      9509.7768      0.90597275     0.77211238   
      3400  -4112.4982     -4145.0118      32.513537      324.56279      291.46659      9472.3533      0.90955208     0.77211238   
      3500  -4111.5063     -4145.1431      33.636774      3409.9425      301.53582      9439.3927      0.91272806     0.77211238   
      3600  -4111.9339     -4145.3733      33.43937       494.42952      299.76619      9418.2995      0.9147722      0.77211238   
      3700  -4113.3645     -4147.4362      34.07166       3299.3524      305.43434      9409.3727      0.91564006     0.77211238   
      3800  -4113.5457     -4147.5014      33.955674      567.44542      304.39459      9416.355       0.9149611      0.77211238   
      3900  -4113.8597     -4145.5415      31.681837      2333.3181      284.01084      9437.1358      0.91294634     0.77211238   
      4000  -4113.629      -4147.2975      33.668495      417.42426      301.82017      9470.826       0.90969876     0.65986499   
      4100  -4113.8642     -4145.6004      31.736159      1668.2099      284.49781      9504.9887      0.90642913     0.65986499   
      4200  -4112.6958     -4147.4113      34.715445      744.42617      311.20553      9531.855       0.90387429     0.65986499   
      4300  -4112.185      -4146.5701      34.385027      59.010275      308.24351      9548.4783      0.9023007      0.65986499   
      4400  -4112.6498     -4146.4153      33.76553       278.87319      302.69004      9554.9251      0.9016919      0.65986499   
      4500  -4110.77       -4145.0599      34.289938      1514.9813      307.39108      9547.3291      0.90240931     0.65986499   
      4600  -4111.0554     -4145.3174      34.262044      2223.4497      307.14103      9529.0685      0.9041386      0.65986499   
      4700  -4111.3987     -4146.2555      34.856818     -257.89654      312.47286      9505.9562      0.90633687     0.65986499   
      4800  -4112.8117     -4146.9937      34.182022     -1807.3297      306.42367      9483.7181      0.90846212     0.65986499   
      4900  -4113.5874     -4145.6115      32.024075      2272.2746      287.07882      9462.8195      0.91046845     0.65986499   
      5000  -4114.9748     -4148.7203      33.745534      1096.0397      302.51079      9450.2222      0.91168212     0.80056203   
      5100  -4115.0208     -4147.8324      32.811598      1584.7441      294.13855      9444.3306      0.91225085     0.80056203   
      5200  -4116.2837     -4148.1161      31.832348     -930.13774      285.3601       9443.8171      0.91230045     0.80056203   
      5300  -4116.1837     -4148.3096      32.125946      2829.5054      287.99204      9448.7242      0.91182666     0.80056203   
      5400  -4114.9844     -4147.294       32.309664      2671.5527      289.63898      9460.3306      0.91070799     0.80056203   
      5500  -4115.6363     -4148.1505      32.514195      1955.0456      291.47249      9476.8858      0.90911706     0.80056203   
      5600  -4115.2266     -4148.3291      33.10247       311.88445      296.74606      9489.1174      0.9079452      0.80056203   
      5700  -4113.337      -4146.3245      32.987526      4310.0498      295.71565      9494.0541      0.90747309     0.80056203   
      5800  -4113.2646     -4146.4179      33.153271      430.98963      297.20146      9498.5767      0.90704101     0.80056203   
      5900  -4113.5454     -4146.8122      33.266836     -1509.1664      298.21952      9504.7734      0.90644966     0.80056203   
      6000  -4112.4671     -4146.5516      34.08452      -2802.1349      305.54962      9508.8933      0.90605692     0.683354     
      6100  -4112.4695     -4146.1045      33.635041      894.57112      301.52028      9510.8641      0.90586918     0.683354     
      6200  -4112.8079     -4146.7173      33.909374      3388.4086      303.97953      9510.6508      0.90588948     0.683354     
      6300  -4112.3323     -4145.9235      33.591206      453.91039      301.12733      9509.738       0.90597644     0.683354     
      6400  -4112.914      -4145.9132      32.999167     -352.42171      295.82001      9507.9621      0.90614566     0.683354     
      6500  -4113.2752     -4146.8731      33.597883     -646.7269       301.18718      9507.3526      0.90620375     0.683354     
      6600  -4112.6263     -4146.608       33.981646      3808.6578      304.62741      9508.324       0.90611117     0.683354     
      6700  -4112.8119     -4145.402       32.59013       588.0422       292.15321      9510.0598      0.90594579     0.683354     
      6800  -4113.136      -4146.0902      32.954181      891.03079      295.41673      9509.5481      0.90599453     0.683354     
      6900  -4112.9975     -4146.7714      33.773837      870.5339       302.76451      9504.8176      0.90644544     0.683354     
      7000  -4114.3999     -4147.7454      33.345457      5081.8929      298.92431      9497.8827      0.90710728     0.702578     
      7100  -4113.1136     -4148.4202      35.30666      -563.08195      316.50546      9490.1251      0.90784879     0.702578     
      7200  -4114.1399     -4146.8873      32.747414      2071.0037      293.56318      9484.6623      0.90837167     0.702578     
      7300  -4113.4911     -4147.2527      33.761651      2568.055       302.65527      9478.9092      0.908923       0.702578     
      7400  -4113.5651     -4146.6548      33.089739      1050.0676      296.63194      9477.6368      0.90904503     0.702578     
      7500  -4112.9231     -4146.8981      33.975001      706.8077       304.56784      9480.7548      0.90874606     0.702578     
      7600  -4112.425      -4146.3294      33.904465     -3054.0536      303.93553      9489.0357      0.90795301     0.702578     
      7700  -4112.4088     -4146.8135      34.404793      176.11109      308.4207       9501.372       0.90677416     0.702578     
      7800  -4113.5996     -4146.8716      33.272026      1480.7326      298.26605      9512.7505      0.90568954     0.702578     
      7900  -4113.8667     -4145.8965      32.029828     -1504.2119      287.1304       9517.2028      0.90526584     0.702578     
      8000  -4113.9067     -4146.7399      32.833197     -938.36942      294.33217      9518.363       0.9051555      0.68405789   
      8100  -4114.3697     -4146.6011      32.231354      591.83749      288.93697      9510.3514      0.905918       0.68405789   
      8200  -4113.4758     -4146.6819      33.206071      2354.2556      297.67479      9490.6014      0.90780323     0.68405789   
      8300  -4113.3776     -4147.0844      33.706848      2340.254       302.16399      9469.0879      0.90986573     0.68405789   
      8400  -4113.9721     -4147.6097      33.637613      1029.0566      301.54334      9450.7541      0.9116308      0.68405789   
      8500  -4114.7656     -4147.7121      32.94649       1856.663       295.34778      9435.8556      0.91307021     0.68405789   
      8600  -4113.3814     -4147.3849      34.003521      1552.7442      304.82351      9425.8396      0.91404044     0.68405789   
      8700  -4112.7499     -4147.0543      34.304381      2628.434       307.52056      9422.8228      0.91433308     0.68405789   
      8800  -4113.4831     -4146.5461      33.063046      890.21077      296.39265      9428.6056      0.9137723      0.68405789   
      8900  -4114.8225     -4147.4719      32.649424      1454.3422      292.68475      9444.4725      0.91223714     0.68405789   
      9000  -4113.6926     -4146.9877      33.295071      1292.1674      298.47263      9464.427       0.9103138      0.69973308   
      9100  -4114.3305     -4148.0542      33.723693      1615.9528      302.315        9486.9134      0.90815614     0.69973308   
      9200  -4115.2257     -4147.8396      32.613867      2776.6475      292.366        9508.0858      0.90613387     0.69973308   
      9300  -4115.1804     -4146.9851      31.804723     -1642.9152      285.11245      9520.8748      0.90491669     0.69973308   
      9400  -4113.9206     -4146.2698      32.34924       2791.5607      289.99376      9523.2921      0.904687       0.69973308   
      9500  -4113.7142     -4146.2903      32.576064      117.81229      292.02711      9516.9816      0.90528688     0.69973308   
      9600  -4113.255      -4146.799       33.543978     -3972.2327      300.70394      9501.8447      0.90672904     0.69973308   
      9700  -4113.1637     -4145.6097      32.446028      1825.0543      290.86141      9486.9959      0.90814824     0.69973308   
      9800  -4112.4397     -4145.5767      33.136966      3957.7165      297.0553       9471.9404      0.90959173     0.69973308   
      9900  -4112.9368     -4146.6351      33.69832       1052.5729      302.08754      9459.4891      0.91078899     0.69973308   
     10000  -4110.8247     -4145.7946      34.969829      516.97338      313.48594      9450.9112      0.91161566     0.81812338   
     10100  -4112.5475     -4145.9111      33.36353      -1036.5532      299.08633      9450.3383      0.91167091     0.81812338   
     10200  -4113.3938     -4146.8437      33.449976      1681.9377      299.86127      9454.308       0.91128813     0.81812338   
     10300  -4114.5419     -4147.2044      32.66256       1236.4625      292.8025       9459.1466      0.91082198     0.81812338   
     10400  -4112.1878     -4146.1851      33.997313      2222.5227      304.76785      9462.1013      0.91053756     0.81812338   
     10500  -4112.5746     -4145.5554      32.980824      293.36407      295.65557      9464.2333      0.91033244     0.81812338   
     10600  -4113.4971     -4146.553       33.055927     -663.77699      296.32883      9461.684       0.91057771     0.81812338   
     10700  -4113.755      -4147.0754      33.320399      917.2466       298.69968      9456.9022      0.91103814     0.81812338   
     10800  -4114.0573     -4146.7458      32.688489      3428.7572      293.03494      9451.3463      0.91157369     0.81812338   
     10900  -4113.7512     -4147.6556      33.904435      623.03431      303.93526      9448.6365      0.91183512     0.81812338   
     11000  -4113.4513     -4147.1958      33.744476     -1650.7274      302.5013       9452.1757      0.9114937      0.81390373   
     11100  -4113.3699     -4146.9607      33.590833      610.53786      301.12397      9455.97        0.91112795     0.81390373   
     11200  -4112.7271     -4145.4729      32.745785      4749.9984      293.54857      9455.8735      0.91113725     0.81390373   
     11300  -4113.0275     -4147.0062      33.97867       1092.9576      304.60073      9452.7258      0.91144066     0.81390373   
     11400  -4113.1042     -4145.8518      32.747684     -540.2637       293.5656       9444.7829      0.91220716     0.81390373   
     11500  -4110.986      -4146.0529      35.066941     -55.214398      314.3565       9437.732       0.91288867     0.81390373   
     11600  -4111.6117     -4146.1854      34.573698      1555.346       309.93484      9436.4715      0.91301061     0.81390373   
     11700  -4112.6597     -4145.6721      33.012379      755.54195      295.93845      9444.7172      0.91221351     0.81390373   
     11800  -4113.5747     -4147.1298      33.555159      274.07144      300.80418      9457.064       0.91102255     0.81390373   
     11900  -4113.8229     -4146.3656      32.54274       482.6718       291.72838      9465.4455      0.91021586     0.81390373   
     12000  -4112.2781     -4145.9013      33.623263      262.05104      301.4147       9472.1345      0.90957308     0.85535889   
     12100  -4111.3382     -4145.0567      33.71845       1648.1123      302.268        9485.1729      0.90832278     0.85535889   
     12200  -4111.3354     -4145.8941      34.558689      3137.7447      309.80029      9508.1348      0.9061292      0.85535889   
     12300  -4111.5133     -4144.6396      33.126325      1271.7773      296.95991      9534.6877      0.90360574     0.85535889   
     12400  -4113.1692     -4146.2863      33.117104     -390.19926      296.87725      9556.2148      0.90157021     0.85535889   
     12500  -4113.0976     -4147.3933      34.295729     -1852.4723      307.44299      9565.0007      0.90074208     0.85535889   
     12600  -4113.6831     -4146.1047      32.421584      2702.0932      290.64228      9556.577       0.90153604     0.85535889   
     12700  -4114.4148     -4146.621       32.206216      380.39369      288.71162      9531.5729      0.90390103     0.85535889   
     12800  -4114.2595     -4147.9014      33.641947     -489.90096      301.58218      9492.4507      0.90762637     0.85535889   
     12900  -4114.2517     -4148.171       33.919331      5311.6052      304.06879      9452.315       0.91148027     0.85535889   
     13000  -4112.3917     -4145.9091      33.51745       689.542        300.46613      9424.2984      0.91418992     0.8780052    
     13100  -4113.5593     -4147.2009      33.641523      2652.9972      301.57839      9408.9827      0.91567801     0.8780052    
     13200  -4112.564      -4145.2821      32.718072      1171.7723      293.30014      9409.7038      0.91560785     0.8780052    
     13300  -4111.9705     -4145.9269      33.956402      2128.6635      304.40111      9429.8145      0.91365515     0.8780052    
     13400  -4111.7914     -4146.0691      34.27762       1242.5116      307.28066      9464.2668      0.91032922     0.8780052    
     13500  -4113.3258     -4146.8567      33.530843      3254.6844      300.5862       9510.4262      0.90591089     0.8780052    
     13600  -4113.5595     -4146.5035      32.943998     -68.918645      295.32544      9561.1466      0.90110517     0.8780052    
     13700  -4113.2911     -4145.9946      32.703531      518.78397      293.16979      9606.2696      0.89687246     0.8780052    
     13800  -4113.1376     -4145.6368      32.499201      1254.552       291.33808      9632.8253      0.89439996     0.8780052    
     13900  -4114.2534     -4145.7556      31.502187     -200.59379      282.40038      9631.6894      0.89450544     0.8780052    
     14000  -4112.8999     -4146.6571      33.757243     -2648.7673      302.61576      9601.2325      0.89734298     0.74427115   
     14100  -4112.9497     -4147.2526      34.302867     -625.02749      307.50699      9551.843       0.90198286     0.74427115   
     14200  -4115.2259     -4147.8883      32.662382     -450.00215      292.80091      9497.9577      0.90710012     0.74427115   
     14300  -4113.9256     -4147.2633      33.337668      199.03016      298.85449      9446.0736      0.91208252     0.74427115   
     14400  -4115.1328     -4146.9056      31.772783      559.74912      284.82612      9405.0708      0.91605888     0.74427115   
     14500  -4113.3982     -4145.2157      31.817543      3191.3339      285.22738      9381.6412      0.91834663     0.74427115   
     14600  -4113.9171     -4146.7327      32.815655      1455.7684      294.17492      9382.9639      0.91821717     0.74427115   
     14700  -4112.6345     -4146.5733      33.938782      4243.7312      304.24316      9405.1522      0.91605095     0.74427115   
     14800  -4113.561      -4146.0337      32.472763      1651.3663      291.10107      9446.9432      0.91199856     0.74427115   
     14900  -4112.6856     -4147.0491      34.363493      253.26856      308.05046      9500.2866      0.90687775     0.74427115   
     15000  -4112.2501     -4146.7965      34.546384      616.23638      309.68998      9554.4388      0.9017378      0.79911708   
     15100  -4111.4964     -4145.9222      34.425808      2495.2934      308.60909      9598.3118      0.89761603     0.79911708   
     15200  -4111.4563     -4145.7478      34.29149      -905.50657      307.40499      9625.9771      0.89503626     0.79911708   
     15300  -4111.0646     -4145.1686      34.103934     -346.85589      305.72365      9631.1887      0.89455195     0.79911708   
     15400  -4110.568      -4144.4378      33.869818      756.25112      303.62493      9617.8585      0.89579178     0.79911708   
     15500  -4110.5438     -4144.8068      34.263049      1488.2072      307.15004      9587.5519      0.89862341     0.79911708   
     15600  -4110.1762     -4144.7121      34.535843      616.23998      309.59549      9549.5688      0.90219766     0.79911708   
     15700  -4110.2348     -4144.9187      34.683967      1653.8587      310.92334      9513.1655      0.90565003     0.79911708   
     15800  -4109.5639     -4144.4037      34.839847      1385.6816      312.32073      9485.8386      0.90825903     0.79911708   
     15900  -4109.7484     -4144.0824      34.333931      1769.6662      307.78546      9475.9917      0.90920284     0.79911708   
     16000  -4110.162      -4145.7653      35.603327      3296.886       319.16492      9484.5203      0.90838527     0.95913461   
     16100  -4111.2608     -4146.4371      35.176327     -2316.8277      315.33709      9502.1245      0.90670234     0.95913461   
     16200  -4111.3209     -4145.6565      34.335598     -1040.6382      307.80041      9520.5572      0.90494689     0.95913461   
     16300  -4111.4664     -4146.7684      35.302038      1575.6663      316.46402      9543.6915      0.90275325     0.95913461   
     16400  -4112.9543     -4146.0594      33.105045      1898.9999      296.76914      9566.7265      0.90057959     0.95913461   
     16500  -4113.0667     -4146.7174      33.650703     -79.880435      301.66068      9579.9206      0.89933925     0.95913461   
     16600  -4113.5866     -4145.8514      32.264827     -938.33039      289.23704      9579.5538      0.89937369     0.95913461   
     16700  -4112.985      -4145.9115      32.926553      1183.3177      295.16906      9571.2886      0.90015033     0.95913461   
     16800  -4112.7371     -4146.7437      34.006601      2343.713       304.85111      9556.19        0.90157255     0.95913461   
     16900  -4111.4759     -4146.4262      34.950314      2706.1338      313.31101      9536.8256      0.90340318     0.95913461   
     17000  -4111.7954     -4146.7076      34.912202      1385.2064      312.96935      9520.7379      0.90492971     0.86159332   
     17100  -4111.787      -4145.2429      33.455872     -105.25144      299.91412      9509.1182      0.90603549     0.86159332   
     17200  -4111.2569     -4145.3062      34.049323      759.3011       305.2341       9504.8661      0.90644082     0.86159332   
     17300  -4109.9787     -4144.1148      34.136092      1206.8586      306.01193      9507.7883      0.90616222     0.86159332   
     17400  -4110.967      -4146.5365      35.569534      3089.7843      318.86198      9521.8582      0.90482324     0.86159332   
     17500  -4110.1073     -4143.9195      33.812244      1701.3729      303.10881      9540.1083      0.90309233     0.86159332   
     17600  -4110.5258     -4145.1576      34.631756      943.18604      310.4553       9561.1792      0.90110209     0.86159332   
     17700  -4111.0381     -4144.4834      33.445325     -101.10159      299.81957      9575.6957      0.89973605     0.86159332   
     17800  -4110.4359     -4145.6239      35.188066     -317.65173      315.44232      9583.5822      0.89899564     0.86159332   
     17900  -4111.3674     -4146.9175      35.550046     -435.24571      318.68728      9592.1464      0.89819298     0.86159332   
     18000  -4112.2257     -4146.1886      33.96291      -172.88586      304.45945      9596.4982      0.89778568     0.75051479   
     18100  -4112.3712     -4145.944       33.572739      2410.4491      300.96177      9590.8266      0.89831658     0.75051479   
     18200  -4113.2881     -4146.1459      32.857791      2397.0204      294.55265      9575.5161      0.89975292     0.75051479   
     18300  -4113.9        -4147.4348      33.534818      57.051166      300.62183      9551.8785      0.9019795      0.75051479   
     18400  -4112.9792     -4146.451       33.471833      722.02945      300.05721      9528.2668      0.90421466     0.75051479   
     18500  -4112.3625     -4145.8409      33.478427      1216.8065      300.11632      9503.5798      0.90656351     0.75051479   
     18600  -4112.4849     -4146.2586      33.773787      2584.1193      302.76406      9480.6296      0.90875806     0.75051479   
     18700  -4110.926      -4145.68        34.754013     -12.875862      311.55127      9466.8993      0.91007608     0.75051479   
     18800  -4112.9433     -4147.0102      34.066963      726.6179       305.39223      9469.1089      0.90986371     0.75051479   
     18900  -4112.9883     -4146.0915      33.10323       3311.006       296.75287      9481.2364      0.9086999      0.75051479   
     19000  -4114.6894     -4148.171       33.48163      -368.65785      300.14503      9497.446       0.90714899     0.71035316   
     19100  -4115.0595     -4148.2183      33.158781      1523.6041      297.25086      9508.5901      0.90608581     0.71035316   
     19200  -4114.2127     -4146.3342      32.121525      1693.839       287.95242      9514.432       0.90552947     0.71035316   
     19300  -4114.9182     -4147.0901      32.171925     -185.09844      288.40422      9514.7831      0.90549606     0.71035316   
     19400  -4115.2811     -4147.3498      32.06871      -672.80522      287.47895      9510.4822      0.90590554     0.71035316   
     19500  -4116.2342     -4148.7321      32.49795       2494.2614      291.32686      9502.381       0.90667787     0.71035316   
     19600  -4114.748      -4147.5051      32.757087      1009.7104      293.64989      9492.7684      0.907596       0.71035316   
     19700  -4114.9739     -4147.2842      32.310293      881.50828      289.64462      9483.4901      0.90848396     0.71035316   
     19800  -4114.6009     -4147.5516      32.950767      1946.2346      295.38613      9477.829       0.90902659     0.71035316   
     19900  -4114.6219     -4148.0036      33.381723      5030.8362      299.24942      9482.2553      0.90860226     0.71035316   
     20000  -4114.2421     -4147.4336      33.191481      2262.7796      297.544        9499.1537      0.90698591     0.72635049   
     20100  -4115.1468     -4147.0014      31.85464       523.12362      285.55993      9522.4067      0.90477112     0.72635049   
     20200  -4113.8405     -4146.8957      33.055222      901.19755      296.32251      9540.2154      0.90308218     0.72635049   
     20300  -4114.2117     -4147.2989      33.087173      4280.9956      296.60893      9551.0649      0.90205634     0.72635049   
     20400  -4114.1912     -4146.5728      32.381524     -215.81563      290.28316      9558.4909      0.90135552     0.72635049   
     20500  -4113.5394     -4146.5741      33.034731      1156.5371      296.13882      9558.3033      0.90137322     0.72635049   
     20600  -4113.7215     -4145.9873      32.265815      1881.4721      289.2459       9550.5363      0.90210626     0.72635049   
     20700  -4113.3133     -4146.4361      33.122808      1396.6122      296.92838      9538.5679      0.90323817     0.72635049   
     20800  -4113.6126     -4146.3577      32.745117      895.67024      293.54258      9521.2939      0.90487686     0.72635049   
     20900  -4112.9581     -4145.4982      32.540116      967.4483       291.70486      9501.0117      0.90680854     0.72635049   
     21000  -4115.1013     -4148.0601      32.95877       3881.6525      295.45787      9486.7166      0.90817497     0.72590173   
     21100  -4115.5403     -4146.8488      31.308474      1542.5355      280.66384      9479.0947      0.90890521     0.72590173   
     21200  -4116.0634     -4148.4221      32.358776      1277.4591      290.07924      9481.8477      0.90864132     0.72590173   
     21300  -4115.1742     -4147.6951      32.520899     -498.83402      291.53259      9492.2958      0.90764119     0.72590173   
     21400  -4116.0679     -4147.6452      31.577358      1674.4178      283.07424      9506.2923      0.90630482     0.72590173   
     21500  -4115.9685     -4147.1186      31.150151      789.20257      279.24456      9519.248       0.90507135     0.72590173   
     21600  -4114.5035     -4148.2897      33.786155      1821.6973      302.87494      9531.9691      0.90386347     0.72590173   
     21700  -4115.2894     -4148.323       33.033601      1316.2708      296.12869      9543.4713      0.90277408     0.72590173   
     21800  -4115.6245     -4148.1623      32.537848      2137.0728      291.68453      9550.2239      0.90213577     0.72590173   
     21900  -4115.0921     -4148.0368      32.944614     -694.19585      295.33097      9549.5685      0.90219769     0.72590173   
     22000  -4114.3011     -4146.7854      32.484244      350.95203      291.204        9545.214       0.90260927     0.9044598    
     22100  -4113.7633     -4146.6122      32.84889      -383.03572      294.47285      9540.5497      0.90305054     0.9044598    
     22200  -4114.3756     -4146.9611      32.585538      1439.885       292.11204      9535.4799      0.90353067     0.9044598    
     22300  -4113.7056     -4147.332       33.626408      2117.9603      301.44289      9527.5444      0.90428323     0.9044598    
     22400  -4114.2053     -4147.8112      33.605856      495.98961      301.25865      9517.4435      0.90524294     0.9044598    
     22500  -4114.3571     -4147.6877      33.330633     -1081.2213      298.79142      9502.6818      0.90664918     0.9044598    
     22600  -4112.3036     -4145.8268      33.523285      2272.3481      300.51845      9491.1351      0.90775218     0.9044598    
     22700  -4112.7519     -4145.9377      33.185783      1244.9906      297.49292      9491.1119      0.9077544      0.9044598    
     22800  -4113.1262     -4145.6432      32.516936     -235.18356      291.49707      9498.2065      0.90707636     0.9044598    
     22900  -4112.7795     -4146.6242      33.844744      1617.5681      303.40015      9507.4831      0.90619131     0.9044598    
     23000  -4113.2374     -4146.168       32.930607      1283.3066      295.20541      9519.5661      0.9050411      0.68432      
     23100  -4113.0382     -4146.3635      33.325331      1244.8693      298.74389      9531.3676      0.9039205      0.68432      
     23200  -4112.2141     -4145.3694      33.155378      2204.7337      297.22036      9540.823       0.90302468     0.68432      
     23300  -4112.3632     -4147.291       34.927793     -2115.5206      313.10911      9551.1771      0.90204573     0.68432      
     23400  -4112.2277     -4146.8833      34.655553      1746.9071      310.66863      9561.3195      0.90108887     0.68432      
     23500  -4112.3284     -4147.721       35.39255       1135.9061      317.27542      9572.6816      0.90001934     0.68432      
     23600  -4111.8672     -4146.2711      34.4039       -2631.472       308.41269      9579.0243      0.8994234      0.68432      
     23700  -4111.7245     -4143.7791      32.05462      -1695.1353      287.35264      9581.3374      0.89920626     0.68432      
     23800  -4111.9101     -4144.8181      32.908001      3105.8346      295.00275      9581.77        0.89916566     0.68432      
     23900  -4111.7471     -4146.0022      34.255086      2283.5809      307.07866      9575.5312      0.89975151     0.68432      
     24000  -4111.653      -4146.5864      34.933355      3572.7997      313.15898      9566.0141      0.90064665     0.67039857   
     24100  -4112.7279     -4146.9228      34.194965      785.11192      306.5397       9559.0146      0.90130614     0.67039857   
     24200  -4111.9448     -4145.6604      33.715536     -847.39023      302.24187      9550.8922      0.90207265     0.67039857   
     24300  -4112.4779     -4146.0913      33.613403      27.621666      301.32631      9548.6385      0.90228555     0.67039857   
     24400  -4113.8023     -4146.8266      33.024383      2051.8746      296.04606      9546.2649      0.9025099      0.67039857   
     24500  -4113.4278     -4147.3784      33.950616      1382.7297      304.34924      9545.2199      0.9026087      0.67039857   
     24600  -4114.0241     -4146.82        32.795895      3066.5608      293.99778      9542.5845      0.90285798     0.67039857   
     24700  -4114.1726     -4147.0665      32.893903      2866.2366      294.87637      9539.5088      0.90314908     0.67039857   
     24800  -4113.0289     -4146.5284      33.499446      3758.5476      300.30474      9537.588       0.90333096     0.67039857   
     24900  -4112.0993     -4145.7605      33.661191     -10.873496      301.7547       9534.8224      0.90359298     0.67039857   
     25000  -4112.2656     -4146.3189      34.053271     -572.83303      305.26949      9530.2266      0.90402872     0.71827582   
     25100  -4112.1138     -4146.1939      34.080071      2690.8191      305.50974      9525.3141      0.90449496     0.71827582   
     25200  -4112.7811     -4146.8659      34.084791      2423.0655      305.55205      9524.0136      0.90461847     0.71827582   
     25300  -4112.6723     -4146.4304      33.758135      1427.0859      302.62375      9524.2764      0.90459351     0.71827582   
     25400  -4114.0806     -4147.6757      33.595028      1120.744       301.16158      9526.9756      0.90433722     0.71827582   
     25500  -4113.298      -4146.4378      33.139805      1648.9404      297.08075      9526.5219      0.90438029     0.71827582   
     25600  -4114.015      -4147.1371      33.122119     -768.87691      296.9222       9520.9949      0.90490528     0.71827582   
     25700  -4113.9867     -4146.8382      32.851503      2772.7701      294.49628      9507.0597      0.90623167     0.71827582   
     25800  -4112.7175     -4146.0017      33.284256      471.85679      298.37567      9489.9269      0.90786775     0.71827582   
     25900  -4113.9313     -4147.6656      33.734233      821.96601      302.40948      9477.282       0.90907906     0.71827582   
     26000  -4114.255      -4148.053       33.797951      1916.5502      302.98068      9474.6452      0.90933206     0.71551605   
     26100  -4113.6918     -4147.0616      33.369866      1890.3761      299.14313      9482.4903      0.90857975     0.71551605   
     26200  -4113.2233     -4146.0804      32.857143      3042.9042      294.54683      9499.7683      0.90692723     0.71551605   
     26300  -4113.6575     -4146.0428      32.385329     -499.52152      290.31728      9525.5894      0.90446882     0.71551605   
     26400  -4114.0914     -4147.0796      32.988217      1388.9362      295.72185      9552.6902      0.90190286     0.71551605   
     26500  -4113.9466     -4147.277       33.330372     -548.97612      298.78908      9569.3765      0.90033019     0.71551605   
     26600  -4112.7064     -4146.1389      33.432466     -190.14993      299.7043       9572.9505      0.89999406     0.71551605   
     26700  -4112.3512     -4147.0731      34.72192      -487.92448      311.26357      9566.0083      0.9006472      0.71551605   
     26800  -4113.7571     -4147.888       34.130925     -1179.8599      305.96562      9554.9814      0.90168659     0.71551605   
     26900  -4114.0399     -4148.3349      34.294962      1603.4191      307.43612      9538.4379      0.90325048     0.71551605   
     27000  -4113.712      -4147.0004      33.288426     -1378.6873      298.41306      9519.1647      0.90507926     0.67309527   
     27100  -4112.9047     -4146.779       33.874363     -1212.9887      303.66568      9500.706       0.90683772     0.67309527   
     27200  -4113.4701     -4146.8375      33.367451      2668.3141      299.12148      9484.1086      0.90842471     0.67309527   
     27300  -4113.249      -4148.2245      34.97549       1330.3752      313.53669      9476.453       0.90915858     0.67309527   
     27400  -4113.1171     -4146.1976      33.08052       2531.9776      296.54929      9476.2945      0.90917379     0.67309527   
     27500  -4113.8107     -4147.7006      33.889825      668.23115      303.80428      9488.4796      0.90800623     0.67309527   
     27600  -4114.3302     -4147.3439      33.013696      1222.1433      295.95025      9506.7881      0.90625756     0.67309527   
     27700  -4114.7249     -4148.6076      33.882711      4982.8682      303.74051      9530.1932      0.90403189     0.67309527   
     27800  -4115.3246     -4148.2407      32.916112     -1814.9395      295.07546      9554.2549      0.90175516     0.67309527   
     27900  -4115.0867     -4146.4906      31.403814     -873.69306      281.51851      9568.5963      0.90040361     0.67309527   
     28000  -4115.1257     -4147.6822      32.556558      192.19406      291.85225      9572.5855      0.90002837     0.68781037   
     28100  -4113.7883     -4146.4247      32.636351      1380.2451      292.56755      9564.17        0.90082031     0.68781037   
     28200  -4113.9037     -4146.5137      32.609974     -487.36561      292.3311       9547.2006      0.90242145     0.68781037   
     28300  -4114.129      -4147.4924      33.36344       2651.9147      299.08552      9522.4337      0.90476856     0.68781037   
     28400  -4114.4271     -4147.4395      33.012346      2552.8631      295.93815      9492.2863      0.90764209     0.68781037   
     28500  -4113.7021     -4146.591       32.888864      88.070253      294.8312       9462.4251      0.9105064      0.68781037   
     28600  -4114.2558     -4148.2321      33.976284      643.91943      304.57934      9443.0233      0.91237714     0.68781037   
     28700  -4113.1996     -4146.9998      33.80018       2760.2849      303.00067      9438.0901      0.91285403     0.68781037   
     28800  -4113.2056     -4146.0611      32.855508      5538.395       294.53218      9447.8567      0.91191038     0.68781037   
     28900  -4113.3892     -4148.0043      34.615098     -335.60692      310.30597      9468.7621      0.90989704     0.68781037   
     29000  -4114.2408     -4146.7572      32.516413      2255.0936      291.49237      9497.064       0.90718549     0.75027453   
     29100  -4114.6752     -4147.94        33.26479       2147.169       298.20117      9528.9808      0.90414692     0.75027453   
     29200  -4114.3554     -4147.2974      32.941997      411.51766      295.30751      9553.0732      0.9018667      0.75027453   
     29300  -4114.143      -4145.4492      31.306188      553.13972      280.64335      9565.5499      0.90069036     0.75027453   
     29400  -4113.5177     -4148.0168      34.499154      5351.4206      309.26659      9565.8701      0.90066021     0.75027453   
     29500  -4112.4238     -4145.6138      33.190034      2406.8617      297.53103      9557.1401      0.90148292     0.75027453   
     29600  -4112.531      -4145.2025      32.671435     -2399.2464      292.88207      9543.1085      0.90280841     0.75027453   
     29700  -4112.833      -4146.5017      33.668669     -797.70692      301.82174      9522.5323      0.90475918     0.75027453   
     29800  -4112.7556     -4146.2148      33.459207     -100.75719      299.94402      9501.2484      0.90678595     0.75027453   
     29900  -4114.2192     -4148.3841      34.164888      1518.9796      306.27007      9487.1984      0.90812885     0.75027453   
     30000  -4114.4585     -4146.541       32.082426     -350.3877       287.60191      9477.5413      0.90905419     0.66307743   
     30100  -4114.8232     -4147.2338      32.410563     -733.36581      290.54349      9474.9531      0.9093025      0.66307743   
     30200  -4115.2511     -4148.279       33.027958      835.21135      296.07811      9478.3859      0.90897318     0.66307743   
     30300  -4114.8311     -4147.9924      33.161245     -772.98748      297.27295      9483.9163      0.90844313     0.66307743   
     30400  -4115.2451     -4148.5931      33.348012      1553.8129      298.94722      9491.7571      0.9076927      0.66307743   
     30500  -4114.3016     -4147.9027      33.601169      2776.6268      301.21663      9498.3416      0.90706346     0.66307743   
     30600  -4113.5999     -4146.9447      33.344762      257.31736      298.91808      9502.5         0.90666652     0.66307743   
     30700  -4113.9846     -4147.6331      33.648564      1133.2346      301.64151      9504.1464      0.90650945     0.66307743   
     30800  -4112.6458     -4146.5451      33.899242      2524.3081      303.8887       9501.9302      0.90672089     0.66307743   
     30900  -4112.4027     -4146.7758      34.373064      1942.8023      308.13626      9499.116       0.90698951     0.66307743   
     31000  -4112.6076     -4146.4903      33.882769      2252.9119      303.74103      9497.3207      0.90716096     0.7696707    
     31100  -4112.7203     -4145.5946      32.87431       2804.4151      294.70073      9497.2823      0.90716463     0.7696707    
     31200  -4111.9771     -4147.2286      35.251508     -221.87471      316.01105      9504.5692      0.90646914     0.7696707    
     31300  -4112.9467     -4147.1252      34.178539     -1514.0593      306.39245      9518.1995      0.90517105     0.7696707    
     31400  -4113.472      -4147.16        33.68808      -550.39197      301.99574      9535.6833      0.9035114      0.7696707    
     31500  -4112.1893     -4144.5937      32.40445       2004.0248      290.48869      9545.7961      0.90255422     0.7696707    
     31600  -4112.2006     -4145.1128      32.912186      1818.6723      295.04026      9547.0906      0.90243184     0.7696707    
     31700  -4112.1318     -4146.0549      33.923107      2289.3325      304.10264      9539.5719      0.90314311     0.7696707    
     31800  -4111.1764     -4145.5644      34.388         2685.0927      308.27015      9527.2614      0.90431008     0.7696707    
     31900  -4111.8822     -4146.1115      34.229249      1917.9736      306.84704      9518.3862      0.90515329     0.7696707    
     32000  -4112.2075     -4145.9066      33.699084      531.80923      302.09439      9511.2475      0.90583266     0.77723696   
     32100  -4112.8322     -4145.826       32.993796     -1215.0274      295.77186      9502.9547      0.90662314     0.77723696   
     32200  -4113.5892     -4147.2322      33.64293      -1443.8714      301.591        9491.3249      0.90773403     0.77723696   
     32300  -4113.4274     -4148.275       34.84764       156.2911       312.39059      9481.2037      0.90870303     0.77723696   
     32400  -4113.0985     -4145.9176      32.819187     -95.664098      294.20658      9475.1174      0.90928674     0.77723696   
     32500  -4111.1005     -4144.9771      33.876517     -408.31995      303.68498      9473.1877      0.90947196     0.77723696   
     32600  -4112.6032     -4145.3482      32.745078      897.25425      293.54224      9476.3173      0.9091716      0.77723696   
     32700  -4111.7923     -4146.0825      34.290171      4215.5628      307.39317      9481.9207      0.90863432     0.77723696   
     32800  -4111.4783     -4146.0566      34.578326      504.57236      309.97633      9497.2862      0.90716425     0.77723696   
     32900  -4111.3399     -4145.2         33.860102      1049.1715      303.53783      9523.3964      0.9046771      0.77723696   
     33000  -4113.76       -4148.0152      34.2552       -514.80549      307.07968      9551.8312      0.90198397     0.83152358   
     33100  -4113.4237     -4145.812       32.388296      254.80163      290.34387      9570.0788      0.90026413     0.83152358   
     33200  -4113.4878     -4147.442       33.954245      2120.0158      304.38178      9572.5367      0.90003297     0.83152358   
     33300  -4112.7426     -4145.6415      32.8989       -1836.0547      294.92117      9561.0585      0.90111347     0.83152358   
     33400  -4112.9389     -4146.692       33.753086      958.03742      302.57849      9543.4393      0.90277712     0.83152358   
     33500  -4113.8977     -4146.315       32.417322     -3114.7709      290.60407      9521.7467      0.90483383     0.83152358   
     33600  -4113.0057     -4145.432       32.426256      3875.7741      290.68416      9498.8578      0.90701417     0.83152358   
     33700  -4111.1269     -4144.802       33.675109      1335.1882      301.87947      9475.4953      0.90925047     0.83152358   
     33800  -4110.7776     -4145.7468      34.969202      471.92054      313.48033      9457.1922      0.91101021     0.83152358   
     33900  -4109.37       -4145.0802      35.710218      1997.9817      320.12314      9450.8847      0.91161821     0.83152358   
     34000  -4110.8559     -4144.8362      33.980353      1974.0379      304.61582      9464.2793      0.91032801     0.71797804   
     34100  -4110.7104     -4144.9495      34.239124      516.71509      306.93556      9497.8936      0.90710624     0.71797804   
     34200  -4110.8321     -4143.9893      33.157219      1715.0644      297.23686      9538.5539      0.90323949     0.71797804   
     34300  -4110.9231     -4146.5653      35.642267     -308.05106      319.514        9578.6792      0.8994558      0.71797804   
     34400  -4112.1739     -4146.6859      34.512029     -1945.8503      309.38201      9603.9134      0.89709249     0.71797804   
     34500  -4112.8249     -4146.4182      33.593309      993.79208      301.14618      9610.6027      0.89646808     0.71797804   
     34600  -4112.6467     -4146.8862      34.239543      679.37176      306.93932      9597.5422      0.89768802     0.71797804   
     34700  -4112.7262     -4145.892       33.16585       269.15696      297.31423      9565.7126      0.90067504     0.71797804   
     34800  -4113.0489     -4146.3674      33.31855       3331.1013      298.68311      9523.6325      0.90465467     0.71797804   
     34900  -4112.5557     -4146.2604      33.704687      3494.6503      302.14462      9481.0584      0.90871696     0.71797804   
     35000  -4112.4776     -4145.3014      32.82383      -1599.3795      294.2482       9442.4115      0.91243626     0.76402667   
     35100  -4113.3068     -4146.0371      32.730337     -480.73866      293.41009      9410.3217      0.91554773     0.76402667   
     35200  -4112.2641     -4146.3285      34.064394      1661.7838      305.3692       9391.0143      0.91743003     0.76402667   
     35300  -4113.6347     -4146.2932      32.658445      1089.9789      292.76562      9391.406       0.91739177     0.76402667   
     35400  -4114.833      -4147.1884      32.355367     -1502.5466      290.04868      9415.9026      0.91500506     0.76402667   
     35500  -4115.4985     -4147.6574      32.158993      3726.9496      288.28829      9458.1388      0.91091903     0.76402667   
     35600  -4115.819      -4147.8712      32.052225      1098.1718      287.33118      9508.7995      0.90606586     0.76402667   
     35700  -4114.7806     -4146.8977      32.117074      693.5669       287.91252      9556.4514      0.90154789     0.76402667   
     35800  -4114.796      -4146.2206      31.424552      966.93262      281.70442      9596.7432      0.89776275     0.76402667   
     35900  -4113.5551     -4145.8395      32.284402     -602.66764      289.41251      9623.3672      0.895279       0.76402667   
     36000  -4114.4453     -4146.4952      32.049862     -1040.2038      287.30999      9630.2923      0.89463522     0.76811387   
     36100  -4114.2336     -4146.0269      31.793335      602.05997      285.01036      9614.5082      0.89610393     0.76811387   
     36200  -4114.3948     -4148.4908      34.095942     -872.20507      305.65202      9579.6182      0.89936764     0.76811387   
     36300  -4114.6373     -4147.8389      33.201589      926.84845      297.63461      9534.9491      0.90358097     0.76811387   
     36400  -4113.4238     -4146.9059      33.482143      5444.5486      300.14963      9490.7933      0.90778487     0.76811387   
     36500  -4113.1554     -4147.0555      33.900091      2595.7088      303.89631      9454.1324      0.91130505     0.76811387   
     36600  -4111.5515     -4145.6648      34.113288      290.70539      305.80751      9427.3955      0.91388959     0.76811387   
     36700  -4110.6721     -4145.7748      35.102611      4088.8241      314.67627      9419.4903      0.91465656     0.76811387   
     36800  -4112.0478     -4145.9672      33.919344      2139.2779      304.06891      9433.7945      0.91326969     0.76811387   
     36900  -4111.8966     -4145.8753      33.978682     -127.80908      304.60084      9465.8078      0.91018102     0.76811387   
     37000  -4110.8396     -4144.9973      34.157699      1808.9352      306.20563      9508.6854      0.90607673     0.71444076   
     37100  -4111.4003     -4145.5795      34.179184      688.06984      306.39823      9556.6753      0.90152677     0.71444076   
     37200  -4111.7169     -4145.5373      33.820377     -163.25977      303.18172      9600.1631      0.89744294     0.71444076   
     37300  -4111.2348     -4144.2372      33.002445     -1725.6828      295.8494       9628.422       0.89480899     0.71444076   
     37400  -4110.0745     -4143.9486      33.874134     -304.50549      303.66362      9634.4565      0.89424853     0.71444076   
     37500  -4108.6916     -4143.5546      34.862918     -1093.5547      312.52754      9624.0987      0.89521096     0.71444076   
     37600  -4109.9467     -4145.5994      35.652685      195.25929      319.60739      9604.7951      0.89701013     0.71444076   
     37700  -4111.3726     -4144.8784      33.505785      2476.7902      300.36157      9574.8512      0.8998154      0.71444076   
     37800  -4111.139      -4145.1313      33.992361      1887.2094      304.72346      9536.15        0.90346718     0.71444076   
     37900  -4110.8385     -4145.7454      34.906963      1415.8164      312.92239      9500.7442      0.90683408     0.71444076   
     38000  -4111.3946     -4146.141       34.746361      321.81804      311.48267      9477.5045      0.90905772     0.66391864   
     38100  -4112.0027     -4145.4775      33.474793      2312.5538      300.08374      9466.7729      0.91008823     0.66391864   
     38200  -4112.0224     -4144.3053      32.282873      2358.3654      289.39881      9467.8378      0.90998586     0.66391864   
     38300  -4113.2289     -4147.2317      34.002765      2000.2355      304.81673      9481.8262      0.90864337     0.66391864   
     38400  -4114.1069     -4145.9286      31.821701      2010.9374      285.26465      9503.0692      0.90661221     0.66391864   
     38500  -4114.6377     -4147.8078      33.170025      1072.7416      297.35166      9524.3485      0.90458666     0.66391864   
     38600  -4115.59       -4148.4339      32.843943      1250.8969      294.42851      9543.6935      0.90275307     0.66391864   
     38700  -4115.1814     -4148.2446      33.063203      1756.0256      296.39405      9557.2855      0.90146921     0.66391864   
     38800  -4114.5325     -4147.2573      32.724831      1360.3687      293.36073      9564.5365      0.90078579     0.66391864   
     38900  -4115.2095     -4146.5811      31.371675     -956.68753      281.2304       9564.0932      0.90082754     0.66391864   
     39000  -4114.9301     -4147.9398      33.009611      175.68718      295.91363      9558.3375      0.90137        0.65977599   
     39100  -4113.1653     -4146.9253      33.760038      1728.4434      302.64081      9546.2547      0.90251087     0.65977599   
     39200  -4113.1238     -4147.1794      34.055689      2124.9815      305.29116      9536.5666      0.90342772     0.65977599   
     39300  -4112.1039     -4146.3442      34.240298      3953.4511      306.94609      9529.2042      0.90412572     0.65977599   
     39400  -4110.4324     -4146.1854      35.753034     -515.45152      320.50696      9527.7523      0.9042635      0.65977599   
     39500  -4111.5567     -4145.5049      33.948164      2689.7354      304.32726      9532.6344      0.90380038     0.65977599   
     39600  -4112.1597     -4144.2633      32.103546      389.75142      287.79124      9537.6863      0.90332165     0.65977599   
     39700  -4111.267      -4144.2439      32.976944      2354.4323      295.62079      9540.7949      0.90302733     0.65977599   
     39800  -4111.6731     -4146.1191      34.445979      829.82         308.78991      9544.392       0.902687       0.65977599   
     39900  -4110.8973     -4146.0146      35.117323      287.47384      314.80815      9545.0827      0.90262168     0.65977599   
     40000  -4109.9895     -4145.029       35.039549     -256.28844      314.11095      9547.8574      0.90235937     0.75640619   
     40100  -4110.249      -4145.9156      35.666597      1921.4804      319.7321       9551.058       0.90205699     0.75640619   
     40200  -4110.6918     -4146.5168      35.824967     -645.28923      321.15181      9552.538       0.90191723     0.75640619   
     40300  -4112.1969     -4145.6684      33.471455     -489.83599      300.05382      9549.8346      0.90217254     0.75640619   
     40400  -4112.6919     -4145.4448      32.752921      2415.7634      293.61254      9542.861       0.90283182     0.75640619   
     40500  -4112.5133     -4146.752       34.238771      748.92104      306.9324       9532.3911      0.90382345     0.75640619   
     40600  -4112.4408     -4147.758       35.317205      162.31785      316.59999      9518.1365      0.90517704     0.75640619   
     40700  -4114.1335     -4147.395       33.261529      1554.8954      298.17195      9505.1844      0.90641047     0.75640619   
     40800  -4114.8006     -4147.2381      32.437413      2410.1102      290.78418      9495.4449      0.90734017     0.75640619   
     40900  -4114.9623     -4148.433       33.470753      2444.0769      300.04752      9486.0594      0.90823789     0.75640619   
     41000  -4113.543      -4147.1212      33.578179      3911.0857      301.01054      9481.7124      0.90865429     0.70635264   
     41100  -4111.6523     -4145.8207      34.168336     -1144.865       306.30098      9482.9738      0.90853341     0.70635264   
     41200  -4110.7486     -4145.6366      34.887968      1556.3329      312.7521       9492.7393      0.90759878     0.70635264   
     41300  -4112.3352     -4144.8097      32.474562      1109.0959      291.1172       9507.8846      0.90615304     0.70635264   
     41400  -4113.1972     -4146.5739      33.376635     -1492.1612      299.20381      9522.4328      0.90476864     0.70635264   
     41500  -4112.2801     -4146.598       34.317934      701.95221      307.64205      9527.6959      0.90426885     0.70635264   
     41600  -4113.7582     -4148.302       34.543856      740.06941      309.66732      9526.6892      0.90436441     0.70635264   
     41700  -4114.5844     -4146.9863      32.401883     -2005.0182      290.46567      9523.3716      0.90467945     0.70635264   
     41800  -4115.3973     -4147.7593      32.362002      265.06178      290.10816      9516.6547      0.90531798     0.70635264   
     41900  -4115.0245     -4146.481       31.456509      737.11263      281.9909       9508.1323      0.90612944     0.70635264   
     42000  -4114.8016     -4146.6384      31.8368        2323.3779      285.4          9500.1202      0.90689364     0.73639837   
     42100  -4113.8428     -4147.1189      33.276104      839.60672      298.3026       9495.0366      0.90737919     0.73639837   
     42200  -4113.1829     -4146.8558      33.672905     -94.16741       301.85971      9493.8577      0.90749186     0.73639837   
     42300  -4112.9604     -4145.7054      32.745021      3493.7632      293.54172      9495.2784      0.90735608     0.73639837   
     42400  -4113.6882     -4145.893       32.204827      1350.3706      288.69917      9500.987       0.9068109      0.73639837   
     42500  -4113.5315     -4146.751       33.219533     -2149.0747      297.79547      9504.1218      0.9065118      0.73639837   
     42600  -4113.5159     -4145.2634      31.747461      2241.4858      284.59913      9503.4245      0.90657831     0.73639837   
     42700  -4112.7705     -4146.571       33.800571     -2092.1381      303.00417      9505.3415      0.90639549     0.73639837   
     42800  -4113.6718     -4147.2842      33.612336      1501.2832      301.31674      9511.5983      0.90579925     0.73639837   
     42900  -4114.2277     -4147.3952      33.167468      1800.4911      297.32873      9516.9039      0.90529427     0.73639837   
     43000  -4112.5472     -4147.0079      34.460691     -774.88362      308.92179      9519.907       0.90500869     0.66816465   
     43100  -4113.0584     -4146.6803      33.621898     -1044.6095      301.40246      9520.6479      0.90493826     0.66816465   
     43200  -4113.2926     -4146.6239      33.331315      1374.9325      298.79754      9516.4775      0.90533483     0.66816465   
     43300  -4112.9773     -4146.4478      33.470519      1988.6738      300.04542      9510.267       0.90592605     0.66816465   
     43400  -4113.9314     -4146.5987      32.667361      1349.5309      292.84554      9503.4307      0.90657773     0.66816465   
     43500  -4112.3123     -4146.1489      33.836668      481.89259      303.32776      9498.914       0.9070088      0.66816465   
     43600  -4113.8582     -4146.764       32.905822      2950.2535      294.98322      9496.8283      0.907208       0.66816465   
     43700  -4113.3152     -4147.6508      34.335608      4011.4305      307.80049      9497.9415      0.90710166     0.66816465   
     43800  -4113.6697     -4147.0057      33.336012     -4135.3253      298.83964      9500.3186      0.9068747      0.66816465   
     43900  -4113.6191     -4146.0877      32.468625     -202.99567      291.06398      9501.219       0.90678875     0.66816465   
     44000  -4113.4637     -4147.2366      33.772962      1182.5362      302.75667      9499.7632      0.90692772     0.78371249   
     44100  -4113.9558     -4146.9718      33.016029     -1115.9431      295.97116      9499.2943      0.90697249     0.78371249   
     44200  -4113.547      -4146.1347      32.587687      1290.2934      292.1313       9501.6037      0.90675205     0.78371249   
     44300  -4113.15       -4146.5247      33.374684     -193.38362      299.18632      9508.2733      0.906116       0.78371249   
     44400  -4111.8555     -4146.1259      34.270414      2312.6745      307.21606      9514.5613      0.90551716     0.78371249   
     44500  -4113.411      -4146.7045      33.293446      1246.859       298.45806      9518.6698      0.90512632     0.78371249   
     44600  -4114.8061     -4148.1714      33.365312     -500.99115      299.10231      9520.671       0.90493607     0.78371249   
     44700  -4114.7636     -4147.1912      32.427578      994.8572       290.69602      9521.3869      0.90486803     0.78371249   
     44800  -4114.1982     -4148.2658      34.067658     -2019.7148      305.39846      9515.7842      0.90540079     0.78371249   
     44900  -4113.4468     -4145.9601      32.513351      369.68666      291.46492      9506.0202      0.90633077     0.78371249   
     45000  -4113.6986     -4147.2364      33.537838      3196.0869      300.64891      9493.1068      0.90756365     0.77268685   
     45100  -4112.1409     -4145.8551      33.714234      3037.2766      302.2302       9475.8321      0.90921815     0.77268685   
     45200  -4112.003      -4145.7428      33.739848      1139.0281      302.45982      9459.9084      0.91074863     0.77268685   
     45300  -4111.12       -4144.888       33.768024      5701.312       302.7124       9453.5548      0.91136073     0.77268685   
     45400  -4110.1792     -4146.235       36.055781      1257.5816      323.22093      9458.9741      0.91083859     0.77268685   
     45500  -4111.3179     -4145.5304      34.212448      2077.6663      306.69643      9477.6818      0.90904071     0.77268685   
     45600  -4110.8534     -4145.3033      34.449957     -93.712566      308.82557      9508.291       0.90611431     0.77268685   
     45700  -4110.1084     -4143.9263      33.817936      2230.1056      303.15984      9541.3934      0.90297069     0.77268685   
     45800  -4109.603      -4144.7517      35.148706      723.05725      315.08949      9570.497       0.90022479     0.77268685   
     45900  -4110.2227     -4145.6058      35.383066      55.175833      317.1904       9588.8622      0.89850062     0.77268685   
     46000  -4111.3151     -4146.0888      34.773674      3037.3898      311.72752      9593.1247      0.89810138     0.77485361   
     46100  -4112.1312     -4146.5218      34.390665      1153.6716      308.29405      9585.2496      0.89883926     0.77485361   
     46200  -4111.3193     -4144.9426      33.623351     -29.562583      301.41549      9562.1071      0.90101465     0.77485361   
     46300  -4111.347      -4147.1008      35.753785      1441.4045      320.5137       9530.2232      0.90402904     0.77485361   
     46400  -4109.8734     -4145.0417      35.168301      3963.913       315.26514      9492.891       0.90758427     0.77485361   
     46500  -4109.5409     -4145.1642      35.623296      2935.1432      319.34393      9462.3998      0.91050884     0.77485361   
     46600  -4109.993      -4145.0509      35.057856      1675.0753      314.27506      9443.6196      0.91231952     0.77485361   
     46700  -4111.0424     -4145.5758      34.533371      3096.7213      309.57333      9436.1501      0.91304171     0.77485361   
     46800  -4111.5186     -4146.6748      35.156253      4521.2136      315.15713      9447.1641      0.91197724     0.77485361   
     46900  -4112.3832     -4145.6627      33.279438      2245.1553      298.33248      9475.1258      0.90928594     0.77485361   
     47000  -4110.3253     -4145.4431      35.117811     -402.79965      314.81252      9512.9777      0.90566791     0.7093431    
     47100  -4110.2826     -4144.0552      33.772661      3052.3492      302.75397      9552.3655      0.90193351     0.7093431    
     47200  -4111.8166     -4145.7246      33.908044      1316.2907      303.9676       9585.086       0.8988546      0.7093431    
     47300  -4113.2527     -4147.07        33.817294      1140.8325      303.15408      9603.9584      0.89708829     0.7093431    
     47400  -4113.6605     -4146.7611      33.100606     -1961.467       296.72935      9609.7683      0.89654592     0.7093431    
     47500  -4112.2629     -4147.4242      35.161288      984.5296       315.20228      9596.8912      0.8977489      0.7093431    
     47600  -4111.7342     -4146.3936      34.659436      942.3276       310.70343      9571.7304      0.90010878     0.7093431    
     47700  -4111.7652     -4145.0488      33.283614      1026.8924      298.36992      9537.4104      0.90334779     0.7093431    
     47800  -4111.9091     -4145.4972      33.588137      2972.6726      301.09981      9500.3017      0.90687632     0.7093431    
     47900  -4112.4307     -4148.0622      35.631496      2383.3154      319.41744      9471.2051      0.90966234     0.7093431    
     48000  -4112.8425     -4146.4839      33.64138       1430.0956      301.57711      9454.5457      0.91126521     0.75310931   
     48100  -4114.8555     -4148.1369      33.281391     -1953.126       298.34999      9449.2132      0.91177946     0.75310931   
     48200  -4114.2565     -4147.7631      33.506658      2619.3652      300.36939      9449.0765      0.91179266     0.75310931   
     48300  -4113.9164     -4148.19        34.273597      3926.3321      307.2446       9458.1444      0.91091849     0.75310931   
     48400  -4114.7381     -4147.5787      32.840643      3084.7813      294.39893      9471.9109      0.90959456     0.75310931   
     48500  -4114.1585     -4148.0607      33.902286      1381.4781      303.91599      9483.8102      0.90845329     0.75310931   
     48600  -4112.8852     -4145.7256      32.840429      452.6208       294.39701      9492.5506      0.90761682     0.75310931   
     48700  -4111.9953     -4146.9319      34.936616      1942.0037      313.18821      9505.0603      0.9064223      0.75310931   
     48800  -4113.0007     -4145.9001      32.89943      -15.291512      294.92592      9519.0297      0.9050921      0.75310931   
     48900  -4111.4478     -4145.6395      34.19177       5123.3124      306.51105      9528.8149      0.90416265     0.75310931   
     49000  -4112.7128     -4146.9722      34.259348     -1896.2338      307.11686      9539.7234      0.90312876     0.83288459   
     49100  -4112.9135     -4147.7482      34.834729      1527.0223      312.27484      9546.7106      0.90246776     0.83288459   
     49200  -4113.6688     -4146.264       32.595203      252.70837      292.19868      9548.186       0.90232831     0.83288459   
     49300  -4113.5027     -4146.9377      33.435015     -829.26552      299.72715      9541.2813      0.9029813      0.83288459   
     49400  -4114.1267     -4146.1295      32.00271       1971.3299      286.8873       9528.1316      0.9042275      0.83288459   
     49500  -4113.9701     -4147.7196      33.749457      1877.4945      302.54596      9512.9064      0.90567469     0.83288459   
     49600  -4113.7634     -4146.2264      32.46301       205.87958      291.01364      9494.1157      0.9074672      0.83288459   
     49700  -4114.2291     -4146.4997      32.270613      2028.5424      289.28891      9478.481       0.90896406     0.83288459   
     49800  -4114.8841     -4147.5195      32.635467      1021.6731      292.55963      9467.9379      0.90997625     0.83288459   
     49900  -4114.7145     -4148.2402      33.525638     -678.78841      300.53954      9464.4184      0.91031464     0.83288459   
     50000  -4113.201      -4147.3805      34.179468      1768.9382      306.40078      9469.9589      0.90978204     0.65821006   
     50100  -4114.0586     -4146.1712      32.112631     -1360.5185      287.87268      9481.9664      0.90862994     0.65821006   
     50200  -4113.375      -4146.345       32.970082      1044.2988      295.55927      9496.3758      0.90725122     0.65821006   
     50300  -4112.6938     -4146.2369      33.543128      425.16351      300.69633      9512.1066      0.90575084     0.65821006   
     50400  -4112.6168     -4146.0492      33.432458     -767.19095      299.70423      9526.5388      0.90437868     0.65821006   
     50500  -4112.1166     -4147.0364      34.919754      908.80192      313.03705      9538.6933      0.90322629     0.65821006   
     50600  -4113.2028     -4146.5063      33.30353      -1573.1184      298.54846      9546.9829      0.90244203     0.65821006   
     50700  -4112.3474     -4146.635       34.287672      392.48879      307.37077      9548.6644      0.90228311     0.65821006   
     50800  -4112.2701     -4145.4012      33.131111      2672.2285      297.00281      9546.1184      0.90252375     0.65821006   
     50900  -4112.8214     -4145.9234      33.101942     -3294.1264      296.74133      9542.7736      0.90284009     0.65821006   
     51000  -4111.0626     -4144.8816      33.819046      255.22045      303.16978      9528.9969      0.90414539     0.77506025   
     51100  -4111.7623     -4146.3456      34.583212      2236.0953      310.02013      9511.921       0.90576852     0.77506025   
     51200  -4112.6153     -4146.5309      33.915646      1025.094       304.03576      9499.8422      0.90692018     0.77506025   
     51300  -4114.6487     -4146.8338      32.18504       486.81774      288.52179      9493.3203      0.90754323     0.77506025   
     51400  -4113.7056     -4147.1589      33.453296     -592.891        299.89103      9493.3306      0.90754225     0.77506025   
     51500  -4113.8157     -4147.1101      33.294431      139.11956      298.46689      9493.3676      0.90753871     0.77506025   
     51600  -4113.1656     -4146.2323      33.066738      2330.1107      296.42575      9494.8035      0.90740146     0.77506025   
     51700  -4113.2132     -4146.4619      33.24871       1478.253       298.05703      9504.016       0.9065219      0.77506025   
     51800  -4113.2417     -4147.692       34.450376      2579.6067      308.82932      9518.0756      0.90518283     0.77506025   
     51900  -4113.1112     -4147.1074      33.996137      133.74546      304.75731      9537.6838      0.9033219      0.77506025   
     52000  -4112.2225     -4147.0712      34.848709      252.41218      312.40017      9556.8866      0.90150683     0.66206187   
     52100  -4112.9521     -4147.0737      34.12158       2598.3718      305.88184      9570.0665      0.90026527     0.66206187   
     52200  -4112.3052     -4145.7145      33.409341      797.65023      299.497        9576.1626      0.89969218     0.66206187   
     52300  -4111.9335     -4144.8557      32.922238      1436.593       295.13038      9570.3527      0.90023836     0.66206187   
     52400  -4111.8739     -4144.6364      32.762433     -1956.6566      293.69781      9554.8577      0.90169826     0.66206187   
     52500  -4112.5066     -4146.3946      33.88807       1034.6938      303.78855      9535.19        0.90355814     0.66206187   
     52600  -4114.3495     -4147.8917      33.542164     -980.43926      300.68769      9514.5549      0.90551777     0.66206187   
     52700  -4113.1528     -4146.9068      33.754049      2824.919       302.58713      9494.0665      0.90747191     0.66206187   
     52800  -4112.5793     -4145.9793      33.40004      -528.76166      299.41362      9473.3801      0.90945349     0.66206187   
     52900  -4113.347      -4146.2698      32.922844      472.33472      295.13581      9457.0908      0.91101997     0.66206187   
     53000  -4113.1811     -4146.9319      33.750803      2570.853       302.55803      9446.4564      0.91204556     0.65823154   
     53100  -4112.0588     -4146.5888      34.529953      1505.9349      309.54269      9442.8887      0.91239014     0.65823154   
     53200  -4112.7847     -4147.4538      34.6691        2248.0513      310.79007      9454.1145      0.91130677     0.65823154   
     53300  -4113.3044     -4146.0545      32.750069      6810.8817      293.58697      9478.0169      0.90900857     0.65823154   
     53400  -4112.552      -4146.3259      33.773953      1774.0891      302.76555      9511.7969      0.90578033     0.65823154   
     53500  -4112.6397     -4145.4838      32.844109     -2799.0969      294.42999      9551.5747      0.90200819     0.65823154   
     53600  -4112.6385     -4145.2972      32.658695      1082.0995      292.76786      9590.8395      0.89831537     0.65823154   
     53700  -4112.5852     -4146.518       33.932823     -496.34819      304.18974      9623.8053      0.89523825     0.65823154   
     53800  -4113.0309     -4146.9562      33.925299      2084.8333      304.12229      9639.2352      0.89380521     0.65823154   
     53900  -4112.2271     -4146.5714      34.344341     -1914.3887      307.87878      9635.973       0.89410779     0.65823154   
     54000  -4111.162      -4145.173       34.010974     -440.36887      304.89032      9612.0877      0.89632958     0.68446745   
     54100  -4112.3879     -4146.3876      33.999673      575.54571      304.78901      9575.3969      0.89976412     0.68446745   
     54200  -4112.0963     -4145.6844      33.588075      99.448345      301.09925      9534.4424      0.90362899     0.68446745   
     54300  -4112.718      -4146.5256      33.807657      2245.9792      303.06769      9500.3649      0.90687028     0.68446745   
     54400  -4113.1464     -4146.6604      33.514025      4771.6111      300.43544      9471.7658      0.90960849     0.68446745   
     54500  -4113.6621     -4145.7897      32.127683     -232.24981      288.00761      9454.2197      0.91129663     0.68446745   
     54600  -4113.9721     -4146.0767      32.104564      1773.1086      287.80037      9449.6419      0.91173811     0.68446745   
     54700  -4113.3819     -4147.5643      34.182372      1552.0847      306.42681      9457.6018      0.91097074     0.68446745   
     54800  -4112.2763     -4147.1124      34.836124      1687.6125      312.28735      9474.9443      0.90930335     0.68446745   
     54900  -4112.9013     -4145.5422      32.640887      2041.339       292.60821      9501.71        0.9067419      0.68446745   
     55000  -4112.322      -4145.7426      33.420558      3428.6207      299.59755      9532.658       0.90379815     0.71729831   
     55100  -4112.2628     -4145.4899      33.22712       1786.165       297.86348      9561.6362      0.90105903     0.71729831   
     55200  -4110.5974     -4144.1533      33.555854      1462.1315      300.81041      9581.7932      0.89916349     0.71729831   
     55300  -4110.6932     -4144.1762      33.483009     -1352.8288      300.15739      9592.4265      0.89816676     0.71729831   
     55400  -4109.9005     -4146.1808      36.280323     -797.32342      325.23382      9594.718       0.89795225     0.71729831   
     55500  -4110.7466     -4145.2934      34.546827      3180.8794      309.69396      9586.4751      0.89872435     0.71729831   
     55600  -4111.686      -4145.6703      33.984322     -1145.3287      304.6514       9570.76        0.90020005     0.71729831   
     55700  -4112.1119     -4145.6138      33.501953      782.07228      300.32722      9545.0024      0.90262927     0.71729831   
[...]
    386100  -4111.25       -4143.8018      32.551852     -360.63771      291.81006      9628.0154      0.89484678     0.67410946   
    386200  -4109.8973     -4144.268       34.370742      200.55552      308.11544      9618.3555      0.89574549     0.67410946   
    386300  -4109.0759     -4145.1311      36.05519      -2673.4761      323.21563      9595.4984      0.89787921     0.67410946   
    386400  -4108.9769     -4145.1297      36.152843      1316.8143      324.09103      9566.2092      0.90062829     0.67410946   
    386500  -4110.7919     -4146.9704      36.178468      2708.9         324.32075      9543.8442      0.90273882     0.67410946   
    386600  -4111.0401     -4145.463       34.422863      1763.401       308.58269      9527.4264      0.90429443     0.67410946   
    386700  -4111.5837     -4145.3996      33.815869     -2659.7924      303.14131      9514.6139      0.90551216     0.67410946   
    386800  -4111.7205     -4144.8166      33.096062      229.06187      296.68862      9507.6551      0.90617491     0.67410946   
    386900  -4112.2709     -4146.9952      34.724237      1086.921       311.28434      9512.3344      0.90572915     0.67410946   
    387000  -4112.3487     -4145.9971      33.648352      24.667445      301.6396       9522.8666      0.90472743     0.69827279   
    387100  -4112.2603     -4145.9817      33.721381      1792.5335      302.29427      9533.3424      0.90373326     0.69827279   
    387200  -4113.5495     -4146.1389      32.589428     -2745.528       292.14692      9542.9795      0.90282061     0.69827279   
    387300  -4113.8486     -4146.1304      32.281754      1885.0045      289.38878      9549.3044      0.90222264     0.69827279   
    387400  -4113.1478     -4146.2409      33.093069      1947.4766      296.66179      9551.3674      0.90202777     0.69827279   
    387500  -4113.4787     -4147.4109      33.932253     -114.5674       304.18463      9551.5964      0.90200614     0.69827279   
    387600  -4115.5575     -4148.2716      32.714072      5.9052885      293.26428      9549.8219      0.90217375     0.69827279   
    387700  -4114.9146     -4146.7151      31.800543      566.8765       285.07498      9540.5728      0.90304835     0.69827279   
    387800  -4114.5001     -4146.8339      32.333725      2331.0224      289.85467      9527.0594      0.90432926     0.69827279   
    387900  -4115.1727     -4146.9173      31.744557     -2243.785       284.57309      9511.7756      0.90578237     0.69827279   
    388000  -4113.9448     -4146.1162      32.171389      1867.0564      288.39942      9496.3974      0.90724916     0.7004691    
    388100  -4114.394      -4146.7341      32.340144      2730.6273      289.91222      9482.1715      0.90861028     0.7004691    
    388200  -4114.4516     -4146.8714      32.41978      -591.6404       290.62611      9473.4468      0.90944708     0.7004691    
    388300  -4113.1746     -4147.2063      34.031749      3283.2333      305.07656      9473.3663      0.90945482     0.7004691    
    388400  -4113.0033     -4146.137       33.13377       2206.4209      297.02665      9484.9982      0.9083395      0.7004691    
    388500  -4112.1641     -4146.7883      34.62421       3211.8827      310.38765      9507.745       0.90616635     0.7004691    
    388600  -4112.0035     -4146.7105      34.707004     -1397.6737      311.12986      9543.5431      0.9027673      0.7004691    
    388700  -4111.3185     -4144.4186      33.100087      4119.9117      296.7247       9580.7177      0.89926442     0.7004691    
    388800  -4110.6315     -4145.2669      34.635331      2202.3828      310.48735      9612.2553      0.89631396     0.7004691    
    388900  -4111.1482     -4146.0373      34.889129     -1533.7285      312.76251      9633.4334      0.89434351     0.7004691    
    389000  -4112.0109     -4146.1342      34.123297     -167.51823      305.89724      9638.9313      0.89383338     0.67196583   
    389100  -4111.2595     -4144.7148      33.455311     -337.18573      299.9091       9624.447       0.89517856     0.67196583   
    389200  -4112.1914     -4146.4187      34.227304     -258.11144      306.8296       9591.7109      0.89823376     0.67196583   
    389300  -4112.3305     -4145.4578      33.127291      2880.5819      296.96857      9544.1057      0.90271408     0.67196583   
    389400  -4111.7843     -4146.4892      34.704944     -298.88034      311.11139      9494.5704      0.90742374     0.67196583   
    389500  -4111.188      -4145.3481      34.160028      2814.3588      306.22651      9455.4809      0.91117509     0.67196583   
    389600  -4111.2749     -4145.8053      34.530341      1444.8192      309.54617      9439.8132      0.9126874      0.67196583   
    389700  -4111.4271     -4144.7793      33.35221       393.59594      298.98485      9451.3846      0.91156999     0.67196583   
    389800  -4111.3957     -4145.3171      33.921487      1023.7744      304.08812      9485.0599      0.90833359     0.67196583   
    389900  -4111.4935     -4145.555       34.061492     -125.64084      305.34319      9531.7999      0.9038795      0.67196583   
    390000  -4113.252      -4146.9682      33.716244     -1796.6664      302.24822      9579.9866      0.89933305     0.7855943    
    390100  -4113.1126     -4146.0175      32.90494       1043.1276      294.97531      9619.6265      0.89562715     0.7855943    
    390200  -4112.1237     -4145.6769      33.553205      1920.8661      300.78666      9644.9609      0.8932746      0.7855943    
    390300  -4112.2402     -4146.1852      33.944943      1134.9468      304.29838      9652.177       0.89260678     0.7855943    
    390400  -4110.9713     -4145.2653      34.293945      428.90385      307.42701      9641.7881      0.89356855     0.7855943    
    390500  -4110.4935     -4145.8829      35.389362      1113.3991      317.24683      9615.5237      0.89600929     0.7855943    
    390600  -4108.8147     -4143.7146      34.899906      895.79858      312.85912      9576.2376      0.89968513     0.7855943    
    390700  -4108.7304     -4142.9353      34.204929      1611.0665      306.62903      9533.792       0.90369064     0.7855943    
    390800  -4109.491      -4144.1724      34.681399      1615.7159      310.90032      9499.3702      0.90696524     0.7855943    
    390900  -4111.5846     -4145.3599      33.775256     -1071.1367      302.77723      9474.672       0.90932949     0.7855943    
    391000  -4112.1018     -4146.579       34.477213      3936.6664      309.0699       9460.9784      0.91064563     0.70457561   
    391100  -4112.4336     -4146.073       33.639422     -151.91807      301.55955      9460.1887      0.91072164     0.70457561   
    391200  -4113.0197     -4147.0871      34.067399      1140.2452      305.39614      9472.1302      0.9095735      0.70457561   
    391300  -4111.6566     -4145.7875      34.130927      1065.5989      305.96563      9492.9874      0.90757506     0.70457561   
    391400  -4111.7754     -4144.1799      32.404476     -866.4159       290.48892      9524.3049      0.9045908      0.70457561   
    391500  -4111.9482     -4146.0244      34.076178      626.21178      305.47484      9560.0479      0.90120873     0.70457561   
    391600  -4112.174      -4146.5993      34.425264     -144.83613      308.6042       9592.6366      0.89814709     0.70457561   
    391700  -4112.7839     -4145.5903      32.806357      850.50331      294.09157      9615.6043      0.89600178     0.70457561   
    391800  -4112.7591     -4145.6815      32.922399     -2397.9244      295.13182      9621.6779      0.89543619     0.70457561   
    391900  -4112.4327     -4144.9574      32.524773     -92.076166      291.56732      9610.1806      0.89650746     0.70457561   
    392000  -4112.4405     -4145.4522      33.011669      246.03447      295.93208      9581.6259      0.89917919     0.68021673   
    392100  -4113.9434     -4147.6949      33.751544      7.6823403      302.56466      9543.9576      0.90272809     0.68021673   
    392200  -4113.1906     -4147.5815      34.390927     -241.21999      308.2964       9504.2777      0.90649693     0.68021673   
    392300  -4113.7611     -4147.251       33.489887      2672.0825      300.21905      9475.0282      0.9092953      0.68021673   
    392400  -4112.7691     -4145.9096      33.140512      2048.8338      297.08709      9453.2148      0.9113935      0.68021673   
    392500  -4111.599      -4145.3664      33.767376      1880.1408      302.7066       9442.4898      0.91242869     0.68021673   
    392600  -4112.3287     -4146.7533      34.424548      959.47409      308.59779      9444.5951      0.9122253      0.68021673   
    392700  -4111.5458     -4145.6791      34.133336      2621.8415      305.98723      9457.1381      0.91101541     0.68021673   
    392800  -4111.9066     -4145.1262      33.219601      4497.0731      297.79608      9478.0001      0.90901018     0.68021673   
    392900  -4112.1634     -4147.672       35.508617      1846.6899      318.3159       9502.7695      0.90664081     0.68021673   
    393000  -4113.0563     -4146.6475      33.591197      1046.7335      301.12724      9526.1843      0.90441234     0.64321982   
    393100  -4113.1989     -4147.3696      34.170672     -3042.4163      306.32193      9543.5416      0.90276743     0.64321982   
    393200  -4113.2658     -4146.5011      33.235302      2399.0847      297.93683      9547.864       0.90235875     0.64321982   
    393300  -4112.6895     -4146.054       33.364445      1019.2851      299.09453      9542.1874      0.90289556     0.64321982   
    393400  -4111.8832     -4144.8252      32.942013      1018.9859      295.30765      9531.3846      0.90391889     0.64321982   
    393500  -4111.6887     -4146.1628      34.474125     -1476.3959      309.04222      9516.9499      0.90528989     0.64321982   
    393600  -4111.6452     -4144.9514      33.306208      2475.4829      298.57247      9499.7653      0.90692752     0.64321982   
    393700  -4111.6041     -4145.4227      33.818635      968.72779      303.16611      9485.0791      0.90833176     0.64321982   
    393800  -4111.0725     -4144.9903      33.917739      363.40521      304.05452      9470.0525      0.90977305     0.64321982   
    393900  -4112.3749     -4146.7606      34.385764      2008.8269      308.25011      9459.5228      0.91078575     0.64321982   
    394000  -4112.1314     -4146.623       34.491591      3864.6692      309.1988       9455.3778      0.91118501     0.76860381   
    394100  -4112.8324     -4145.5961      32.763626      2163.6601      293.7085       9461.372       0.91060774     0.76860381   
    394200  -4113.6137     -4146.5696      32.955904      2522.8402      295.43218      9477.0589      0.90910046     0.76860381   
    394300  -4114.0698     -4146.6201      32.550279     -517.47694      291.79596      9501.0251      0.90680727     0.76860381   
    394400  -4113.4433     -4146.6684      33.225189      706.94796      297.84617      9529.4229      0.90410497     0.76860381   
    394500  -4112.6509     -4146.6697      34.018861      216.95632      304.96102      9550.1172      0.90214585     0.76860381   
    394600  -4113.1402     -4147.1394      33.999187      1155.6083      304.78465      9563.5586      0.9008779      0.76860381   
    394700  -4112.0564     -4144.7442      32.687797      1006.1878      293.02874      9566.2874      0.90062092     0.76860381   
    394800  -4111.0061     -4145.2536      34.247511      2520.0618      307.01075      9559.0953      0.90129854     0.76860381   
    394900  -4109.7388     -4144.257       34.518222     -5.0009973      309.43753      9544.2961      0.90269607     0.76860381   
    395000  -4109.5189     -4145.0702      35.551317     -1182.5748      318.69867      9522.6787      0.90474527     0.67868744   
    395100  -4110.1181     -4145.1167      34.998524      3463.1943      313.74318      9497.7683      0.90711821     0.67868744   
    395200  -4110.509      -4144.0393      33.530304      1878.69        300.58137      9478.5717      0.90895537     0.67868744   
    395300  -4111.8701     -4146.6343      34.76427      -653.45757      311.64321      9470.6783      0.90971294     0.67868744   
    395400  -4110.7537     -4145.2714      34.517709      4668.6654      309.43292      9475.9505      0.90920679     0.67868744   
    395500  -4111.8037     -4144.9474      33.143712      558.25121      297.11577      9498.4223      0.90705576     0.67868744   
    395600  -4112.2881     -4146.0086      33.720439     -1050.0796      302.28582      9525.6712      0.90446105     0.67868744   
    395700  -4113.2528     -4145.3395      32.086746      2296.4813      287.64064      9545.4276      0.90258906     0.67868744   
    395800  -4112.5877     -4146.7183      34.130609      720.73438      305.96279      9556.3291      0.90155942     0.67868744   
    395900  -4112.8112     -4148.3633      35.552135     -1645.0609      318.70601      9561.9829      0.90102635     0.67868744   
    396000  -4112.6954     -4146.5035      33.808064      4580.8926      303.07134      9556.383       0.90155434     0.71110064   
    396100  -4111.8402     -4146.6089      34.768761      1347.2749      311.68348      9540.2884      0.90307527     0.71110064   
    396200  -4111.8487     -4144.3702      32.521554      2354.5576      291.53846      9517.0819      0.90527734     0.71110064   
    396300  -4111.6907     -4144.5259      32.835186      1969.8527      294.35001      9493.3899      0.90753658     0.71110064   
    396400  -4112.3464     -4145.9725      33.626158      573.72896      301.44065      9470.8647      0.90969504     0.71110064   
    396500  -4112.5447     -4146.9817      34.436985      1799.0241      308.70928      9452.0624      0.91150463     0.71110064   
    396600  -4110.9161     -4145.5526      34.636476      1610.7602      310.49761      9445.977       0.91209185     0.71110064   
    396700  -4110.3183     -4144.6103      34.292051     -2155.6089      307.41003      9460.4095      0.91070039     0.71110064   
    396800  -4110.4032     -4144.1768      33.773601      416.89209      302.76239      9494.3052      0.90744908     0.71110064   
    396900  -4109.9034     -4144.9896      35.086215      3190.1302      314.52928      9542.4166      0.90287387     0.71110064   
    397000  -4111.9918     -4145.5909      33.599101      1491.4734      301.1981       9589.6834      0.89842368     0.80356941   
    397100  -4109.6303     -4143.6601      34.02976      -2152.722       305.05872      9624.5195      0.89517182     0.80356941   
    397200  -4110.6954     -4144.7294      34.033989     -2400.5806      305.09663      9639.4216      0.89378792     0.80356941   
    397300  -4109.6266     -4144.9232      35.296583      31.673017      316.41512      9631.1037      0.89455984     0.80356941   
    397400  -4110.4305     -4145.2306      34.800063     -198.34583      311.96408      9601.9281      0.89727798     0.80356941   
    397500  -4111.2915     -4144.5064      33.214892     -1605.2819      297.75387      9557.53        0.90144615     0.80356941   
    397600  -4111.5703     -4145.07        33.499741      1882.8842      300.30739      9505.4525      0.9063849      0.80356941   
    397700  -4110.562      -4146.2738      35.711778      162.14487      320.13712      9455.3284      0.91118978     0.80356941   
    397800  -4111.6117     -4145.3564      33.744763      2651.8373      302.50388      9417.3498      0.91486445     0.80356941   
    397900  -4112.0592     -4146.4435      34.384301      1973.0777      308.237        9396.9535      0.91685019     0.80356941   
    398000  -4111.6193     -4146.0307      34.411392      2996.1178      308.47985      9396.522       0.91689229     0.83954411   
    398100  -4111.8389     -4146.1835      34.344606     -1597.7007      307.88115      9418.673       0.91473593     0.83954411   
    398200  -4111.3435     -4145.0307      33.687204      5168.6438      301.9879       9455.1573      0.91120626     0.83954411   
    398300  -4111.9181     -4145.2321      33.314006      1206.9001      298.64237      9501.1347      0.9067968      0.83954411   
    398400  -4112.2968     -4147.7269      35.430099     -1800.7219      317.61202      9546.0851      0.9025269      0.83954411   
    398500  -4111.6037     -4146.5479      34.94421       881.9312       313.25628      9582.1207      0.89913276     0.83954411   
    398600  -4112.5234     -4146.8245      34.30109      -364.43278      307.49105      9606.0091      0.89689677     0.83954411   
    398700  -4111.1527     -4144.2143      33.061542      2187.8611      296.37916      9609.7148      0.89655091     0.83954411   
    398800  -4110.1594     -4144.7061      34.546674      1187.6973      309.69258      9596.6678      0.89776981     0.83954411   
    398900  -4110.9924     -4144.9389      33.946426     -2301.5858      304.31168      9574.2263      0.89987413     0.83954411   
    399000  -4111.9674     -4144.6586      32.691227      1899.0138      293.05948      9550.0635      0.90215092     0.66542406   
    399100  -4111.0427     -4145.5399      34.497269      428.95373      309.2497       9527.0974      0.90432565     0.66542406   
    399200  -4111.949      -4146.1099      34.160896     -40.106948      306.23429      9507.3551      0.90620351     0.66542406   
    399300  -4111.6869     -4145.6269      33.93995       1719.5067      304.25363      9492.4381      0.90762758     0.66542406   
    399400  -4111.5396     -4145.6174      34.077771      246.10526      305.48912      9480.7111      0.90875025     0.66542406   
    399500  -4110.5003     -4145.0925      34.592169     -388.2232       310.10042      9475.6175      0.90923875     0.66542406   
    399600  -4111.4288     -4145.277       33.848146     -1572.0114      303.43065      9484.5538      0.90838207     0.66542406   
    399700  -4113.1758     -4146.1604      32.984651      1542.6952      295.68988      9504.08        0.90651579     0.66542406   
    399800  -4114.3529     -4147.7331      33.380195      994.97616      299.23572      9529.9462      0.90405532     0.66542406   
    399900  -4114.2206     -4147.4816      33.260958      231.75152      298.16683      9548.6034      0.90228887     0.66542406   
    400000  -4114.1306     -4148.0184      33.887771      1481.0874      303.78587      9556.0074      0.90158978     0.70932425   
    400100  -4113.4994     -4146.793       33.29361       634.55365      298.45953      9554.2427      0.9017563      0.70932425   
    400191  -4113.0878     -4146.5838      33.496084     -1687.4051      300.2746       9547.5138      0.90239185     0.70932425   
Loop time of 500.8 on 2 procs for 200000 steps with 864 atoms

Performance: 17.252 ns/day, 1.391 hours/ns, 399.361 timesteps/s, 345.048 katom-step/s
99.6% CPU use with 2 MPI tasks x 1 OpenMP threads

MPI task timing breakdown:
Section |  min time  |  avg time  |  max time  |%varavg| %total
---------------------------------------------------------------
Pair    | 259.21     | 260.44     | 261.66     |   7.6 | 52.00
Neigh   | 7.4859     | 7.5486     | 7.6114     |   2.3 |  1.51
Comm    | 39.317     | 41.387     | 43.457     |  32.2 |  8.26
Output  | 0.29068    | 0.29392    | 0.29716    |   0.6 |  0.06
Modify  | 188.27     | 189.12     | 189.96     |   6.2 | 37.76
Other   |            | 2.019      |            |       |  0.40

Nlocal:            432 ave         433 max         431 min
Histogram: 1 0 0 0 0 0 0 0 0 1
Nghost:         2181.5 ave        2182 max        2181 min
Histogram: 1 0 0 0 0 0 0 0 0 1
Neighs:              0 ave           0 max           0 min
Histogram: 2 0 0 0 0 0 0 0 0 0
FullNghs:        44856 ave       45081 max       44631 min
Histogram: 1 0 0 0 0 0 0 0 0 1

Total # of neighbors = 89712
Ave neighs/atom = 103.83333
Neighbor list builds = 19944
Dangerous builds = 19665

unfix		3
unfix		4
Total wall time: 0:16:42
