ITEM: TIMESTEP
0
ITEM: NUMBER OF ATOMS
2268
ITEM: BOX BOUNDS pp pp pp
0.0000000000000000e+00 4.7450699000000000e+01
0.0000000000000000e+00 1.9800834170672527e+01
0.0000000000000000e+00 2.0633272004255719e+01
ITEM: ATOMS id type x y z f_pace_gamma
515 1 0.183282 0.251488 2.38163 16.039
1807 2 2.19236 2.87118 0.846882 0.35303
2017 2 0.16454 2.02679 2.48317 0.39305
2019 1 0.91097 2.28511 1.86069 0.418808
289 2 6.55155 2.84002 1.83608 0.361154
1534 2 4.48577 0.857513 2.00009 0.318044
1535 1 4.02984 1.15508 2.83688 0.327685
1536 1 5.19365 1.53568 1.85201 0.400288
290 1 6.84694 2.48482 2.72114 0.354918
291 1 7.32407 2.6669 1.24825 0.383484
529 2 8.30152 0.17493 0.23697 6.24004
1540 2 9.20377 2.90474 0.639735 0.358412
1541 1 9.68103 2.05388 0.824354 0.467599
253 2 13.1012 2.21003 2.05964 0.415714
255 1 13.2891 2.8437 1.32145 0.496076
784 2 11.0792 0.842624 0.831326 1.49297
785 1 10.8488 0.398825 1.39905 2.46206
786 1 11.8042 1.30789 1.34924 0.569882
254 1 13.8971 1.61234 1.99162 0.497354
541 2 15.3399 0.624304 2.29022 0.349283
542 1 16.1369 0.755101 1.70967 0.284052
543 1 15.6149 0.947907 3.18188 0.352969
1263 1 16.6731 0.165352 0.117665 0.391506
1261 2 17.386 0.412 0.434065 1.09811
1842 1 18.8127 1.97404 2.9908 0.386663
109 2 23.2599 2.23888 0.017329 0.43215
1060 2 21.0908 2.19299 1.40343 0.312642
1061 1 20.402 2.34643 0.70395 0.360795
1062 1 21.942 2.18166 0.885878 0.469245
1316 1 21.0863 0.433366 1.78562 44.8814
112 2 24.7101 0.986942 3.00538 0.34183
113 1 24.5147 1.96359 2.92366 0.365821
142 2 26.0183 2.33188 0.187364 0.620247
143 1 26.2716 3.24844 0.274925 0.395551
144 1 26.6054 2.04435 0.934907 0.460762
145 2 29.6374 2.27476 0.210152 0.564218
147 1 29.4249 3.21839 0.00412759 0.374944
175 2 28.0129 1.60251 2.04863 0.328881
176 1 28.6931 1.82111 1.35829 0.450772
177 1 28.0442 2.34649 2.71017 0.367561
668 1 27.6055 0.161054 2.11537 0.380855
148 2 31.3241 1.37349 3.25206 0.319564
149 1 31.2352 2.33756 3.03442 0.428996
150 1 31.3624 0.804576 2.43971 0.437962
178 2 32.4054 2.42559 0.143496 2.21542
179 1 31.4119 2.32061 0.132719 0.430402
213 1 33.5826 2.04896 1.53232 0.390657
181 2 36.2093 2.32951 0.238851 2.93057
182 1 35.6309 2.09402 0.636624 3.85945
183 1 37.1339 2.18361 0.202343 0.457167
211 2 34.3908 1.77516 2.03813 0.403805
212 1 34.5023 2.46138 2.74407 0.493217
705 1 34.3563 0.217012 2.0241 0.512166
186 1 37.7235 0.601919 2.74305 0.44781
197 1 37.6114 3.09995 3.3693 0.311473
214 2 38.9581 2.14472 0.35851 0.3411
216 1 39.4768 1.99815 1.1934 0.330248
217 2 42.7859 2.71123 0.350102 0.431811
218 1 43.7362 2.63621 0.630315 0.339302
247 2 40.9534 1.94913 2.30013 0.455833
248 1 40.9504 2.64017 3.01517 0.479169
249 1 41.6382 2.27801 1.65449 0.509691
740 1 41.1163 0.408003 2.27241 0.348949
221 1 44.4123 0.573293 2.84387 0.485773
250 2 45.5436 2.71883 0.744329 0.358841
2018 1 46.7864 2.18907 1.95123 0.338244
19 2 0.297663 6.19485 2.02139 0.369752
1338 1 1.91701 6.32916 0.918742 0.424071
1568 1 0.293304 5.01084 3.35511 0.474349
1780 2 3.15179 4.2134 3.36972 0.384272
1808 1 2.77425 3.36124 1.46801 0.337008
1809 1 1.90736 3.53587 0.148273 0.739239
1298 1 3.8872 5.31792 0.0232384 0.338556
1299 1 5.32771 5.06831 0.553659 0.34897
1813 2 6.52739 5.72551 1.80625 0.428101
1815 1 6.67243 4.79525 2.09246 0.267003
32 1 9.48388 6.54515 0.163072 0.490826
1084 2 9.7591 4.47626 2.82003 0.45754
1542 1 9.43812 3.53559 1.38576 0.349796
1814 1 7.30011 5.96774 1.22741 0.443298
1 2 11.5243 6.57374 2.73608 0.425256
2 1 12.3803 6.52145 3.2221 0.486661
1085 1 10.1769 3.7022 3.2947 0.424188
1086 1 10.4232 5.22123 2.82126 0.459808
1517 1 11.5499 6.59048 0.86202 0.460579
1518 1 11.461 5.51308 0.0882697 0.604515
1345 2 15.7055 5.01975 1.64752 0.370756
1346 1 16.0334 5.87193 1.25437 0.340554
1347 1 15.1228 5.28586 2.39757 0.467032
2053 2 14.2546 3.42918 0.20663 0.400047
2055 1 14.8879 4.03222 0.288244 0.748036
556 2 20.2073 5.36671 0.844452 0.285355
558 1 19.8288 5.97783 0.164811 0.311512
1135 2 18.074 3.69423 2.12503 0.3408
1136 1 18.7208 4.21148 1.58816 0.355117
1137 1 17.1702 4.01723 1.85745 0.324984
125 1 23.187 3.72534 3.3508 0.334629
557 1 20.4614 5.99881 1.55342 0.496336
843 1 21.1534 3.35707 2.83434 0.384119
121 2 24.5957 5.67339 1.25191 0.374442
122 1 24.3962 4.93338 1.89012 0.394791
123 1 24.3963 6.48522 1.78894 0.338147
124 2 24.1591 3.65919 3.13679 0.422688
164 1 26.3946 5.54299 1.4127 0.322086
156 1 27.7759 4.55494 2.97133 0.426328
163 2 27.3544 5.67017 1.65927 0.379978
1681 2 29.3837 5.21395 0.102085 0.835936
1682 1 30.2069 5.48445 0.212978 0.363252
1683 1 28.6732 5.36619 0.414232 0.668683
157 2 31.4656 6.17278 1.48732 0.501984
158 1 32.4524 6.26959 1.40407 0.382881
159 1 31.3437 5.41142 2.12347 0.351559
160 2 30.9445 4.19104 3.31138 0.448248
199 2 34.2266 6.2456 1.76676 0.399868
200 1 34.8063 5.89003 1.04092 0.468636
201 1 34.3334 5.59981 2.51408 0.463378
1717 2 35.9954 5.38562 0.137467 0.47223
1718 1 36.0419 4.40843 0.0207422 0.34946
1719 1 36.7786 5.6131 0.335255 0.582422
193 2 37.9006 6.08347 1.72082 0.439501
195 1 38.8808 6.11107 1.57192 0.249774
198 1 37.6395 4.65917 2.93116 0.330758
219 1 42.708 3.65941 0.0683438 0.365663
235 2 40.7328 6.0432 1.62846 0.335254
236 1 40.9255 5.41429 2.371 0.429504
1753 2 42.7602 5.48924 0.180245 0.326244
1754 1 41.9988 5.77935 0.384651 0.482246
21 1 46.8408 6.10119 1.65695 0.408326
229 2 44.8274 5.75982 1.85807 0.44222
230 1 44.5427 5.09797 2.54185 0.398293
231 1 44.2332 5.64102 1.07441 0.399444
251 1 45.7562 3.66004 0.555313 0.444106
20 1 0.408715 7.16863 2.19332 0.319446
1036 2 0.618145 8.94038 1.8587 0.400851
1037 1 0.61372 9.51486 2.67478 0.351409
1336 2 2.81759 6.67726 0.714711 0.376783
1337 1 2.66817 7.32903 0.00180024 0.464409
1824 1 3.35971 7.37002 2.40614 0.347736
2066 1 2.00655 9.55138 0.90894 0.430236
344 1 6.47085 8.71941 2.10562 0.492233
345 1 6.66654 7.3871 2.89196 0.317549
583 2 5.46195 9.68609 0.874111 0.44524
1822 2 3.49505 7.66685 3.34048 0.39936
2067 1 3.63448 9.73019 0.766916 0.405572
31 2 8.48937 6.69371 0.0672003 101.159
343 2 6.92268 8.33897 2.90027 0.602661
347 1 8.69888 8.64148 0.0935413 0.337419
348 1 9.92626 9.55141 0.467124 0.503284
1278 1 8.75097 8.28844 3.3266 0.407935
3 1 10.9275 7.23427 3.17875 0.3286
817 2 14.8457 8.91388 3.00026 0.468925
819 1 15.8343 8.83934 3.11359 0.320894
886 2 14.0199 9.89979 0.335057 0.411506
887 1 14.4193 9.57077 1.17558 0.511724
1798 2 16.8708 7.27335 0.519858 0.359075
72 1 19.5958 8.28022 2.14339 0.279179
1799 1 17.1279 7.78128 1.32457 0.469915
1800 1 17.7203 7.18431 0.0033093 0.326265
1837 2 17.5805 8.55426 3.02319 0.412052
1838 1 17.9918 9.45947 3.15707 0.361347
70 2 20.5082 7.94419 2.25093 0.392676
71 1 20.864 8.45166 3.02848 0.297186
1897 2 22.2584 8.50566 0.058806 0.451756
1898 1 21.6288 8.15621 0.736505 0.298876
1899 1 22.1861 9.4851 0.183266 0.39448
364 2 24.1526 7.67723 3.22001 0.382258
377 1 24.2683 9.54668 3.15394 0.36398
394 2 25.1557 9.0507 0.18354 0.942119
395 1 24.1938 8.85595 0.304142 0.345277
428 1 26.3791 8.69525 1.52485 0.31685
165 1 27.4119 6.63448 1.90495 0.471616
397 2 29.1672 9.22998 0.054167 1.16445
398 1 28.4687 9.00429 0.728016 0.398575
427 2 27.2353 8.41577 1.94214 0.533753
429 1 27.4534 9.05407 2.66783 0.328634
400 2 30.7854 7.97796 3.4127 0.472321
401 1 31.0179 7.44275 2.60315 0.389092
402 1 30.8594 8.93995 3.17589 0.310186
430 2 31.9597 9.27619 0.119751 0.37686
432 1 30.9869 9.25701 0.313964 0.313715
464 1 33.3531 9.17119 1.2762 0.353657
433 2 36.1987 9.46997 0.205005 0.771863
434 1 35.5349 9.25901 0.549571 0.910978
463 2 34.2103 9.03837 1.76417 0.401389
465 1 34.2835 8.05731 1.88531 0.473086
194 1 37.7402 6.85078 2.33089 0.499137
466 2 38.9279 8.95441 0.322418 0.30039
467 1 37.9335 8.97944 0.2621 0.448741
468 1 39.217 9.75994 0.184743 0.463773
500 1 40.126 8.92935 1.65449 0.37629
237 1 40.8985 6.94815 2.01202 0.35022
469 2 42.879 9.25957 0.191855 0.385788
471 1 42.2981 9.02018 0.961622 0.380619
499 2 40.9375 8.69056 2.17895 0.488718
501 1 40.9829 9.25528 2.99357 0.471578
474 1 44.4571 7.28988 2.84166 0.416021
502 2 45.7618 9.38944 0.313241 0.442233
504 1 44.7996 9.25679 0.500766 0.425887
1038 1 47.2095 9.12404 1.39532 0.409031
271 2 0.0324622 12.7351 2.05363 0.426808
272 1 0.74694 12.6836 1.36206 0.374373
280 2 2.33292 12.6524 0.589484 14.3499
281 1 2.53964 11.725 0.308422 0.40906
282 1 2.38146 13.1961 0.143022 18.5743
2065 2 2.75043 9.90883 0.349383 0.404283
2112 1 0.599111 11.594 3.26595 0.445356
585 1 5.61147 10.6451 0.676528 0.357979
1057 2 3.89208 12.8253 2.96755 0.398671
1059 1 3.46378 12.8779 2.0784 0.363147
1356 1 6.8325 12.3708 3.24222 0.407358
888 1 13.0647 10.0482 0.57574 0.396364
1324 2 11.4383 10.4668 1.17655 0.421621
1325 1 11.512 10.3082 2.14999 0.470625
1326 1 11.3092 11.4489 1.12306 0.433217
636 1 16.8861 11.919 0.277797 0.438903
1514 1 14.851 13.1509 1.54209 0.39304
1867 2 15.1693 12.389 0.0356491 9.29184
1869 1 14.6896 11.5114 0.0665162 0.402712
37 2 18.5346 11.1136 3.19429 0.358187
38 1 18.0624 11.3809 2.35289 0.331619
561 1 20.0584 11.972 2.8896 0.372704
634 2 17.7578 11.712 0.677084 0.712644
635 1 18.1996 11.1335 0.371072 0.710146
559 2 20.9084 12.4277 2.62342 0.453728
1588 2 22.3499 11.3093 0.493117 27.7868
1589 1 21.7613 11.6675 1.21033 0.474511
373 2 24.8215 12.2613 1.1691 0.520192
374 1 23.986 11.9332 0.737019 0.438404
375 1 24.5753 13.0701 1.68999 0.543196
376 2 24.2859 10.506 3.40011 0.435202
378 1 24.5663 10.9998 2.59012 0.40613
416 1 26.5945 12.1344 1.14975 0.452667
408 1 27.8407 11.1842 2.77896 0.43117
413 1 29.8727 10.7833 3.40669 0.421566
415 2 27.5256 12.2359 1.4845 0.487819
417 1 28.1527 12.1582 0.724175 0.355119
409 2 31.463 12.6758 1.36298 0.367742
411 1 32.4545 12.686 1.46699 0.329488
412 2 30.8629 10.7277 3.27494 0.446743
414 1 31.1136 11.3511 2.53802 0.416137
444 1 34.3932 10.1163 3.2493 0.47642
451 2 34.1521 12.8238 2.05272 0.500465
452 1 34.3361 12.2037 2.81346 0.342041
453 1 34.8207 12.5832 1.3549 0.39909
1969 2 35.9442 12.2432 0.0151262 0.389493
1970 1 35.9849 11.2771 0.165662 0.440927
1971 1 36.7796 12.3728 0.537993 0.427413
445 2 37.983 12.5228 1.88466 0.49592
446 1 37.7367 11.8537 2.58606 0.414069
488 1 39.7939 12.5055 1.94501 0.341007
470 1 42.7504 10.2469 0.0894783 0.362257
487 2 40.7556 12.5512 2.20114 0.430511
2005 2 42.6612 11.9905 0.141912 0.428962
2006 1 43.4668 12.2628 0.655805 0.403685
2007 1 41.9238 12.1542 0.785578 0.386042
481 2 44.6835 12.4902 2.03758 0.408444
482 1 44.4471 11.7678 2.68732 0.366846
483 1 45.6592 12.4252 1.87489 0.423235
503 1 45.807 10.2521 0.176726 0.330922
273 1 0.0788383 13.6872 2.33998 0.339872
535 2 0.222629 15.4875 2.34567 0.409103
537 1 1.12934 15.611 1.95929 0.352565
2038 2 2.80736 16.1034 1.21613 0.417584
2039 1 3.08937 16.3176 2.14754 0.356046
844 2 5.08066 14.8592 0.171239 0.409632
845 1 4.19642 15.21 0.467907 0.291241
846 1 5.7131 15.405 0.704093 0.356407
1354 2 6.71533 13.3236 2.98515 0.329508
1355 1 5.73397 13.4261 2.98034 0.470459
1561 2 8.81687 14.6222 1.56601 0.260859
1562 1 8.9461 15.4307 2.11902 0.279506
1563 1 8.06636 14.1465 1.9968 0.459598
139 2 12.9785 15.3194 1.02333 0.398549
140 1 12.3723 14.5469 1.20306 0.449607
141 1 12.5016 16.1194 1.37919 0.36534
2023 2 11.1942 13.2993 1.62713 0.529734
2024 1 10.2845 13.7339 1.57971 0.280905
2025 1 11.4 13.2712 2.59037 0.461103
258 1 16.6197 13.9918 2.69394 0.356054
1513 2 14.8254 13.5475 2.46208 0.358795
1515 1 14.2489 14.3317 2.33069 0.354446
256 2 17.4367 14.4478 3.01536 0.525248
257 1 17.4051 15.3755 2.65711 0.409946
824 1 19.7108 13.2577 0.170546 0.367788
825 1 20.1733 14.6425 0.303018 12.9308
613 2 23.0411 16.0544 0.129724 0.396732
615 1 22.4256 15.7799 0.852649 0.372896
1138 2 21.0392 15.0684 1.86195 0.465959
1139 1 20.6632 15.6213 2.57434 0.484579
1140 1 20.9411 14.1229 2.17777 0.281367
616 2 24.3467 14.1225 3.09283 0.495097
618 1 24.1205 15.0894 3.13084 0.364812
646 2 25.7827 15.7083 0.0618209 2.27464
648 1 24.7939 15.7808 0.114245 0.444788
681 1 26.7441 15.2315 1.46139 0.448367
650 1 28.7587 15.4061 0.749286 0.333379
651 1 30.218 15.6363 0.226995 0.317553
659 1 27.7634 16.3283 3.38078 0.425026
679 2 27.5124 15.05 2.06769 0.4618
680 1 27.5558 14.0668 2.1227 0.374157
410 1 31.15 13.4856 1.84351 0.38104
652 2 30.7544 14.7008 3.18916 0.446063
653 1 30.6666 15.6762 3.09975 0.362513
682 2 32.0252 15.9244 0.135808 0.451545
683 1 32.705 15.8558 0.856894 0.381018
686 1 35.3599 15.8198 0.674401 0.426151
715 2 34.089 15.5306 1.93869 0.462789
716 1 34.1852 14.5668 2.17432 0.331819
717 1 34.1687 16.0811 2.75926 0.366989
447 1 37.8083 13.3776 2.37197 0.388491
718 2 38.9118 15.8949 0.323848 0.485411
719 1 37.9281 15.9218 0.428485 0.3857
720 1 39.0696 15.1442 0.0521616 0.579697
753 1 40.287 15.6263 1.49672 0.425839
489 1 40.918 13.5223 2.30015 0.391556
721 2 43.1706 15.909 0.105474 0.536182
751 2 41.1062 15.3947 2.01101 0.512744
752 1 41.8631 15.5203 1.38183 0.368944
536 1 47.0563 15.737 1.60006 0.393952
722 1 44.15 15.8624 0.244706 0.470874
726 1 44.5796 13.9742 2.9602 0.360068
754 2 46.0378 16.1792 0.213029 0.846424
277 2 2.11737 18.6727 0.341226 0.410437
278 1 2.65546 19.4827 0.17964 0.414757
279 1 1.37337 18.9552 0.949712 0.479817
514 2 0.108737 19.4152 2.07964 12.489
516 1 0.177386 18.8581 2.90392 0.509624
2040 1 2.63159 16.9911 0.804021 0.44463
1114 2 5.14469 18.5809 3.03281 0.360403
1115 1 5.74042 18.0629 2.4385 0.409213
1116 1 4.96457 19.472 2.59905 0.823229
1551 1 4.94924 19.681 0.234046 0.374266
1861 2 6.57345 17.0323 1.1075 0.396452
1863 1 6.21879 17.6467 0.415559 0.398352
76 2 8.61411 19.57 2.92998 0.565986
77 1 9.56467 19.6615 3.19543 0.368515
78 1 8.56154 19.7039 1.94178 0.433424
530 1 7.44657 19.6575 0.241657 0.354364
1051 2 9.30119 16.9759 0.316825 0.389356
1862 1 7.53599 16.9851 0.8998 0.302362
2120 1 8.62771 17.6655 3.23217 0.282828
847 2 11.5465 17.6741 1.44358 0.358126
848 1 10.692 17.4458 0.980228 0.437088
849 1 12.0848 18.1356 0.748083 0.337808
864 1 11.5748 18.7402 3.04756 0.33414
133 2 14.9944 18.0024 1.89149 0.498608
134 1 15.0402 18.9961 1.94029 0.451673
135 1 15.0103 17.6578 0.965834 0.358694
1343 1 14.293 17.3871 3.37529 0.39832
1595 1 16.6295 17.4647 2.27043 0.380288
1262 1 18.0155 19.7628 0.532065 0.89864
1267 2 19.0471 18.264 0.403801 0.372303
1268 1 18.5229 17.6833 1.01779 0.352068
1269 1 19.8402 18.5516 0.915057 0.313964
1594 2 17.5501 17.1011 2.39016 0.431586
1596 1 17.9732 17.6666 3.09585 0.394044
292 2 22.7985 18.7217 0.125184 0.634254
294 1 22.1989 19.1383 0.433504 0.561768
1315 2 21.189 19.561 1.80782 35.229
1317 1 21.667 19.4195 2.66399 0.386368
625 2 24.7818 18.6244 1.78429 0.31228
626 1 24.2827 18.5703 0.936481 0.396997
627 1 24.6168 19.5482 2.11074 0.405629
630 1 23.937 17.3999 2.97979 0.373166
669 1 26.4909 18.8682 1.73438 0.30013
660 1 27.7115 17.8803 3.16426 0.466647
667 2 27.4645 19.0022 1.9119 0.33357
2185 2 29.209 18.5446 0.158376 0.906188
2186 1 29.2001 17.5531 0.0699855 0.40569
2187 1 28.5395 18.7133 0.51021 0.818146
661 2 31.3975 19.3261 1.53798 0.346768
662 1 32.356 19.1398 1.3752 0.402047
663 1 30.8562 19.0302 0.765027 0.470251
666 1 30.8268 18.3415 2.97899 0.322468
684 1 32.209 16.7774 0.0355645 0.451179
696 1 34.4242 18.1226 3.21525 0.501874
703 2 34.1984 19.0713 1.77867 0.378853
704 1 34.8465 18.8998 1.0458 0.507399
2221 2 36.1812 18.7378 0.0990264 0.335079
2222 1 36.1306 17.7462 0.0369891 0.358627
2223 1 36.9947 18.9099 0.266416 0.476925
697 2 38.1434 19.2014 1.74811 0.358068
698 1 37.8904 18.4872 2.39606 0.451692
699 1 39.1386 19.1998 1.72467 0.283159
723 1 43.0644 16.8536 0.212709 0.55313
732 1 41.3439 16.5758 3.31008 0.357081
739 2 40.9786 19.2919 1.92395 0.393397
741 1 41.2149 18.6598 2.66191 0.400868
2257 2 42.8402 18.7758 0.150825 0.389297
2258 1 42.1156 19.0182 0.418676 0.530929
733 2 44.792 19.2437 1.72425 0.40317
734 1 44.271 19.1516 0.884368 0.414209
735 1 45.7677 19.2449 1.55202 0.401117
737 1 44.4968 17.9709 2.95541 0.414723
756 1 46.1256 17.0705 0.170689 0.393925
7 2 1.42711 0.461092 5.75261 2.90617
8 1 0.440801 0.442731 5.55592 0.368422
575 1 2.57942 1.27253 4.72639 0.333889
576 1 3.2524 2.64923 4.16618 0.279869
106 2 5.59984 1.07563 6.27638 0.326578
107 1 4.72638 1.42719 5.98556 0.401941
574 2 3.43048 1.70571 4.43651 0.329825
286 2 8.55452 2.7263 6.77341 0.414348
287 1 9.40861 3.20666 6.75991 0.487441
1834 2 7.42168 1.6157 4.13217 0.389597
1835 1 6.79495 1.48876 4.88685 0.358888
1836 1 7.63276 0.726983 3.73807 0.32561
2115 1 9.41122 1.8983 4.33821 0.401719
610 2 13.1729 2.63178 4.91453 0.446401
611 1 12.3656 3.16111 5.14712 0.410363
612 1 13.2094 2.59158 3.92582 0.386037
1363 2 12.7627 0.167595 5.92194 0.46898
1364 1 12.8879 1.09686 5.55837 0.529719
1365 1 12.2721 0.318754 6.75421 0.443455
2113 2 10.3218 2.17412 4.09251 0.326707
2114 1 10.7936 1.37535 3.78576 0.284306
1024 2 15.2627 3.01619 6.82442 0.416694
1025 1 14.4529 2.96732 6.25915 0.360442
2032 2 16.4114 1.3111 4.82749 0.322616
2033 1 16.1492 2.03233 5.45082 0.288607
2034 1 16.0943 0.464193 5.2547 0.378849
604 2 18.9993 3.2327 6.72917 0.407034
605 1 19.7694 2.68713 6.46212 0.338458
1080 1 20.1763 1.44781 4.75956 0.509437
1840 2 18.8554 1.362 3.75459 0.350282
1841 1 17.9624 1.40962 4.2065 0.35378
592 2 22.6338 0.0675327 4.24552 0.378815
593 1 23.4531 0.220915 3.90436 0.50778
842 1 21.3328 3.07815 4.35326 0.363031
1078 2 21.0347 1.6193 5.244 0.472805
1079 1 21.641 0.897106 4.88501 0.458729
1812 1 22.228 1.76446 6.70676 0.32987
114 1 25.4907 0.885672 3.62261 0.358278
136 2 26.5282 0.340096 4.89826 17.5999
137 1 26.2142 0.869174 5.69616 0.497244
166 2 29.2986 0.601473 4.99576 0.435386
167 1 28.3638 0.571631 4.6697 0.381891
168 1 29.9416 0.82947 4.26823 0.484493
903 1 29.2158 1.7791 6.28582 0.38254
172 2 33.0717 0.789216 5.34154 20.7532
173 1 32.8843 0.138768 5.50413 26.9174
174 1 32.5529 1.01595 4.51561 0.41835
935 1 32.3884 1.78521 6.6723 0.462247
185 1 36.9863 1.0976 4.08593 0.438382
202 2 35.8038 0.931933 5.43715 0.411793
203 1 36.0666 0.159884 6.01242 0.330141
204 1 34.8124 0.863934 5.31126 0.434097
938 1 35.9094 2.173 6.66865 0.385627
184 2 37.7587 1.26898 3.47829 0.402956
208 2 39.7871 0.417288 5.19817 0.289842
209 1 39.2632 0.692764 4.40192 0.394775
210 1 39.4358 0.985445 5.93848 0.379362
238 2 42.4986 0.118015 5.41748 0.411338
239 1 41.5655 0.281869 5.12075 0.418048
240 1 43.1142 0.424495 4.69753 0.37537
975 1 42.6694 1.50816 6.56402 0.400429
220 2 44.3782 1.13613 3.65805 0.443306
222 1 45.1518 0.859615 4.22716 0.451395
234 1 44.1297 3.01658 3.77042 0.593585
244 2 46.2043 0.450249 5.59148 8.87106
245 1 45.9804 1.09179 6.32463 0.619521
1524 1 1.71763 6.32639 5.55623 0.42421
1567 2 0.447878 4.2972 4.03458 0.371491
1569 1 0.275573 3.43517 3.562 0.40844
1782 1 2.27948 4.51605 3.72188 0.387006
2124 1 1.99456 4.20054 6.87692 0.39357
1781 1 3.851 4.75981 3.8132 0.410103
1849 2 5.06345 5.7782 4.69822 0.348649
1850 1 4.93433 5.85386 5.68109 0.279504
1851 1 5.99137 5.44889 4.58284 0.346247
84 1 8.1691 6.08542 5.68115 0.377578
274 2 7.66528 4.77019 4.64746 0.402505
275 1 7.71336 3.88754 5.0698 0.350655
276 1 8.34783 4.75864 3.91787 0.441366
853 2 11.2695 4.2684 6.17157 0.290795
855 1 11.5585 5.21229 6.12401 0.462435
808 2 14.1838 6.34887 3.77604 0.437106
810 1 14.7889 6.1032 4.54304 0.438033
1026 1 15.4832 3.97446 6.85555 0.491658
1582 2 15.7624 5.69064 5.85056 0.405726
1583 1 16.112 6.54312 6.21535 0.322445
1584 1 16.5357 5.28801 5.35665 0.423497
326 1 18.7194 6.08768 4.79083 0.323647
538 2 17.9078 4.59639 4.67346 0.437459
539 1 17.9873 4.24139 3.74113 0.357095
540 1 18.2701 3.9185 5.30473 0.401253
841 2 21.4416 3.80169 3.67123 0.552977
856 2 21.8503 6.50388 4.55074 0.375231
857 1 21.6746 5.63381 4.11185 0.36109
858 1 22.2376 6.21614 5.40965 0.340672
115 2 25.7603 4.13239 5.30913 0.58542
116 1 25.6706 5.06882 5.61047 0.397598
117 1 25.6574 3.50915 6.07177 0.367272
126 1 24.6519 3.87991 3.97964 0.371176
154 2 28.1486 3.90632 3.63236 0.561784
155 1 27.5166 3.95998 4.38741 0.550306
162 1 29.9864 4.1291 3.5629 0.355342
169 2 29.1692 5.15073 6.79437 0.464781
171 1 29.0828 4.16193 6.73645 0.470934
420 1 28.9806 6.46845 5.57924 0.438674
151 2 32.5827 4.59506 5.58933 0.547816
152 1 32.4971 3.98264 6.36352 0.385711
153 1 32.5486 5.52803 5.89784 0.441452
161 1 31.4495 4.40813 4.13865 0.348363
190 2 34.6025 4.14993 3.67054 0.505858
191 1 35.5664 4.18251 3.89816 0.32472
192 1 34.057 4.28639 4.48701 0.32687
205 2 35.7174 5.48786 6.78407 0.552021
207 1 35.5468 6.19106 6.09871 0.367786
187 2 39.1987 4.41341 5.73379 0.446805
188 1 38.4962 4.25575 5.042 0.415088
189 1 39.1419 3.62732 6.34514 0.415359
196 2 37.4104 4.02827 3.66329 0.454709
227 1 40.5862 4.32379 4.61895 0.377167
461 1 39.1964 6.29889 6.02279 0.331103
226 2 41.1834 4.25469 3.82304 0.497196
228 1 42.1326 4.28089 4.10648 0.343253
232 2 43.961 3.97633 3.95782 0.454177
491 1 42.3755 6.35319 5.84357 0.34621
223 2 45.9335 4.56252 5.8914 0.424561
224 1 46.7203 4.45034 5.2784 0.350846
225 1 45.9126 5.53194 6.07753 0.406098
233 1 44.5646 4.21201 4.71297 0.353291
48 1 1.66849 8.39152 6.28306 0.331029
1522 2 1.43764 7.14967 5.07657 0.499404
1523 1 2.09872 7.28571 4.34757 0.396931
1098 1 5.62747 9.75952 6.66355 0.432339
1823 1 4.15809 7.05322 3.7548 0.291439
1895 1 3.67437 9.40975 3.77861 0.377329
82 2 8.4136 6.97913 6.05582 0.326665
1276 2 9.55941 8.12622 3.87684 0.442801
1277 1 9.21257 7.70231 4.71684 0.413137
1548 1 6.96848 7.78944 6.84805 0.441143
101 1 10.6891 9.36857 4.14175 0.334189
1303 2 12.6177 9.51153 6.58258 0.394703
2062 2 12.7196 6.74892 6.37555 0.531453
2063 1 12.53 7.72562 6.45184 0.466329
2064 1 13.1912 6.65089 5.51909 0.340643
809 1 14.4307 7.28305 3.52487 0.423365
818 1 14.556 9.67337 3.55887 0.547625
1305 1 13.5761 9.68002 6.80388 0.399304
325 2 19.0302 7.03734 4.84897 0.346876
327 1 20.0159 6.99232 4.80471 0.386766
526 2 17.2282 8.03398 6.61175 0.344433
527 1 17.9978 7.76273 6.0433 0.311807
1839 1 18.0369 7.95568 3.67491 0.395578
352 2 22.9507 9.03794 6.59804 0.368949
365 1 23.2862 7.36995 3.58564 0.37681
1288 2 21.4358 9.66549 4.30155 0.322697
1289 1 22.0812 9.30025 4.95126 0.317756
366 1 24.807 7.44421 3.94112 0.439161
388 2 25.8703 6.98631 5.28043 0.442759
389 1 25.7427 7.59796 6.0524 0.291851
390 1 26.8298 7.11857 5.05648 0.41566
1152 1 25.9407 9.7183 6.72244 0.449736
418 2 28.6661 7.284 5.10406 0.461657
419 1 29.2529 7.44515 4.32105 0.412668
1153 2 29.6324 9.29367 6.86618 0.459657
1154 1 29.3436 8.62767 6.18738 0.382204
424 2 32.6408 7.51959 5.39861 0.42677
425 1 31.9692 7.7168 4.6843 0.381334
426 1 32.4821 8.16501 6.13953 0.330235
438 1 36.6709 7.86796 4.21944 0.372734
454 2 35.2968 7.75114 5.24122 0.441426
455 1 34.3004 7.72445 5.12742 0.421902
456 1 35.4659 8.40508 5.97268 0.420343
436 2 37.5584 7.98939 3.77642 0.489957
437 1 37.6217 8.97839 3.69195 0.404608
460 2 39.3565 7.25968 5.84801 0.4375
462 1 38.7705 7.49383 5.07653 0.417481
473 1 43.4504 7.59804 4.03383 0.388017
490 2 42.199 7.16493 5.29476 0.51125
492 1 41.2137 7.24054 5.2808 0.367887
1227 1 42.557 8.52148 6.44386 0.374797
472 2 44.2935 7.902 3.60648 0.542438
485 1 44.1485 9.73386 3.77085 0.503944
496 2 46.2139 7.39612 5.54353 0.38515
497 1 45.5965 7.54292 4.77822 0.355882
498 1 47.1485 7.42073 5.2016 0.375954
1260 1 45.7959 8.70749 6.58577 0.430971
512 1 1.8377 12.8643 5.37939 0.354331
1105 2 1.86851 11.7715 6.74855 0.314907
1106 1 1.82499 10.7766 6.68631 0.388207
2110 2 0.683971 10.7982 3.86608 0.466987
2111 1 1.6207 10.7545 4.17021 0.333784
18 1 6.46009 10.8921 4.93347 0.395038
1096 2 5.35063 10.6245 6.25558 0.357939
1097 1 4.61997 10.3947 5.61209 0.271045
1894 2 3.54657 10.2905 4.22454 0.402033
1896 1 3.84845 11.0131 3.61768 0.284609
16 2 7.04633 10.8638 4.12667 0.365337
17 1 6.95008 9.9394 3.78956 0.430389
1282 2 9.35121 11.5993 5.36506 0.407202
1283 1 8.53633 11.318 4.86048 0.319742
1284 1 10.0861 11.0694 4.95202 0.372918
100 2 11.3359 10.1304 4.11832 0.436691
102 1 11.9815 9.99569 4.85555 0.356751
1099 2 13.4665 13.1633 6.58409 0.440081
2127 1 10.7198 13.1668 4.86178 0.40748
94 2 14.3444 11.4789 4.40651 0.546661
95 1 14.3805 12.2344 3.76529 0.433187
96 1 13.8635 11.8148 5.19916 0.394009
1063 2 16.9413 11.4718 5.32529 0.403578
1064 1 15.9914 11.4375 5.02224 0.302491
1065 1 16.9202 11.9352 6.20257 0.299658
39 1 18.0117 11.4253 3.99148 0.312851
885 1 19.7132 12.1069 6.76802 0.411265
1399 2 19.5208 10.3086 6.44139 0.358707
1400 1 18.575 10.1575 6.21688 0.439837
1401 1 20.0333 10.1649 5.60554 0.38916
560 1 21.3837 12.652 3.46637 0.392197
1290 1 21.9737 10.3426 3.84522 0.281928
1611 1 22.6533 12.5397 5.51241 0.330491
367 2 26.1679 10.9056 5.37695 0.527981
368 1 25.4775 10.6991 4.68113 0.356533
369 1 26.0494 11.8819 5.51901 0.375125
406 2 28.15 10.5424 3.484 0.393922
407 1 27.5813 10.7233 4.28027 0.376261
421 2 29.4229 12.0291 6.59346 0.452899
422 1 29.4527 11.0362 6.55282 0.353298
403 2 32.4571 11.3715 5.43176 0.40545
404 1 32.3236 10.7722 6.21612 0.419826
405 1 31.7696 11.1535 4.73827 0.450192
443 1 33.8815 10.9006 4.56556 0.334338
678 1 32.5217 13.101 5.49107 0.543639
442 2 34.6052 10.8578 3.87576 0.46076
450 1 36.3713 10.8137 4.16308 0.351949
458 1 35.831 12.8507 6.40119 0.395401
439 2 39.1428 11.1064 6.05463 0.488375
440 1 39.1469 12.0375 6.36676 0.362832
441 1 38.9988 10.509 6.83816 0.395496
448 2 37.3451 10.7746 3.95674 0.441564
449 1 37.8707 10.9712 4.77884 0.348397
480 1 40.5674 10.7189 4.93553 0.541152
478 2 41.2013 10.6466 4.17496 0.456328
479 1 40.9968 11.4222 3.58351 0.453289
484 2 43.9853 10.6841 4.00089 0.41134
486 1 43.0172 10.7159 4.2278 0.313201
495 1 42.6679 10.9259 6.83602 0.312866
744 1 42.2864 13.0732 5.64814 0.318665
475 2 46.084 11.6187 5.647 0.41513
476 1 45.3075 11.3933 5.06565 0.335468
477 1 46.8742 11.3157 5.12428 0.355875
1259 1 45.7222 10.2706 6.81419 0.360365
511 2 1.90564 13.6876 4.82402 0.467369
513 1 2.37257 14.3319 5.43029 0.31106
750 1 0.0976543 14.2763 5.13047 0.284573
1058 1 3.2165 13.2013 3.59227 0.421181
2074 2 3.15682 15.711 6.18416 0.387534
2076 1 3.32843 16.1282 5.28943 0.3603
1309 2 5.8832 16.0411 6.45739 0.301724
1311 1 6.54309 15.5606 5.88736 0.339021
2075 1 4.07936 15.6025 6.527 0.40881
1864 2 7.92654 14.7869 5.07886 0.420408
1865 1 7.53205 14.2242 4.36342 0.353864
1866 1 8.32226 15.5561 4.59293 0.415755
2125 2 11.5365 13.622 4.55497 0.363337
2126 1 12.2164 13.437 5.25633 0.36335
2134 2 11.4189 16.3548 4.62321 0.344252
2135 1 11.4731 15.3597 4.57871 0.426013
1100 1 14.1183 13.8979 6.611 0.548266
1344 1 14.626 16.3986 4.58494 0.375097
1537 2 15.5811 15.1066 5.24424 0.426426
1538 1 16.2094 15.4978 5.89393 0.428447
1539 1 16.1703 14.7705 4.52889 0.301765
1621 2 17.8519 16.443 6.67484 0.340117
1623 1 18.5244 16.0365 6.06997 0.25308
1801 2 19.4484 14.8845 4.94243 0.385558
1802 1 18.7812 14.5412 4.29434 0.344579
1803 1 19.642 14.168 5.60043 0.360601
617 1 23.6258 13.6989 3.63533 0.400495
1109 1 20.6396 16.328 4.81154 0.322596
1369 2 22.3449 15.3152 6.84365 0.302682
1609 2 22.4162 13.2306 4.83213 0.378367
1610 1 22.249 14.0292 5.39486 0.315821
640 2 25.9342 13.7238 5.36528 0.472586
641 1 25.416 13.9006 4.53421 0.386426
642 1 26.8846 13.9018 5.11891 0.362332
1404 1 25.4454 14.9812 6.58644 0.443469
654 1 29.925 14.4099 3.65334 0.317774
670 2 28.6325 14.0014 4.87331 0.418528
671 1 28.8664 14.7605 5.48366 0.450301
672 1 28.9565 13.2091 5.38054 0.545324
1405 2 29.2213 15.9489 6.66172 0.374873
676 2 32.6138 14.089 5.36055 0.492163
677 1 32.0277 14.3068 4.59327 0.430674
1439 1 32.189 15.2126 6.68798 0.442465
689 1 36.7108 14.4504 4.06342 0.419086
706 2 35.4405 14.2526 5.3693 0.526764
707 1 34.4616 14.2231 5.21041 0.419209
708 1 35.5857 15.0011 6.00742 0.422976
688 2 37.5727 14.6217 3.60195 0.567214
690 1 38.246 14.3989 4.31546 0.382333
701 1 37.4948 16.4207 3.52436 0.353443
712 2 39.2358 14.0598 5.69803 0.4276
713 1 39.0128 14.7456 6.38787 0.356916
714 1 40.1955 14.1734 5.48229 0.45942
742 2 42.0626 13.9719 5.28051 0.609641
743 1 42.6699 14.1121 4.52033 0.405251
1478 1 42.853 14.9423 6.52502 0.376138
724 2 44.4259 14.6837 3.64589 0.496178
725 1 45.1801 14.5776 4.27649 0.384923
738 1 44.3851 16.4122 3.47088 0.341048
748 2 46.6279 14.3143 5.49717 0.435937
749 1 46.4279 13.3583 5.70141 0.318517
9 1 1.70468 19.6875 6.13118 3.84469
322 2 3.14279 16.9163 3.82613 0.384414
324 1 2.27683 17.3565 4.01285 0.349549
562 2 0.471052 17.5706 4.20293 0.457312
563 1 0.207898 16.7315 3.74212 0.318555
1580 1 2.36556 17.3888 6.80539 0.360601
323 1 3.79985 17.6272 3.59785 0.334424
1048 2 6.09357 18.5629 5.5366 0.29616
1049 1 5.75389 18.6504 4.60261 0.363057
1050 1 5.8229 19.4037 5.98257 0.340589
1310 1 5.86238 16.9729 6.09118 0.488737
61 2 8.81856 18.5663 6.48111 0.542492
62 1 8.30826 18.7568 5.66979 0.43256
2119 2 8.971 16.7644 3.44531 0.437405
2121 1 9.89938 16.8663 3.77958 0.412379
862 2 11.3265 19.5088 3.61611 0.509241
863 1 11.8491 19.5024 4.4572 0.340642
1380 1 11.2036 16.6422 6.31429 0.384286
2136 1 12.3432 16.6748 4.45658 0.322996
79 2 15.2346 19.2004 5.90308 0.36622
80 1 14.9668 18.4819 5.26512 0.44234
81 1 14.3594 19.6618 6.07333 0.414922
1342 2 14.0741 17.1942 4.32623 0.400195
118 2 18.8493 18.7745 4.14365 0.315434
119 1 19.7302 18.3078 4.19238 0.474036
120 1 18.9757 19.6358 3.67963 0.351815
805 2 18.3161 19.2792 6.76669 0.482749
807 1 18.4451 19.3178 5.77874 0.274033
1622 1 17.9772 17.4237 6.66847 0.325054
594 1 22.8416 19.2575 5.01369 0.396652
628 2 23.6978 16.792 3.7234 0.362561
1108 2 20.9772 17.1969 4.49891 0.285434
1110 1 21.9207 17.0843 4.23127 0.303035
1117 2 22.9639 18.3651 6.52497 0.42885
1119 1 22.7484 17.4135 6.39542 0.317148
138 1 26.2588 19.5286 5.10776 22.3559
619 2 25.7295 17.6782 5.39931 0.383798
620 1 25.635 17.0751 6.18393 0.31975
621 1 26.5274 17.35 4.89713 0.362013
629 1 24.3586 17.076 4.41694 0.308329
658 2 27.9172 17.1845 3.85554 0.372886
665 1 29.7282 17.6472 3.90923 0.31755
673 2 29.4778 18.7144 6.87155 0.360191
674 1 29.4428 19.3364 6.09535 0.393296
675 1 29.278 17.7895 6.57533 0.372246
655 2 32.4972 18.1679 5.7307 0.427465
656 1 31.739 18.0653 5.08124 0.350044
657 1 33.2737 17.8319 5.20214 0.333061
664 2 30.6986 17.7001 3.72708 0.539558
694 2 34.4996 17.4548 3.95608 0.582425
695 1 35.472 17.4232 4.1371 0.437226
691 2 39.3926 17.8405 5.61084 0.383444
692 1 40.2241 17.5719 5.13692 0.353404
693 1 39.4376 18.8358 5.56408 0.501111
700 2 37.338 17.3793 3.74451 0.458302