../../full/iii/5000_bar/2-coex/275/water.dat (written by ASE) 

2268 	 atoms 
2  atom types
0.0               47.450699  xlo xhi
0.0      19.800834170672527  ylo yhi
0.0      20.633272004255719  zlo zhi


Atoms 

     1   2      11.524269007985479      6.5737415101875314      2.7360773538649812
     2   1      12.380290654410382      6.5214482891537964      3.2221017619567669
     3   1      10.927479199019652      7.2342675625560631      3.1787542204799455
     4   2       4.524683203091123      16.966380106213641      11.939402066704305
     5   1      4.8025168583983655         16.069025181733      12.252024195619498
     6   1      5.3777475320174259      17.486868908023904      11.971010176799563
     7   2      1.4271087284769084     0.46109206327636332      5.7526082340380551
     8   1       0.440800876137806      0.4427310409523359      5.5559164824600185
     9   1      1.7046842972685401      19.687519248952349      6.1311818391731912
    10   2      3.3384788416030675     0.98241162883097388      20.187095001480671
    11   1      3.0163409062114948       1.655711611970013    -0.15174061244353507
    12   1      2.6563317680218668      1.0082241598094202      19.468513802157979
    13   2      21.203054476672147      13.979362815633733      11.805662516160307
    14   1      20.285727093886976      13.740823670322669      12.093842941811282
    15   1      21.186060187936416      14.376195974075369      10.899972375147307
    16   2      7.0463259089462582      10.863784353588958      4.1266664253795797
    17   1      6.9500780278851835      9.9393952818094089      3.7895614953584951
    18   1       6.460086600280567      10.892055678745699      4.9334680859743845
    19   2     0.29766277840461502      6.1948473563626818      2.0213925408404338
    20   1     0.40871515775197825      7.1686284111621905      2.1933231646292719
    21   1      46.840820380517236      6.1011873094909319      1.6569481044430694
    22   2      1.3100062946167503      18.230889007507418      18.726359984552555
    23   1      1.6744255974717213      18.298721872627777      19.649989049941627
    24   1      1.8726929754713055      17.578110721666551      18.237929153949377
    25   2      5.7099961438798736      16.138615107269029      18.727793386794769
    26   1      6.2534320979233771      15.531307946383736      18.150849269212813
    27   1      5.4763159291451151      15.634787744166136      19.553426933457978
    28   2      1.5191281958196605      7.3734045989128019      18.487747559788488
    29   1      2.1261412688585524      7.4912592130429969      17.719871709786855
    30   1      1.5611409892103512      6.4105863807242587      18.659314912193491
    31   2      8.4893661487345735      6.6937051747585858    0.067200319695537955
    32   1       9.483880600614059      6.5451538037309289     0.16307177636576306
    33   1      8.3387731008655148      6.4303085316151707      20.127014626834914
    34   2       5.695852531022366      8.7952841141241898      19.185242198983293
    35   1      4.7967517879707673      9.0974050952321424      18.898703491061156
    36   1      5.6677583489918977       7.812891073771751      19.032497641942445
    37   2      18.534645591118771       11.11355364229961      3.1942910471735972
    38   1      18.062418201067242       11.38086840019294      2.3528896702587638
    39   1      18.011695975041942      11.425292814067635      3.9914787446740285
    40   2      2.1195536549062512      14.169713570767218      19.090631935017431
    41   1       1.147732024349416      14.211677044972546      18.943986078257371
    42   1      2.4473452458039699      15.027938558025216      18.708194537773483
    43   2      3.3825178048147855      13.039943118721361      12.368285558075243
    44   1      2.4663298295761682       13.28421796517047      12.084548854786989
    45   1       3.327673190739699      12.132167315149731      12.712839073615989
    46   2      1.7456282037877489      9.0603312567011702      7.0211720140793634
    47   1      2.4001819588204776      8.7111091089066246      7.6873646491957146
    48   1      1.6684879612443122        8.39152396650538      6.2830562220077582
    49   2      6.8459611402738956      18.328679406473547      12.259569571452952
    50   1      7.5674937274306959      18.469311280815941      11.593147881595801
    51   1      7.3068120351867938      18.208166797283194       13.14694262591672
    52   2      7.4249932573970439      5.7373557325718707        9.99853419388179
    53   1      7.1300522088077622      4.9788554868505912      9.4287538071372499
    54   1      6.5818960472751051      6.1968659889703819      10.239870656981862
    55   2      15.796959026418525      13.060131385971914      15.355197190519695
    56   1      14.996027216713085      12.462478062843639      15.391627635738656
    57   1      15.428499288855138      13.958278475363093      15.255177451888201
    58   2      22.950493999597406      12.124827891408787      12.960194861948283
    59   1      23.302412002168264      11.772473510076438      12.114627538785982
    60   1      22.268264649900853      12.786423919187838       12.66720718131667
    61   2      8.8185607490688511      18.566349248522489      6.4811092871318774
    62   1      8.3082550696010777      18.756845133534998      5.6697893739512804
    63   1      8.1483323408288673      18.139902070498731      7.0924088279439266
    64   2      18.534680440529378       13.24544745716107      9.4385803855192343
    65   1      18.759378057310382      12.561880755392675      10.120317196830271
    66   1      19.198263639619093      13.173117610606905      8.7083002367367168
    67   2       14.16653705928835       13.31131538879109      18.665383230549878
    68   1      13.837618522911562      12.423459051760227      18.340698711477977
    69   1      13.325075494495284      13.818281529104292      18.841712738136977
    70   2       20.50823570811027      7.9441909980083416      2.2509298739576926
    71   1      20.863974250166507       8.451663488663792      3.0284809373112744
    72   1      19.595795214915913      8.2802232822895547      2.1433928044142441
    73   2      10.180709930594372      4.2478093365031562      13.690446873087083
    74   1      10.637622108414575       3.683905644730618      14.372846827653177
    75   1      9.8219919922459233      3.6670651837646466      12.967921652119605
    76   2      8.6141122744441656      19.569996913436157      2.9299833193592306
    77   1      9.5646739819286797      19.661506538988036      3.1954311855551887
    78   1       8.561535293912744      19.703910176192753      1.9417795017052941
    79   2      15.234570396296666      19.200399964368245      5.9030781244786903
    80   1      14.966789253450571      18.481924346834244      5.2651218166036635
    81   1      14.359423826997366      19.661767563176689      6.0733290773083484
    82   2      8.4136037872036571      6.9791298844462117      6.0558156557739133
    83   1      8.9203950070000744       6.838032849276896      6.9049318454350059
    84   1      8.1690972447276611      6.0854248752270843      5.6811471267688587
    85   2      22.758878701988746      1.7898402871709338      13.923922284809564
    86   1      22.353519637078918      1.2891215577856143      14.672918457910997
    87   1      22.681015093396095      2.7652893715868334      14.088707024093184
    88   2       22.13818409830483      7.2145348285802564      10.360054645505295
    89   1      23.095578600780847       7.453376372651519      10.279440932508226
    90   1       21.85470971249228      7.6726379159866243      11.199367625801209
    91   2       21.40741609748892      18.025019272187215      10.408780343915728
    92   1      22.367054815944535      17.821217721088921      10.573609984530085
    93   1      20.863628158834405      17.792115106876189      11.219766240757263
    94   2      14.344437930320384      11.478853030920909      4.4065088044473795
    95   1      14.380544529441352      12.234384350457741      3.7652854991406501
    96   1       13.86351499143522      11.814823271370217      5.1991586259228377
    97   2      5.9408779005815813      13.936936089087892      9.4027366766770104
    98   1      5.3439863500972882      13.262112530701803      8.9895670058173156
    99   1      6.7596345004408942      13.995873543216613      8.8358097428365276
   100   2      11.335904424746511      10.130370953556506      4.1183157553019178
   101   1      10.689067400399683      9.3685685366061779      4.1417502096554433
   102   1      11.981500954512576      9.9956898461936579      4.8555471041842457
   103   2      6.6896424510171153      4.5974966519420386      12.715859162259143
   104   1      6.7547014968105943       4.541749567341653      13.699684134470735
   105   1      7.4169441449958953      5.1816126041919919      12.422881984888377
   106   2      5.5998436018146132      1.0756257553620225      6.2763796639513956
   107   1      4.7263795379134823      1.4271884620519666      5.9855636330955679
   108   1      5.7428278191350444      1.1704561334363341      7.2505126194028193
   109   2      23.259926288810753      2.2388760853879637      20.650601048049008
   110   1      23.101678612144376      3.2187856220336974      20.516742133391251
   111   1      24.195610070715027      2.1870367491336489   -0.038993911344515929
   112   2      24.710056166530705     0.98694168064191967      3.0053758762290927
   113   1      24.514722637336238      1.9635868267654639      2.9236561005292092
   114   1      25.490701421975253      0.8856723515978564      3.6226132183040174
   115   2      25.760303835218533      4.1323860986176983      5.3091280844389566
   116   1      25.670603630442329      5.0688235280020706      5.6104672909710187
   117   1      25.657350896321812      3.5091502470791283      6.0717743875634858
   118   2      18.849280737422859      18.774472863103973      4.1436487096604422
   119   1      19.730203944026364       18.30775824264439      4.1923775418191038
   120   1      18.975709614502936      19.635842307628927      3.6796279283867985
   121   2      24.595655154755363      5.6733909889534795      1.2519113365770547
   122   1      24.396186053989794      4.9333777928319025       1.890124921372327
   123   1      24.396317833783002      6.4852210043102536      1.7889445248010041
   124   2      24.159141723154061      3.6591868176897573      3.1367858311549863
   125   1       23.18703706099944        3.72533822733523      3.3508019408334055
   126   1      24.651858875976959       3.879906943234241      3.9796444758482403
   127   2      22.543701897681828      15.726701584159013      13.724959419340989
   128   1      22.103693927333207      15.225680036868258      12.993792890412696
   129   1      21.899523349094743      15.614629802125956      14.481906475645419
   130   2      19.351239119105081      10.289314304005181      19.618527788230551
   131   1      20.133767717938532      10.747525205802585      19.234207154422247
   132   1      18.636991672035691      10.270804941981796      18.921876627329119
   133   2      14.994374168391374      18.002407852460856      1.8914885714528713
   134   1      15.040203762489217      18.996115632111451      1.9402875150233343
   135   1      15.010267038365512      17.657777775751576     0.96583375702610352
   136   2       26.52817470557401     0.34009551160560386      4.8982561041039041
   137   1      26.214171360299702      0.8691739254409504      5.6961611935595871
   138   1      26.258767497380422      19.528629398562899      5.1077602601385772
   139   2      12.978512649203088      15.319391084788835      1.0233286692194845
   140   1      12.372263058269919      14.546933356382139      1.2030596559663849
   141   1      12.501554353067045      16.119418650963343      1.3791932021429325
   142   2      26.018297254006281      2.3318779845838145     0.18736362021473957
   143   1      26.271582481351849      3.2484448189867439      20.908197123149471
   144   1      26.605414339372285      2.0443458087342643     0.93490693882401188
   145   2      29.637382420797088      2.2747554947983795      20.843424160956182
   146   1      29.355510380306015      1.6954799942247167      20.076209916884761
   147   1      29.424895428308581      3.2183860492186289      20.637399590840296
   148   2      31.324091647581184      1.3734871187569402       3.252061423475876
   149   1      31.235165257094469      2.3375637911694187      3.0344185660370262
   150   1      31.362409867266663       0.804576222220171      2.4397051927308273
   151   2      32.582687155600553      4.5950564944768031      5.5893272788178976
   152   1      32.497106951537155      3.9826362256536187      6.3635183658867929
   153   1      32.548609818713324      5.5280333126253218      5.8978415140256883
   154   2      28.148560059929583      3.9063204652493746      3.6323561699093667
   155   1      27.516599103329586      3.9599804724070697      4.3874106429067208
   156   1      27.775860501081663      4.5549406877508298      2.9713331771293561
   157   2      31.465610500993325      6.1727760192219066      1.4873198926061333
   158   1      32.452430231901324      6.2695896578441657      1.4040689693923283
   159   1      31.343662738526277      5.4114174616432535      2.1234677222793259
   160   2      30.944480767007697      4.1910392142384127      3.3113777378551381
   161   1      31.449505611519118      4.4081300142678801       4.138654222844381
   162   1      29.986424664811857      4.1291040835071353      3.5628950820567837
   163   2       27.35442876579857      5.6701709603514763      1.6592682294026757
   164   1      26.394570665865189      5.5429932986094386      1.4127018746371089
   165   1      27.411926792702179      6.6344836692491223      1.9049485856749024
   166   2      29.298570938404048     0.60147279269983078      4.9957585319902966
   167   1      28.363767519932949     0.57163085601870245      4.6696961617170691
   168   1      29.941581265886452     0.82947011222762046      4.2682271990328662
   169   2      29.169161861840866      5.1507291463015914      6.7943677528285624
   170   1      29.995837084366695      5.2869352587433474      7.3320851674523979
   171   1      29.082841761686083      4.1619302617617224      6.7364468894186222
   172   2       33.07166404909816     0.78921625520664151      5.3415354294981405
   173   1      32.884251050247784      19.939602438150029      5.5041340827320768
   174   1      32.552922171631607       1.015945298314485        4.51560799576544
   175   2      28.012888999621161      1.6025051133390411      2.0486321887947003
   176   1      28.693101091210838      1.8211104882939508      1.3582931009564436
   177   1      28.044235829086706      2.3464905001092324      2.7101723491462386
   178   2      32.405411525459222      2.4255883664507327     0.14349622421649247
   179   1      31.411874016444081      2.3206071321995356     0.13271900143917742
   180   1       32.68665069003179      1.8584542384763671      20.380056249042259
   181   2      36.209339620700746      2.3295088030609681      20.872122824640343
   182   1      35.630899040245147      2.0940188630396661     0.63662410556692839
   183   1      37.133890687175509      2.1836105362931058     0.20234263286950166
   184   2      37.758665185925523      1.2689776008796303      3.4782911242625594
   185   1      36.986251035480116      1.0975954839782256      4.0859315837220382
   186   1      37.723500109820996     0.60191884999342704      2.7430459281837982
   187   2      39.198727374773625      4.4134068818523025      5.7337862148937724
   188   1      38.496219716422083      4.2557450005886173      5.0420042849409104
   189   1      39.141949673487318      3.6273189866161517      6.3451405872191655
   190   2        34.6024637932357      4.1499270790409533      3.6705435424641144
   191   1      35.566430040650765      4.1825085924059673      3.8981603782959047
   192   1      34.056951857909418      4.2863905819387584      4.4870081791754721
   193   2      37.900605205037863      6.0834670656058325      1.7208151454660168
   194   1      37.740153341763595      6.8507826501996893      2.3308933186121048
   195   1      38.880776689503449      6.1110678138694121      1.5719153003158948
   196   2      37.410401515434806      4.0282707610496953       3.663289449472698
   197   1       37.61142140224257      3.0999510045425724      3.3693041127970069
   198   1      37.639500953276055      4.6591721692658874      2.9311624934803815
   199   2      34.226591574268831      6.2455979776784822      1.7667603242223584
   200   1      34.806323649721818      5.8900253254279216      1.0409156695198429
   201   1      34.333389281933727      5.5998146951755201      2.5140801675102784
   202   2      35.803840603963998     0.93193269974489201      5.4371536904535676
   203   1      36.066558695261001     0.15988431910359449      6.0124184315605156
   204   1      34.812385963220805     0.86393428818435991      5.3112637286230386
   205   2      35.717425271096978      5.4878551690432005      6.7840718014705175
   206   1       36.50789087875377      5.7812511243474409       7.312382094331392
   207   1      35.546765575019798      6.1910619512297993      6.0987099214571385
   208   2      39.787105679739348     0.41728762752053372      5.1981689741808417
   209   1      39.263151039409777     0.69276425067205549      4.4019152551461964
   210   1      39.435789792293299     0.98544478600058161      5.9384838235888004
   211   2      34.390818240555504      1.7751590674583315      2.0381337480316315
   212   1      34.502290081540579      2.4613833219430377      2.7440663829684464
   213   1      33.582576295027124      2.0489642805386072      1.5323217389138493
   214   2      38.958077905955911      2.1447209462291452     0.35850973910582851
   215   1      39.317232002121656      2.9759336104450194   -0.052798659161861342
   216   1      39.476788875978528      1.9981459187848984      1.1934036347908938
   217   2         42.785899841448      2.7112308340271953     0.35010242560273624
   218   1      43.736179705155571      2.6362102970677492     0.63031546080899914
   219   1      42.708037362228026      3.6594058366321667    0.068343804776764258
   220   2      44.378171702850302      1.1361276918430334       3.658046230367114
   221   1       44.41231126934025     0.57329281820113176      2.8438726734492934
   222   1      45.151806694162005     0.85961496467309362      4.2271621494791294
   223   2      45.933520429746913      4.5625209078889659       5.891403797373159
   224   1      46.720282308725714      4.4503391183408443      5.2784031183736051
   225   1      45.912626285683054      5.5319448640538287      6.0775306978388528
   226   2      41.183433055933612       4.254692547373681      3.8230398903834972
   227   1      40.586156207431692      4.3237923138500474       4.618947538652673
   228   1       42.13262873089468      4.2808886295121624      4.1064833182455551
   229   2      44.827354212694942      5.7598180126825982      1.8580725218453762
   230   1      44.542708686274743      5.0979740074349555      2.5418450010743618
   231   1      44.233163880931897       5.641018339458304      1.0744062995519759
   232   2      43.960989866001064        3.97633313350698       3.957820711778647
   233   1      44.564632863149946      4.2120118939411615      4.7129654652252952
   234   1      44.129708441925601      3.0165789614018332      3.7704179289358737
   235   2      40.732750006096779      6.0432000915109381       1.628457129736723
   236   1      40.925478528062115      5.4142902195607094      2.3709997978038682
   237   1      40.898507152267534      6.9481490889685693      2.0120193775745787
   238   2      42.498552805819493     0.11801461863209896      5.4174828681453482
   239   1       41.56550075288478     0.28186947127840889      5.1207508988652144
   240   1      43.114192244412386     0.42449497721620433      4.6975328655018869
   241   2      42.725030721069452      5.0953624566387985      7.0955992884994403
   242   1      43.500360141552136      5.2938939375057199      7.6871537352969126
   243   1      42.719765694407734      4.1172950664856192      6.9440985408308187
   244   2      46.204252573969285      0.4502485655603401      5.5914836363035674
   245   1      45.980437481437001      1.0917944817606828      6.3246320003529144
   246   1      45.961875157687864        19.6531541928798      5.9096421282732674
   247   2      40.953448948763004      1.9491313304524454      2.3001317017331617
   248   1      40.950431531399339      2.6401657544352681      3.0151717657025312
   249   1      41.638246014882206      2.2780108788767084      1.6544906812938589
   250   2      45.543555871033867      2.7188256203150809     0.74432871786686805
   251   1      45.756197266251874       3.660035734606979     0.55531256008439789
   252   1      45.829685293952373      2.2444619597634063   -0.087219927171094891
   253   2      13.101174059975223      2.2100333383317645      2.0596394852123083
   254   1      13.897094016786221      1.6123440551612975      1.9916183943062145
   255   1      13.289077410011833      2.8436968344460087      1.3214549246595766
   256   2      17.436710022061352      14.447836752483077       3.015360503242134
   257   1      17.405066391165835      15.375529562038373      2.6571102050439421
   258   1      16.619652054533677      13.991823891070171      2.6939447336353508
   259   2        14.7439261093729      18.458110119384294      14.618245007491481
   260   1      15.233048315690251      17.629472421356294      14.865525679261689
   261   1      14.823167682949736      18.460604264890517      13.629349273599065
   262   2    -0.02576371039915621      15.967637610671892      15.878218965571198
   263   1     0.17642931652622126      15.053530712166397      16.189037550643153
   264   1       46.54847803969394      15.895404738519236      15.414472013147043
   265   2      17.491499595410428       12.85167508221028      17.461262945197291
   266   1      16.846900374595226      13.054212191802677      16.728589615809302
   267   1      17.276971197414422      11.911139265222738      17.713435941200885
   268   2      18.912079169050998      10.867289116574293      10.846535781177227
   269   1      19.784886169264876      10.713348758045219       10.39280273454283
   270   1      18.205354988504585       10.42107818873626      10.303247600493609
   271   2    0.032462166801792813       12.73506652583198      2.0536331530144132
   272   1     0.74694018180787158      12.683567965147944      1.3620609546104583
   273   1    0.078838346344139942      13.687199254838099      2.3399832593232466
   274   2      7.6652813877470791      4.7701868144805601      4.6474607902643141
   275   1      7.7133641588470327      3.8875370056804504      5.0698028324694864
   276   1      8.3478254767293407       4.758642868126076      3.9178652709557831
   277   2      2.1173717101541354      18.672722517790771     0.34122578237119788
   278   1      2.6554624303802212      19.482698807439146     0.17964027269051927
   279   1      1.3733718427657216      18.955214711045954     0.94971185581629292
   280   2      2.3329229546094741      12.652373901239544     0.58948363614782862
   281   1      2.5396356412505514      11.724973254672053     0.30842151285324804
   282   1      2.3814611039091385      13.196130865868311       20.77629355653551
   283   2      5.9069956861628032      19.492780329171108      17.579513923616307
   284   1      5.5284877833226966      18.720261451723655      17.093627562535438
   285   1      6.7998502434990629      19.146685863854259      17.854012051030281
   286   2      8.5545208767024903      2.7263031550269923      6.7734094119948836
   287   1      9.4086137363718088      3.2066603570651178      6.7599149029835104
   288   1      8.7570260718442992      1.8401354630603417       7.138245476842183
   289   2      6.5515494496586184       2.840015495482004      1.8360826786048379
   290   1      6.8469412596138408      2.4848239241072902      2.7211446290980588
   291   1      7.3240669002455441      2.6668988979859876      1.2482468440811079
   292   2      22.798459728296368      18.721708291115565      20.758455562119845
   293   1      22.704544850150207      19.226433488920868      19.912000004039655
   294   1      22.198893693119242       19.13826580880529     0.43350384798209129
   295   2      16.518005770458103      12.186841391074282      7.9155056300156392
   296   1       17.24460182588712      12.447595384277438      8.5489597268101978
   297   1      15.932147615267398      12.969690281243009      7.9574536133099363
   298   2      19.153056594039281      2.2357878595634628      20.314662896940355
   299   1      18.705440970179282      3.0883358769595599      20.074694753213262
   300   1      18.456947909856698      1.6850046824388283    -0.24438808322819164
   301   2      4.0871452309907825      16.009232446949508      9.3995226625976667
   302   1        4.77927155566781      15.309344904618193      9.2519255055242287
   303   1      4.2263476070825847      16.290322965988018      10.346405866834491
   304   2      7.5340284889144273      14.750675860863534       17.22606733719152
   305   1      7.5142762151139886      13.772516399849929      17.054467465204031
   306   1      7.9289998369450378      15.155657185314023      16.416345723827668
   307   2      10.862157801991248      12.544267039552826      13.057059214644804
   308   1      11.563013489765188      13.245935910748257      13.130930799958383
   309   1      11.401398869712873      11.727497839930997      12.874631234165893
   310   2       18.75446597267727      6.3780923315047877      14.038954058033664
   311   1      18.705268321607981      7.2342646553036278       13.53401607502982
   312   1      19.598633879485398      6.4197781360076016      14.558318789837715
   313   2     0.16156274116432673      5.9900923253128067      8.6794054960105562
   314   1     0.21329742937158039      6.9708847827860625      8.8054087747542624
   315   1     0.40295349181955847      5.6005252908218166      9.5682654335866335
   316   2      10.516591553623021      4.0503118994091309      9.2311018419155531
   317   1      11.416670131208669      4.2175144712598165      9.6299402466291166
   318   1      9.9809666594650022      3.6404933704530227      9.9613502923151902
   319   2      8.9949951665545917      11.554027220919844      8.0142115783012446
   320   1      9.0747675294715684      11.446958900284217      7.0130093237470232
   321   1      8.2289694499006494      11.022801016921496      8.3281745274975805
   322   2      3.1427854376152484      16.916331541447565      3.8261340934847707
   323   1      3.7998456348657754      17.627202251652562      3.5978533705759146
   324   1      2.2768259136923326       17.35652006958593      4.0128494619638531
   325   2      19.030210037720618      7.0373406930891367      4.8489671933613909
   326   1      18.719365543176821      6.0876796966909463      4.7908333404640011
   327   1      20.015881843240596      6.9923177323490968      4.8047086286963632
   328   2       1.041699422573795     0.76611093962900378      11.592692218304643
   329   1     0.79747224987969501      1.4713736781107876      10.955181908579243
   330   1      1.9120802334239611     0.41275514971609251      11.260257106598397
   331   2      9.3163267543893706      13.161584182097725       10.79970224737848
   332   1       9.868035880330126       13.05691106936799      11.617059692874014
   333   1      8.9866337529308229      12.242329776800778      10.684337861461195
   334   2      1.4627796368942434      4.5756450216074454      19.881285763302479
   335   1      1.6527100243464097      4.2941387859396931      18.947707078222788
   336   1     0.47043397561766576       4.684522644061814      19.922171440350006
   337   2      17.640163111040497      2.4379220699469375       12.54028419286211
   338   1      17.211566924374612      2.2161863257258951       13.41063024026221
   339   1      18.016263512391745      1.5655520483392396      12.225872934607668
   340   2      23.031448063722074      4.5450455759703265      14.127133561513109
   341   1      23.927441982957014      4.7859684049336266      14.463003646747641
   342   1      22.995206429427441      4.6966016486251609      13.142611097852257
   343   2      6.9226754959974706      8.3389739720501286      2.9002701743127681
   344   1      6.4708519352797378      8.7194127673436572      2.1056208012700659
   345   1      6.6665412464725744      7.3871006731871711      2.8919631990676229
   346   2      9.1538630723944436      9.4839356807784547      20.500031836611811
   347   1      8.6988782611633226      8.6414759335636635      20.726813345007436
   348   1      9.9262578277746911      9.5514114488808204      21.100395841441852
   349   2      13.658457724758458      1.8434596023200616      13.630748537999722
   350   1       13.36978026573642     0.96890209223243906      13.243208191519868
   351   1      14.508836761819088      1.7162722231223999      14.135097649405818
   352   2      22.950656376860884        9.03794150344239      6.5980400615843244
   353   1      23.850057610782034      8.8486465610351175      6.9566982730914244
   354   1      22.266318944095588      8.5748869852117995      7.1545836266205267
   355   2      4.2487390400776741      9.8015289124610998      15.279413290188714
   356   1      4.4810362443739704      9.4603170219089474      14.371546516851886
   357   1       3.352088927212542      10.242420623387293      15.221630265384286
   358   2       18.39170521161617      8.5556771929859199      12.414556699047365