LAMMPS (27 Jun 2024)
KOKKOS mode with Kokkos version 4.3.1 is enabled (src/KOKKOS/kokkos.cpp:72)
  will use up to 1 GPU(s) per node
WARNING: When using a single thread, the Kokkos Serial backend (i.e. Makefile.kokkos_mpi_only) gives better performance than the OpenMP backend (src/KOKKOS/kokkos.cpp:202)
  using 1 OpenMP thread(s) per MPI task
Reading data file ...
  triclinic box = (0 0 0) to (23.34 21.468634 16.394175) with tilt (-9.157148 -9.15715 7.607424)
WARNING: Triclinic box skew is large. LAMMPS will run inefficiently. (src/domain.cpp:221)
  1 by 1 by 1 MPI processor grid
  reading atoms ...
  972 atoms
  read_data CPU = 0.008 seconds
ACE/AL version: 2023.11.25
Loading /pc2/users/a/acepdw01/work/phase_diagram/pot_dir/interim_potential_ladder_step_1.yaml
Total number of basis functions
	H: 23 (r=1) 664 (r>1)
	O: 23 (r=1) 664 (r>1)
Mapping LAMMPS atom type #1(H) -> ACE species type #0
Mapping LAMMPS atom type #2(O) -> ACE species type #1
Loading ASI /pc2/users/a/acepdw01/work/phase_diagram/pot_dir/interim_potential_ladder_step_1.asi
LINEAR ASI is loaded

CITE-CITE-CITE-CITE-CITE-CITE-CITE-CITE-CITE-CITE-CITE-CITE-CITE

Your simulation uses code contributions which should be cited:
- Type Label Framework: https://doi.org/10.1021/acs.jpcb.3c08419
The log file lists these citations in BibTeX format.

CITE-CITE-CITE-CITE-CITE-CITE-CITE-CITE-CITE-CITE-CITE-CITE-CITE

Switching to 'neigh_modify every 1 delay 0 check yes' setting during minimization
Neighbor list info ...
  update: every = 1 steps, delay = 0 steps, check = yes
  max neighbors/atom: 2000, page size: 100000
  master list distance cutoff = 6.5
  ghost atom cutoff = 6.5
  binsize = 6.5, bins = 7 5 3
  1 neighbor lists, perpetual/occasional/extra = 1 0 0
  (1) pair pace/extrapolation/kk, perpetual
      attributes: full, newton on, kokkos_device
      pair build: full/bin/kk/device
      stencil: full/bin/3d
      bin: kk/device
Setting up cg/kk style minimization ...
  Unit style    : metal
  Current step  : 0
WARNING: Fix with atom-based arrays not compatible with sending data in Kokkos communication, switching to classic exchange/border communication (src/KOKKOS/comm_kokkos.cpp:754)
WARNING: Fix with atom-based arrays not compatible with Kokkos sorting on device, switching to classic host sorting (src/KOKKOS/atom_kokkos.cpp:216)
Per MPI rank memory allocation (min/avg/max) = 777.8 | 777.8 | 777.8 Mbytes
   Step         TotEng         PotEng         KinEng         Press           Temp          Volume        Density     c_max_pace_gamma
         0  -4629.8845     -4629.8845      0              19281.688      0              8214.7591      1.1798944      7.700355     
       100  -4698.3625     -4698.3625      0             -7998.3441      0              8214.7591      1.1798944      7.700355     
       200  -4698.384      -4698.384       0             -8095.8802      0              8214.7591      1.1798944      7.700355     
       211  -4698.384      -4698.384       0             -8095.9653      0              8214.7591      1.1798944      7.700355     
Loop time of 1.12504 on 1 procs for 211 steps with 972 atoms

99.6% CPU use with 1 MPI tasks x 1 OpenMP threads

Minimization stats:
  Stopping criterion = force tolerance
  Energy initial, next-to-last, final = 
     -4629.88450587203  -4698.38398317786  -4698.38398318376
  Force two-norm initial, final = 81.896981 0.00036013332
  Force max component initial, final = 12.801874 1.9928814e-05
  Final line search alpha, max atom move = 1 1.9928814e-05
  Iterations, force evaluations = 211 419

MPI task timing breakdown:
Section |  min time  |  avg time  |  max time  |%varavg| %total
---------------------------------------------------------------
Pair    | 0.96594    | 0.96594    | 0.96594    |   0.0 | 85.86
Neigh   | 0.0024449  | 0.0024449  | 0.0024449  |   0.0 |  0.22
Comm    | 0.012204   | 0.012204   | 0.012204   |   0.0 |  1.08
Output  | 0.00024771 | 0.00024771 | 0.00024771 |   0.0 |  0.02
Modify  | 0.090242   | 0.090242   | 0.090242   |   0.0 |  8.02
Other   |            | 0.05396    |            |       |  4.80

Nlocal:            972 ave         972 max         972 min
Histogram: 1 0 0 0 0 0 0 0 0 0
Nghost:           3683 ave        3683 max        3683 min
Histogram: 1 0 0 0 0 0 0 0 0 0
Neighs:              0 ave           0 max           0 min
Histogram: 1 0 0 0 0 0 0 0 0 0
FullNghs:       131994 ave      131994 max      131994 min
Histogram: 1 0 0 0 0 0 0 0 0 0

Total # of neighbors = 131994
Ave neighs/atom = 135.7963
Neighbor list builds = 6
Dangerous builds = 0
Setting up Verlet run ...
  Unit style    : metal
  Current step  : 211
  Time step     : 0.0005
WARNING: Fix with atom-based arrays not compatible with Kokkos sorting on device, switching to classic host sorting (src/KOKKOS/atom_kokkos.cpp:216)
Per MPI rank memory allocation (min/avg/max) = 779.6 | 779.6 | 779.6 Mbytes
   Step         TotEng         PotEng         KinEng         Press           Temp          Volume        Density     c_max_pace_gamma
       211  -4665.751      -4698.384       32.633016     -3852.8827      260            8214.7591      1.1798944      7.700355     
       300  -4659.3373     -4675.0033      15.665934     -6652.463       124.81662      8165.2969      1.1870418      7.700355     
       400  -4653.1453     -4674.7251      21.579755     -299.63542      171.93435      8037.4168      1.2059283      7.700355     
       500  -4648.0766     -4673.5304      25.453841      3724.4583      202.80071      7886.7714      1.2289628      7.700355     
       600  -4644.8862     -4672.7065      27.820341      7291.3899      221.65553      7772.7613      1.2469891      7.700355     
       700  -4643.1559     -4670.6499      27.49394       9434.8448      219.05497      7722.0374      1.2551802      7.700355     
       800  -4640.7383     -4669.733       28.994698      9929.0234      231.0121       7733.9817      1.2532417      7.700355     
       900  -4640.2324     -4669.706       29.47365       6922.9311      234.82809      7795.5101      1.2433501      7.700355     
      1000  -4639.8494     -4669.2239      29.374578      7395.9947      234.03875      7881.2367      1.2298258      0.66064818   
      1100  -4639.1151     -4669.0954      29.980296      3774.6299      238.86474      7964.2064      1.2170137      0.66064818   
      1200  -4637.8442     -4668.3547      30.510488      778.30718      243.08899      8025.5728      1.207708       0.66064818   
      1300  -4637.4918     -4665.4438      27.952032      5340.1156      222.70477      8056.5453      1.2030651      0.66064818   
      1400  -4636.3227     -4667.5177      31.194953      5360.0604      248.54239      8059.9009      1.2025642      0.66064818   
      1500  -4633.996      -4666.1222      32.126169      4098.118       255.96175      8040.9391      1.2054         0.66064818   
      1600  -4634.8929     -4666.4128      31.519926      5051.9887      251.13157      8012.6402      1.2096573      0.66064818   
      1700  -4634.2042     -4665.675       31.470816      3475.2043      250.74029      7981.6415      1.2143553      0.66064818   
      1800  -4632.7748     -4665.2996      32.524797      3716.159       259.13777      7958.3041      1.2179163      0.66064818   
      1900  -4632.7264     -4665.7766      33.050143      4419.9885      263.32342      7945.2117      1.2199232      0.66064818   
      2000  -4633.0828     -4665.6405      32.557769      7415.177       259.40048      7941.5672      1.2204831      0.65993731   
      2100  -4632.9429     -4664.8399      31.896996      6290.3392      254.13584      7948.3951      1.2194347      0.65993731   
      2200  -4632.5001     -4665.1941      32.693936      5011.7489      260.48537      7965.2888      1.2168483      0.65993731   
      2300  -4632.6586     -4665.6844      33.025865      3943.6191      263.12998      7987.7106      1.2134326      0.65993731   
      2400  -4633.1044     -4665.5453      32.440878      3522.9548      258.46916      8007.5409      1.2104276      0.65993731   
      2500  -4632.8199     -4665.5241      32.704154      5303.5278      260.56679      8019.5537      1.2086144      0.65993731   
      2600  -4632.2156     -4665.002       32.786436      3922.0371      261.22236      8021.9073      1.2082598      0.65993731   
      2700  -4631.9546     -4664.9538      32.999123      2915.7403      262.91692      8016.8413      1.2090234      0.65993731   
      2800  -4633.0642     -4665.28        32.215815      2712.5279      256.676        8005.9842      1.2106629      0.65993731   
      2900  -4633.7689     -4665.1741      31.405163      4276.8538      250.21721      7990.8478      1.2129562      0.65993731   
      3000  -4633.7849     -4667.2764      33.4915        8744.9138      266.83988      7974.1178      1.215501       0.6551029    
      3100  -4633.7828     -4665.6595      31.876664      8831.3604      253.97385      7958.7145      1.2178535      0.6551029    
      3200  -4633.8736     -4666.9845      33.110853      6448.1463      263.80711      7950.2863      1.2191446      0.6551029    
      3300  -4632.7055     -4664.4812      31.775628      1900.1087      253.16885      7946.9275      1.2196599      0.6551029    
      3400  -4632.7505     -4665.9452      33.194707      7274.1663      264.47521      7952.7082      1.2187733      0.6551029    
      3500  -4633.7102     -4665.6339      31.92373       6155.2337      254.34884      7969.0228      1.2162782      0.6551029    
      3600  -4634.4947     -4665.8048      31.310103      3177.777       249.45983      7991.9366      1.212791       0.6551029    
      3700  -4635.6333     -4665.8938      30.260514      3415.5062      241.09735      8015.5308      1.209221       0.6551029    
      3800  -4635.7714     -4666.5704      30.798996      4172.638       245.38764      8031.1535      1.2068688      0.6551029    
      3900  -4635.4584     -4666.6959      31.237562      943.49382      248.88187      8030.8265      1.2069179      0.6551029    
      4000  -4634.6748     -4666.5559      31.881158      4414.3196      254.00965      8015.2138      1.2092689      0.64143964   
      4100  -4634.5832     -4666.5384      31.955225      5035.6881      254.59977      7992.2374      1.2127453      0.64143964   
      4200  -4633.4158     -4665.815       32.3992        7023.1125      258.13709      7965.3591      1.2168376      0.64143964   
      4300  -4633.0402     -4665.5534      32.513216      7187.0218      259.04551      7945.187       1.219927       0.64143964   
      4400  -4633.5646     -4665.8812      32.316667      8661.1484      257.47953      7936.7856      1.2212184      0.64143964   
      4500  -4634.4048     -4666.4212      32.016324      4781.1788      255.08657      7943.7488      1.2201479      0.64143964   
      4600  -4634.7856     -4666.9896      32.204033      962.57575      256.58212      7961.7593      1.2173878      0.64143964   
      4700  -4634.6719     -4666.2479      31.575999      2509.5948      251.57833      7984.1066      1.2139803      0.64143964   
      4800  -4635.4686     -4667.2681      31.799534      5524.6786      253.35932      8003.8983      1.2109785      0.64143964   
      4900  -4633.2238     -4665.3559      32.132052      7295.0253      256.00862      8015.3567      1.2092473      0.64143964   
      5000  -4633.8694     -4665.5735      31.704175      4084.2283      252.59956      8018.2748      1.2088072      0.70263499   
      5100  -4633.3428     -4666.6272      33.28435       6572.4636      265.18943      8008.6497      1.21026        0.70263499   
      5200  -4633.4149     -4665.8698      32.454947      6664.0459      258.58125      7991.9879      1.2127832      0.70263499   
      5300  -4633.5138     -4666.088       32.57418       3842.9128      259.53123      7967.7658      1.21647        0.70263499   
      5400  -4632.7375     -4665.2258      32.488314      8676.4784      258.8471       7941.1315      1.22055        0.70263499   
      5500  -4631.6698     -4664.7111      33.041317      7936.2801      263.25309      7923.9473      1.223197       0.70263499   
      5600  -4631.599      -4665.1553      33.556271      5668.1299      267.35594      7922.0096      1.2234962      0.70263499   
      5700  -4633.407      -4665.6407      32.233747      4912.1855      256.81887      7937.6062      1.2210921      0.70263499   
      5800  -4633.1973     -4665.7417      32.544432      3106.0224      259.29421      7962.7717      1.217233       0.70263499   
      5900  -4633.7355     -4665.8381      32.102641      4292.9076      255.7743       7988.3877      1.2133297      0.70263499   
      6000  -4634.5753     -4667.2587      32.683357      1854.2796      260.40108      8008.0886      1.2103448      0.64497672   
      6100  -4634.1011     -4666.4771      32.375998      47.933174      257.95223      8016.3455      1.2090981      0.64497672   
      6200  -4633.2237     -4665.0581      31.834373      2183.6683      253.6369       8013.765       1.2094875      0.64497672   
      6300  -4632.4181     -4665.3194      32.901356      5002.2755      262.13797      8002.5357      1.2111847      0.64497672   
      6400  -4631.5736     -4664.1722      32.598613      6484.8144      259.72589      7987.5615      1.2134552      0.64497672   
      6500  -4631.9684     -4664.5874      32.619001      4324.6816      259.88834      7975.7562      1.2152513      0.64497672   
      6600  -4632.4631     -4664.6235      32.160423      5478.2202      256.23466      7971.0099      1.215975       0.64497672   
      6700  -4631.9189     -4665.0661      33.147219      5257.0888      264.09685      7972.2867      1.2157802      0.64497672   
      6800  -4631.5551     -4665.1468      33.591721      6191.8596      267.63838      7982.3569      1.2142464      0.64497672   
      6900  -4633.2414     -4666.7356      33.494183      4708.0271      266.86125      7996.0469      1.2121675      0.64497672   
      7000  -4632.8913     -4664.8256      31.934271      3922.3075      254.43283      8006.424       1.2105964      0.64502711   
      7100  -4634.7918     -4666.035       31.243203      6124.1003      248.92681      8008.0555      1.2103498      0.64502711   
      7200  -4634.1954     -4666.557       32.361585      3520.1593      257.8374       7997.2577      1.211984       0.64502711   
      7300  -4634.6704     -4666.046       31.375568      3932.6342      249.98142      7977.3736      1.2150049      0.64502711   
      7400  -4634.5005     -4666.0983      31.59783       4701.621       251.75226      7957.5007      1.2180393      0.64502711   
      7500  -4634.9748     -4666.1534      31.178664      5543.1672      248.41261      7940.7891      1.2206027      0.64502711   
      7600  -4635.4078     -4667.0555      31.647754      4999.9058      252.15003      7929.1457      1.222395       0.64502711   
      7700  -4635.5564     -4667.5636      32.007163      4984.5181      255.01359      7923.5789      1.2232539      0.64502711   
      7800  -4635.5127     -4666.8037      31.290996      2883.693       249.3076       7922.8601      1.2233648      0.64502711   
      7900  -4634.5899     -4666.3888      31.798824      5288.1521      253.35367      7928.659       1.2224701      0.64502711   
      8000  -4633.5102     -4665.5346      32.024344      7170.2278      255.15047      7942.2986      1.2203707      0.65976074   
      8100  -4633.0626     -4665.2204      32.15777       4667.6783      256.21352      7960.878       1.2175225      0.65976074   
      8200  -4633.6884     -4666.6598      32.971424      2711.9019      262.69623      7979.7475      1.2146435      0.65976074   
      8300  -4633.4715     -4664.6748      31.203291      6078.9484      248.60882      7991.5508      1.2128495      0.65976074   
      8400  -4633.9657     -4665.7572      31.79144       4278.9554      253.29483      7997.9139      1.2118846      0.65976074   
      8500  -4635.1791     -4666.4965      31.317353      4994.9405      249.5176       7995.3553      1.2122724      0.65976074   
      8600  -4634.91       -4666.5843      31.674379      3714.2751      252.36217      7983.7626      1.2140326      0.65976074   
      8700  -4634.528      -4666.7317      32.203685      5018.1722      256.57935      7965.9457      1.216748       0.65976074   
      8800  -4635.4304     -4666.805       31.374675      8991.8965      249.9743       7947.4082      1.2195861      0.65976074   
      8900  -4635.1901     -4667.5696      32.379482      8294.8635      257.97999      7933.8004      1.2216779      0.65976074   
      9000  -4635.1184     -4667.2047      32.086265      7951.442       255.64382      7925.1499      1.2230114      0.64457796   
      9100  -4634.4658     -4665.6502      31.184412      2876.7471      248.4584       7925.4131      1.2229708      0.64457796   
      9200  -4634.1398     -4667.3197      33.179845      3783.3779      264.3568       7935.3062      1.2214461      0.64457796   
      9300  -4633.1311     -4665.4035      32.272432      4377.1883      257.12708      7954.7229      1.2184646      0.64457796   
      9400  -4631.8086     -4665.412       33.603404      4697.8469      267.73146      7980.9451      1.2144612      0.64457796   
      9500  -4631.7886     -4665.5057      33.717113      2195.6475      268.63742      8010.805       1.2099344      0.64457796   
      9600  -4633.6202     -4665.2122      31.59203       1645.5552      251.70606      8035.5828      1.2062035      0.64457796   
      9700  -4632.6493     -4665.8457      33.196401      5176.3594      264.48871      8044.8945      1.2048074      0.64457796   
      9800  -4631.7881     -4664.4429      32.654771      2726.7378      260.17333      8035.0805      1.2062789      0.64457796   
      9900  -4631.3917     -4664.667       33.275246      1666.584       265.1169       8015.0222      1.2092978      0.64457796   
     10000  -4632.047      -4664.5573      32.510233      8838.6191      259.02174      7991.8505      1.212804       0.641699     
     10100  -4632.7353     -4666.2207      33.485358      8933.3107      266.79094      7966.7777      1.2166209      0.641699     
     10200  -4632.8424     -4663.8158      30.97336       4920.6873      246.77687      7944.2153      1.2200762      0.641699     
     10300  -4633.1529     -4664.5539      31.400963      5892.7331      250.18375      7932.6781      1.2218507      0.641699     
     10400  -4632.6971     -4665.9042      33.207158      4711.3806      264.57442      7933.0012      1.221801       0.641699     
     10500  -4633.6281     -4666.7298      33.101742      7886.6637      263.73452      7944.6614      1.2200077      0.641699     
     10600  -4633.4811     -4666.402       32.920894      4294.92        262.29363      7966.693       1.2166339      0.641699     
     10700  -4632.7099     -4667.4937      34.783797      5197.5051      277.13611      7993.1046      1.2126137      0.641699     
     10800  -4632.8832     -4663.7672      30.883975      4362.1279      246.0647       8019.724       1.2085888      0.641699     
     10900  -4632.6121     -4665.4944      32.882295      1841.8881      261.9861       8041.057       1.2053824      0.641699     
     11000  -4631.8036     -4665.0416      33.238012      3120.6448      264.82024      8051.517       1.2038164      0.6368425    
     11100  -4632.3033     -4664.4867      32.183346      4793.4387      256.41731      8048.3403      1.2042916      0.6368425    
     11200  -4632.2389     -4665.8075      33.568577      4011.1694      267.45398      8031.1017      1.2068766      0.6368425    
     11300  -4632.6567     -4664.5854      31.928759      4718.9926      254.38891      8005.6019      1.2107208      0.6368425    
     11400  -4632.1765     -4665.3204      33.14387       6098.7194      264.07018      7978.4233      1.2148451      0.6368425    
     11500  -4631.5245     -4665.1062      33.581681      7205.8935      267.55838      7956.4266      1.2182037      0.6368425    
     11600  -4632.6494     -4664.9061      32.256764      8289.4843      257.00225      7943.2905      1.2202183      0.6368425    
     11700  -4631.6077     -4664.5037      32.895942      5516.602       262.09483      7940.5787      1.220635       0.6368425    
     11800  -4630.1855     -4664.7444      34.558927      6480.6702      275.34448      7953.2189      1.218695       0.6368425    
     11900  -4631.4537     -4665.2358      33.782103      5839.029       269.15522      7980.2551      1.2145662      0.6368425    
     12000  -4631.0397     -4664.6305      33.590879      5304.4204      267.63167      8018.0827      1.2088362      0.64236884   
     12100  -4631.7179     -4665.5035      33.785609      5330.7771      269.18316      8052.0489      1.2037369      0.64236884   
     12200  -4630.5122     -4663.9072      33.394985      5803.0421      266.0709       8068.631       1.2012631      0.64236884   
     12300  -4630.4435     -4664.49        34.046444      4046.6233      271.26133      8067.226       1.2014723      0.64236884   
     12400  -4631.6706     -4664.8554      33.184798      4648.4709      264.39626      8046.0498      1.2046344      0.64236884   
     12500  -4631.9299     -4665.4687      33.538813      6566.2673      267.21683      8011.3574      1.209851       0.64236884   
     12600  -4632.7019     -4666.1259      33.424021      5722.5907      266.30224      7975.0528      1.2153585      0.64236884   
     12700  -4633.2352     -4665.5039      32.26862       4002.0818      257.09672      7944.0747      1.2200978      0.64236884   
     12800  -4632.47       -4664.4536      31.98361       7081.8421      254.82593      7922.062       1.2234881      0.64236884   
     12900  -4633.5508     -4665.7088      32.157947      6126.3303      256.21494      7910.125       1.2253344      0.64236884   
     13000  -4632.8319     -4665.7994      32.96744       3786.4613      262.66449      7911.9963      1.2250446      0.64503282   
     13100  -4631.9523     -4665.7197      33.76739       4831.2056      269.038        7927.797       1.222603       0.64503282   
     13200  -4632.4477     -4665.193       32.745289      6561.3834      260.89452      7957.6364      1.2180185      0.64503282   
     13300  -4633.311      -4665.7428      32.431821      5549.0996      258.397        7991.3909      1.2128738      0.64503282   
     13400  -4632.2034     -4666.2032      33.999885      2195.6651      270.89038      8018.3653      1.2087936      0.64503282   
     13500  -4632.568      -4665.4991      32.93113       3432.9838      262.37519      8029.9184      1.2070544      0.64503282   
     13600  -4631.874      -4665.2009      33.326839      2478.9618      265.52795      8023.6789      1.2079931      0.64503282   
     13700  -4631.3105     -4664.5516      33.241129      1976.0017      264.84508      8005.2835      1.2107689      0.64503282   
     13800  -4631.0456     -4663.28        32.234356      3591.1082      256.82372      7983.1996      1.2141183      0.64503282   
     13900  -4632.7068     -4664.3964      31.689595      4220.2317      252.48339      7964.9913      1.2168938      0.64503282   
     14000  -4632.9472     -4665.572       32.624767      4098.4978      259.93428      7953.3925      1.2186684      0.6775901    
     14100  -4632.8464     -4666.3092      33.462859      5188.1763      266.61168      7950.9599      1.2190413      0.6775901    
     14200  -4632.2791     -4666.0159      33.736813      4513.5607      268.79438      7955.3179      1.2183735      0.6775901    
     14300  -4630.6262     -4663.7892      33.163022      5189.8971      264.22276      7969.6403      1.2161839      0.6775901    
     14400  -4630.3397     -4664.33        33.99024       7309.5902      270.81353      7990.6894      1.2129803      0.6775901    
     14500  -4630.7387     -4665.6584      34.919766      4245.9829      278.21943      8013.5989      1.2095125      0.6775901    
     14600  -4632.2917     -4664.7431      32.451396      5000.228       258.55296      8030.3555      1.2069887      0.6775901    
     14700  -4632.4428     -4665.3553      32.912574      4193.0045      262.22734      8034.8581      1.2063123      0.6775901    
     14800  -4631.0249     -4665.5043      34.479395      3350.5065      274.71082      8022.8479      1.2081182      0.6775901    
     14900  -4631.992      -4665.2978      33.305892      3811.1285      265.36107      8000.4019      1.2115077      0.6775901    
     15000  -4632.014      -4664.5362      32.522163      7208.8015      259.11679      7969.8999      1.2161443      0.66644336   
     15100  -4631.1378     -4665.2086      34.070747      8187.0805      271.45496      7943.3094      1.2202154      0.66644336   
     15200  -4631.3948     -4665.1875      33.79265       6985.7581      269.23926      7932.8258      1.221828       0.66644336   
     15300  -4631.1344     -4665.0868      33.952357      4806.7037      270.5117       7938.9467      1.2208859      0.66644336   
     15400  -4632.1515     -4665.5382      33.386756      3606.4406      266.00534      7959.0556      1.2178013      0.66644336   
     15500  -4632.3386     -4665.5202      33.181582      5990.3379      264.37064      7982.7967      1.2141795      0.66644336   
     15600  -4632.0797     -4664.8812      32.801483      2823.607       261.34224      8003.0216      1.2111111      0.66644336   
     15700  -4632.0268     -4664.0419      32.01512       2667.4324      255.07698      8014.5037      1.209376       0.66644336   
     15800  -4631.0035     -4664.9372      33.933629      762.15337      270.36249      8016.6618      1.2090504      0.66644336   
     15900  -4631.9216     -4664.5987      32.677113      3980.247       260.35134      8011.9725      1.2097581      0.66644336   
     16000  -4631.1293     -4665.1604      34.0311        6765.2905      271.13908      8000.8887      1.211434       0.63982548   
     16100  -4631.0217     -4664.3054      33.283628      4943.7015      265.18368      7984.0014      1.2139963      0.63982548   
     16200  -4632.0742     -4664.2584      32.184177      8895.9451      256.42392      7968.5298      1.2163534      0.63982548   
     16300  -4631.573      -4664.3281      32.755087      6880.2252      260.97259      7957.4619      1.2180452      0.63982548   
     16400  -4631.0145     -4664.0651      33.050674      4995.5862      263.32765      7955.0785      1.2184102      0.63982548   
     16500  -4631.5226     -4664.8629      33.340278      4988.7885      265.63503      7960.3465      1.2176038      0.63982548   
     16600  -4632.3365     -4665.224       32.887495      6264.3553      262.02753      7974.5831      1.2154301      0.63982548   
     16700  -4631.2077     -4665.3801      34.172363      5151.2807      272.26458      7993.6072      1.2125375      0.63982548   
     16800  -4630.3836     -4663.9763      33.592702      2684.5942      267.6462       8010.1588      1.210032       0.63982548   
     16900  -4631.2977     -4665.8444      34.546715      5461.6593      275.24718      8022.9745      1.2080991      0.63982548   
     17000  -4631.0549     -4664.2139      33.159065      3853.3173      264.19124      8025.8223      1.2076705      0.6291981    
     17100  -4631.9086     -4665.265       33.356391      2694.6939      265.76341      8021.6063      1.2083052      0.6291981    
     17200  -4630.6878     -4662.9595      32.271654      4485.5369      257.12089      8009.9816      1.2100588      0.6291981    
     17300  -4631.7894     -4664.4404      32.650992      5208.3573      260.14322      7996.7658      1.2120586      0.6291981    
     17400  -4630.7553     -4664.9925      34.237127      7762.2342      272.78058      7980.1886      1.2145764      0.6291981    
     17500  -4630.9346     -4665.54        34.605408      6879.8975      275.71481      7966.4332      1.2166735      0.6291981    
     17600  -4631.2366     -4664.1823      32.94567       6852.0886      262.49104      7958.2059      1.2179313      0.6291981    
     17700  -4631.553      -4663.8233      32.270309      4619.4316      257.11017      7958.3999      1.2179016      0.6291981    
     17800  -4632.1225     -4665.076       32.953479      3573.1685      262.55326      7967.5831      1.2164979      0.6291981    
     17900  -4632.045      -4665.954       33.908988      8171.0331      270.16617      7981.2713      1.2144116      0.6291981    
     18000  -4631.5931     -4664.4447      32.851543      6760.2941      261.74109      7990.03        1.2130804      0.6547375    
     18100  -4633.0002     -4664.3112      31.310972      6334.0914      249.46675      7991.7494      1.2128194      0.6547375    
     18200  -4634.0172     -4666.6342      32.616946      1549.5339      259.87197      7986.1243      1.2136736      0.6547375    
     18300  -4634.2753     -4665.793       31.517683      3527.0536      251.11371      7972.7461      1.2157102      0.6547375    
     18400  -4634.3457     -4666.905       32.559386      6241.6469      259.41336      7958.6397      1.217865       0.6547375    
     18500  -4633.8906     -4666.3922      32.501547      5223.2263      258.95253      7947.1322      1.2196284      0.6547375    
     18600  -4632.851      -4665.4059      32.554899      1481.3639      259.37761      7943.8033      1.2201395      0.6547375    
     18700  -4633.2881     -4664.4696      31.18154       3278.6989      248.43552      7951.018       1.2190324      0.6547375    
     18800  -4632.5323     -4665.4091      32.876725      3776.8012      261.94172      7968.9043      1.2162963      0.6547375    
     18900  -4632.2092     -4665.9261      33.716861      2794.5624      268.63542      7991.6472      1.2128349      0.6547375    
     19000  -4631.712      -4665.4553      33.743253      3825.3379      268.84569      8011.9304      1.2097644      0.656243     
     19100  -4631.2291     -4664.2425      33.013451      4058.4006      263.03108      8028.6864      1.2072396      0.656243     
     19200  -4631.1359     -4664.2239      33.087952      2853.2544      263.62465      8039.5363      1.2056104      0.656243     
     19300  -4630.9784     -4664.38        33.401532      4550.5512      266.12306      8042.4312      1.2051764      0.656243     
     19400  -4630.8271     -4664.9117      34.084596      4384.1721      271.5653       8034.4823      1.2063688      0.656243     
     19500  -4631.6461     -4664.2344      32.588267      1890.6646      259.64347      8018.9607      1.2087038      0.656243     
     19600  -4631.7597     -4664.0165      32.256813      4202.2102      257.00264      8002.9653      1.2111196      0.656243     
     19700  -4631.1468     -4664.1833      33.03657       8666.3655      263.21527      7991.4418      1.212866       0.656243     
     19800  -4633.2212     -4666.4756      33.254388      3923.936       264.95071      7986.4092      1.2136303      0.656243     
     19900  -4633.294      -4665.2737      31.979717      2993.1815      254.79491      7980.5236      1.2145254      0.656243     
     20000  -4633.3395     -4666.4393      33.099815      6108.5345      263.71917      7972.0741      1.2158126      0.69067802   
     20100  -4634.2557     -4666.5599      32.304223      6419.5069      257.38037      7964.3547      1.2169911      0.69067802   
     20200  -4633.7066     -4665.8243      32.117646      4033.5614      255.89384      7964.8536      1.2169148      0.69067802   
     20300  -4632.6755     -4664.9323      32.256775      7011.2196      257.00234      7973.04        1.2156653      0.69067802   
     20400  -4632.897      -4665.7067      32.809744      4475.5089      261.40806      7987.7979      1.2134193      0.69067802   
     20500  -4634.6975     -4666.0945      31.396992      2680.8559      250.15211      8001.518       1.2113387      0.69067802   
     20600  -4633.1655     -4666.7415      33.575987      3866.8806      267.51301      8004.4076      1.2109014      0.69067802   
     20700  -4632.7949     -4665.6505      32.855639      7666.5899      261.77372      7995.2343      1.2122907      0.69067802   
     20800  -4631.7623     -4665.2341      33.471839      7436.1288      266.68323      7979.2519      1.2147189      0.69067802   
     20900  -4632.0963     -4665.1613      33.065057      4643.0843      263.44224      7964.3663      1.2169893      0.69067802   
     21000  -4632.4039     -4664.9022      32.498303      4468.1093      258.92669      7952.4912      1.2188066      0.61561373   
     21100  -4632.3428     -4664.2812      31.938406      5646.5185      254.46577      7945.672       1.2198526      0.61561373   
     21200  -4633.2311     -4665.8038      32.572705      7004.193       259.51948      7943.8676      1.2201297      0.61561373   
     21300  -4634.3027     -4666.3331      32.030368      4345.2804      255.19847      7948.9956      1.2193425      0.61561373   
     21400  -4634.3925     -4666.4444      32.051918      4449.9067      255.37016      7959.6625      1.2177085      0.61561373   
     21500  -4634.0608     -4665.6487      31.587909      5905.1711      251.67322      7975.3583      1.215312       0.61561373   
     21600  -4634.4118     -4666.3566      31.944777      5765.8628      254.51653      7989.7422      1.2131241      0.61561373   
     21700  -4634.0647     -4665.8306      31.765915      4791.5286      253.09147      7997.5795      1.2119352      0.61561373   
     21800  -4634.431      -4665.9026      31.471559      5602.2636      250.74622      7997.4118      1.2119607      0.61561373   
     21900  -4634.6351     -4666.158       31.522934      4347.452       251.15554      7989.6508      1.2131379      0.61561373   
     22000  -4633.911      -4665.3664      31.455404      6620.6433      250.6175       7977.6314      1.2149657      0.66985336   
     22100  -4633.2456     -4666.3576      33.111951      7728.5409      263.81586      7967.8519      1.2164569      0.66985336   
     22200  -4631.483      -4664.4984      33.015409      5377.5046      263.04667      7964.5739      1.2169576      0.66985336   
     22300  -4632.0057     -4664.0201      32.014396      2218.1719      255.07121      7969.3372      1.2162302      0.66985336   
     22400  -4632.3888     -4666.6994      34.310604      7350.754       273.366        7978.7724      1.2147919      0.66985336   
     22500  -4632.6052     -4665.0463      32.441078      4318.4618      258.47075      7992.1165      1.2127637      0.66985336   
     22600  -4631.9996     -4665.5645      33.564882      2592.9866      267.42454      8002.3456      1.2112134      0.66985336   
     22700  -4631.8543     -4664.1461      32.291828      3573.2311      257.28162      8006.2218      1.210627       0.66985336   
     22800  -4633.6852     -4665.2477      31.562505      2469.4052      251.47082      8006.3411      1.210609       0.66985336   
     22900  -4633.1051     -4665.0939      31.988811      5099.3023      254.86736      7998.6252      1.2117768      0.66985336   
     23000  -4633.7764     -4665.4182      31.641799      2942.6523      252.10258      7983.8844      1.2140141      0.6590529    
     23100  -4632.8007     -4664.7054      31.904753      4497.0288      254.19764      7965.6828      1.2167881      0.6590529    
     23200  -4631.2955     -4663.8775      32.581968      6353.0998      259.59328      7950.1645      1.2191633      0.6590529    
     23300  -4631.8573     -4665.0171      33.159857      4487.0831      264.19755      7944.8094      1.219985       0.6590529    
     23400  -4632.6099     -4664.6539      32.04404       7312.5953      255.30739      7949.3597      1.2192867      0.6590529    
     23500  -4632.6886     -4665.4451      32.756519      6094.6408      260.98399      7964.966       1.2168977      0.6590529    
     23600  -4633.7738     -4665.6191      31.845327      6123.0189      253.72417      7984.4594      1.2139267      0.6590529    
     23700  -4633.7705     -4665.7034      31.932904      5439.6474      254.42193      8007.0924      1.2104954      0.6590529    
     23800  -4634.2756     -4666.9979      32.722291      7426.4876      260.71129      8022.7033      1.20814        0.6590529    
     23900  -4633.1114     -4664.5391      31.42767       2997.2769      250.39654      8025.7677      1.2076787      0.6590529    
     24000  -4632.6962     -4665.0481      32.351952      2403.075       257.76065      8018.011       1.208847       0.67272632   
     24100  -4633.7159     -4666.3707      32.654791      2508.5991      260.17348      8002.2742      1.2112242      0.67272632   
     24200  -4633.3018     -4666.5486      33.246855      5124.9932      264.89069      7982.4701      1.2142292      0.67272632   
     24300  -4632.9563     -4665.3806      32.424253      6706.5355      258.3367       7964.2191      1.2170118      0.67272632   
     24400  -4633.2417     -4665.6208      32.379052      5344.3152      257.97657      7953.8121      1.2186041      0.67272632   
     24500  -4631.9884     -4665.1578      33.169362      3743.401       264.27328      7951.914       1.218895       0.67272632   
     24600  -4631.6733     -4664.8899      33.216602      5558.8048      264.64965      7958.8126      1.2178385      0.67272632   
     24700  -4632.7436     -4665.1106      32.366917      4504.5925      257.87988      7972.5809      1.2157353      0.67272632   
     24800  -4633.1298     -4665.0632      31.933429      3536.4959      254.42611      7988.1826      1.2133609      0.67272632   
     24900  -4633.0616     -4665.1966      32.134983      4212.3813      256.03197      8000.098       1.2115537      0.67272632   
     25000  -4633.7074     -4665.4711      31.763674      4764.4458      253.07361      8004.6756      1.2108609      0.63405827   
     25100  -4634.0445     -4666.2173      32.17277       7687.8105      256.33304      7997.6697      1.2119216      0.63405827   
     25200  -4633.2298     -4665.7681      32.538328      5782.0027      259.24558      7983.3207      1.2140999      0.63405827   
     25300  -4634.183      -4666.638       32.454944      6573.0147      258.58123      7968.2678      1.2163934      0.63405827   
     25400  -4633.5806     -4665.6351      32.054468      8523.9812      255.39048      7955.3702      1.2183655      0.63405827   
     25500  -4633.8816     -4667.086       33.204453      4059.2889      264.55286      7953.1599      1.2187041      0.63405827   
     25600  -4634.2543     -4665.9028      31.648498      2846.5984      252.15596      7958.5264      1.2178823      0.63405827   
     25700  -4634.1098     -4667.8443      33.734518      4821.0817      268.77609      7970.8181      1.2160042      0.63405827   
     25800  -4633.5112     -4666.7422      33.231002      4898.0824      264.76439      7986.4995      1.2136166      0.63405827   
     25900  -4632.7655     -4665.7004      32.934911      3540.5558      262.40532      8005.6438      1.2107144      0.63405827   
     26000  -4633.5697     -4665.8593      32.289586      6627.6787      257.26376      8021.5701      1.2083106      0.75598806   
     26100  -4632.2785     -4664.9259      32.647432      3043.1568      260.11486      8031.162       1.2068675      0.75598806   
     26200  -4631.8735     -4664.2712      32.397742      2278.204       258.12548      8032.4442      1.2066749      0.75598806   
     26300  -4631.7379     -4664.2873      32.549346      6895.1671      259.33336      8026.2946      1.2075994      0.75598806   
     26400  -4632.4157     -4665.1994      32.783675      4538.5958      261.20036      8017.6965      1.2088944      0.75598806   
     26500  -4632.8509     -4665.2664      32.415554      5778.0665      258.26739      8008.1028      1.2103427      0.75598806   
     26600  -4633.099      -4667.2133      34.114252      5809.0024      271.80159      8002.324       1.2112167      0.75598806   
     26700  -4633.1666     -4664.5447      31.37811       5417.7561      250.00168      7995.173       1.2123         0.75598806   
     26800  -4631.605      -4665.0923      33.487247      2832.6514      266.80599      7988.5275      1.2133085      0.75598806   
     26900  -4632.8033     -4664.5864      31.783062      5568.4382      253.22808      7985.0837      1.2138318      0.75598806   
     27000  -4633.835      -4666.3041      32.469086      6251.9512      258.69391      7987.1565      1.2135168      0.6857396    
     27100  -4634.4437     -4666.3976      31.953942      5175.8473      254.58955      7988.4884      1.2133144      0.6857396    
     27200  -4634.6068     -4666.9303      32.323442      4954.7253      257.5335       7989.9121      1.2130983      0.6857396    
     27300  -4634.5023     -4666.3686      31.866371      4040.4686      253.89183      7990.5094      1.2130076      0.6857396    
     27400  -4633.9288     -4665.9742      32.045415      6244.3878      255.31835      7989.1776      1.2132098      0.6857396    
     27500  -4635.1304     -4667.6551      32.524682      5988.6117      259.13686      7987.0839      1.2135278      0.6857396    
     27600  -4635.5646     -4667.5928      32.028259      5141.8179      255.18167      7982.0983      1.2142858      0.6857396    
     27700  -4634.8624     -4666.2979      31.435512      4311.7373      250.45902      7976.3492      1.215161       0.6857396    
     27800  -4633.267      -4666.0379      32.770868      5879.0705      261.09832      7977.6988      1.2149554      0.6857396    
     27900  -4632.7449     -4665.4949      32.74999       6255.0342      260.93198      7989.1826      1.213209       0.6857396    
     28000  -4632.379      -4665.3595      32.980565      7638.4571      262.76905      8004.8237      1.2108385      0.69563151   
     28100  -4632.397      -4663.9858      31.588792      4260.5597      251.68026      8028.3699      1.2072872      0.69563151   
     28200  -4632.4521     -4665.4618      33.00974       5873.7373      263.00151      8051.6497      1.2037966      0.69563151   
     28300  -4633.205      -4665.3806      32.17564       5410.1441      256.3559       8068.7492      1.2012455      0.69563151   
     28400  -4633.4091     -4665.7247      32.315608      5199.3546      257.47109      8075.1719      1.20029        0.69563151   
     28500  -4633.3435     -4666.4434      33.099932      3965.0253      263.7201       8069.3404      1.2011575      0.69563151   
     28600  -4631.9852     -4664.6902      32.705014      4686.7197      260.57364      8053.103       1.2035793      0.69563151   
     28700  -4631.4853     -4665.9738      34.488557      4982.9112      274.78382      8035.2116      1.2062593      0.69563151   
     28800  -4630.6347     -4664.4724      33.837667      3666.7754      269.59792      8014.9119      1.2093144      0.69563151   
     28900  -4631.3093     -4665.8224      34.513168      5267.8413      274.97991      8000.2455      1.2115314      0.69563151   
     29000  -4632.1832     -4664.8445      32.661283      5926.1347      260.22521      7996.5573      1.2120902      0.65170463   
     29100  -4631.6755     -4665.8232      34.147708      5489.7412      272.06814      8002.0449      1.2112589      0.65170463   
     29200  -4632.0133     -4664.7855      32.772256      3451.5387      261.10937      8011.5223      1.2098261      0.65170463   
     29300  -4630.9992     -4664.7489      33.749649      2021.7342      268.89665      8024.8236      1.2078207      0.65170463   
     29400  -4630.3552     -4663.7026      33.347462      6898.2052      265.69227      8035.8622      1.2061616      0.65170463   
     29500  -4630.399      -4664.859       34.460003      6044.8817      274.55632      8046.9925      1.2044933      0.65170463   
     29600  -4630.9395     -4663.8776      32.938103      5753.4268      262.43074      8049.7571      1.2040796      0.65170463   
     29700  -4633.1841     -4665.8693      32.685239      4735.8206      260.41608      8043.8427      1.2049649      0.65170463   
     29800  -4632.8612     -4664.9847      32.123531      9002.9844      255.94073      8026.9948      1.207494       0.65170463   
     29900  -4633.4856     -4665.0666      31.581053      4369.3531      251.6186       8008.7578      1.2102437      0.65170463   
     30000  -4633.4503     -4666.1362      32.685945      452.87944      260.4217       7995.3976      1.212266       0.67572897   
     30100  -4632.9847     -4666.421       33.436389      2745.8466      266.40079      7988.6173      1.2132949      0.67572897   
     30200  -4632.8382     -4664.0155      31.177343      4259.7378      248.40208      7988.1004      1.2133734      0.67572897   
     30300  -4631.508      -4665.3308      33.822848      7397.7994      269.47985      7998.4194      1.211808       0.67572897   
     30400  -4632.0105     -4664.2748      32.264333      5427.879       257.06255      8016.164       1.2091255      0.67572897   
     30500  -4632.187      -4665.1257      32.938733      6852.9502      262.43576      8033.9597      1.2064472      0.67572897   
     30600  -4631.5065     -4663.7098      32.203365      3592.6298      256.5768       8044.9269      1.2048025      0.67572897   
     30700  -4633.4558     -4665.5675      32.111747      3103.375       255.84684      8049.4316      1.2041283      0.67572897   
     30800  -4633.1175     -4666.1423      33.024825      7247.2006      263.12169      8040.3547      1.2054877      0.67572897   
     30900  -4632.4817     -4665.0263      32.544683      5643.0047      259.29622      8020.8913      1.2084129      0.67572897   
     31000  -4631.9437     -4665.8101      33.8664        5442.3061      269.82685      7997.4566      1.2119539      0.68031384   
     31100  -4632.1684     -4665.7263      33.557915      8391.2884      267.36903      7976.7288      1.2151032      0.68031384   
     31200  -4632.7684     -4665.3257      32.5573        6341.3066      259.39674      7966.2903      1.2166954      0.68031384   
     31300  -4632.4095     -4665.179       32.769477      4891.6346      261.08723      7962.7626      1.2172344      0.68031384   
     31400  -4634.0665     -4666.0199      31.953367      6773.6676      254.58497      7967.7235      1.2164765      0.68031384   
     31500  -4633.776      -4667.4906      33.714596      6228.73        268.61737      7981.1288      1.2144333      0.68031384   
     31600  -4632.8253     -4666.3157      33.490418      5011.7776      266.83126      8001.0082      1.2114159      0.68031384   
     31700  -4631.7104     -4664.1837      32.47332       5129.0045      258.72763      8023.6423      1.2079986      0.68031384   
     31800  -4631.5605     -4664.8882      33.327748      5134.3064      265.5352       8046.1444      1.2046202      0.68031384   
     31900  -4630.7185     -4664.1125      33.393982      3401.2963      266.06291      8063.3987      1.2020426      0.68031384   
     32000  -4631.4787     -4664.7347      33.255998      6467.6149      264.96354      8068.8352      1.2012327      0.64507351   
     32100  -4631.7193     -4665.9602      34.240838      6336.4044      272.81014      8062.1754      1.202225       0.64507351   
     32200  -4631.9499     -4665.3611      33.411166      5821.1677      266.19982      8044.3191      1.2048936      0.64507351   
     32300  -4632.8015     -4666.0795      33.278013      5147.0185      265.13894      8019.4521      1.2086298      0.64507351   
     32400  -4632.5614     -4664.964       32.402552      4597.4394      258.1638       7994.3676      1.2124222      0.64507351   
     32500  -4632.4533     -4665.7807      33.327442      7488.8237      265.53276      7977.4263      1.2149969      0.64507351   
     32600  -4631.9999     -4665.801       33.801008      4316.4344      269.30585      7971.9487      1.2158318      0.64507351   
     32700  -4631.455      -4664.1628      32.707769      7625.4411      260.59558      7979.4182      1.2146936      0.64507351   
     32800  -4630.7712     -4662.9615      32.190281      5038.3022      256.47256      8002.9965      1.2111149      0.64507351   
     32900  -4631.7701     -4664.3884      32.618342      3402.9097      259.88309      8039.4355      1.2056255      0.64507351   
     33000  -4631.284      -4664.7333      33.449297      5975.5243      266.50363      8074.9523      1.2003227      0.6710931    
     33100  -4632.0135     -4664.091       32.077538      4491.6903      255.57429      8099.9485      1.1966185      0.6710931    
     33200  -4632.7612     -4665.1996      32.438338      503.70508      258.44892      8106.1304      1.195706       0.6710931    
     33300  -4631.3684     -4663.8957      32.527307      3708.3631      259.15778      8090.1214      1.1980721      0.6710931    
     33400  -4631.8346     -4663.6738      31.839211      2212.4048      253.67544      8060.6018      1.2024597      0.6710931    
     33500  -4632.4419     -4664.5063      32.06445       4456.4251      255.47001      8023.7318      1.2079851      0.6710931    
     33600  -4633.254      -4665.4166      32.162553      5008.1213      256.25164      7981.538       1.214371       0.6710931    
     33700  -4634.3871     -4667.1077      32.720628      5865.3658      260.69804      7942.1591      1.2203921      0.6710931    
     33800  -4634.5551     -4665.731       31.175938      5255.7002      248.39089      7915.9018      1.2244402      0.6710931    
     33900  -4634.9074     -4665.3583      30.450888      6538.9351      242.61413      7908.3205      1.225614       0.6710931    
     34000  -4635.2568     -4666.9908      31.733965      6833.9175      252.83691      7922.9649      1.2233486      0.64114575   
     34100  -4635.1237     -4666.2445      31.120794      7137.2802      247.95153      7951.9081      1.2188959      0.64114575   
     34200  -4633.8687     -4666.2705      32.401811      4005.7891      258.1579       7988.7626      1.2132728      0.64114575   
     34300  -4632.3902     -4665.7208      33.330656      5094.8669      265.55837      8024.6828      1.2078419      0.64114575   
     34400  -4634.2108     -4665.8699      31.659039      3222.4643      252.23994      8054.2487      1.2034081      0.64114575   
     34500  -4633.4594     -4665.9674      32.508036      2194.0848      259.00423      8071.5566      1.2008277      0.64114575   
     34600  -4631.2705     -4663.7803      32.509817      4160.7705      259.01842      8069.5351      1.2011285      0.64114575   
     34700  -4631.2608     -4664.7926      33.531749      3309.1361      267.16056      8052.4422      1.2036781      0.64114575   
     34800  -4631.7628     -4665.2342      33.471337      4458.9786      266.67923      8024.3257      1.2078957      0.64114575   
     34900  -4631.2991     -4664.164       32.864887      3999.016       261.8474       7995.6251      1.2122315      0.64114575   
     35000  -4632.6576     -4665.4801      32.822498      4190.1758      261.50968      7976.7374      1.2151019      0.62996047   
     35100  -4632.467      -4664.8573      32.390386      6033.515       258.06687      7969.4557      1.2162121      0.62996047   
     35200  -4632.238      -4665.2432      33.005217      3025.3425      262.96547      7978.8305      1.2147831      0.62996047   
     35300  -4632.9919     -4666.2477      33.255849      5850.1165      264.96235      8000.9902      1.2114186      0.62996047   
     35400  -4634.3567     -4666.5061      32.149392      5526.2214      256.14677      8024.7553      1.207831       0.62996047   
     35500  -4634.4594     -4666.2243      31.764871      7058.3778      253.08315      8041.7511      1.2052783      0.62996047   
     35600  -4633.7663     -4665.2554      31.489117      5917.99        250.88611      8045.8956      1.2046575      0.62996047   
     35700  -4633.3676     -4666.3794      33.0118        4265.6897      263.01792      8038.9082      1.2057046      0.62996047   
     35800  -4634.078      -4666.1353      32.057244      5134.303       255.4126       8025.6666      1.2076939      0.62996047   
     35900  -4633.3666     -4665.9357      32.56909       3732.507       259.49067      8005.2283      1.2107773      0.62996047   
     36000  -4633.0697     -4666.3267      33.256978      7613.5715      264.97135      7981.9749      1.2143046      0.65642111   
     36100  -4633.2736     -4666.3648      33.091106      4454.9659      263.64978      7960.0637      1.2176471      0.65642111   
     36200  -4633.077      -4666.0462      32.969215      4569.162       262.67863      7951.2053      1.2190037      0.65642111   
     36300  -4632.1348     -4665.3985      33.263697      6185.3099      265.02488      7957.6269      1.21802        0.65642111   
     36400  -4631.8245     -4665.1036      33.27908       4613.2618      265.14744      7976.7345      1.2151023      0.65642111   
     36500  -4632.8906     -4666.3351      33.444499      4281.5307      266.4654       8006.4981      1.2105852      0.65642111   
     36600  -4632.9222     -4666.7381      33.815849      1843.0816      269.42409      8037.1955      1.2059615      0.65642111   
     36700  -4632.3054     -4664.4685      32.163178      6733.3283      256.25661      8058.8238      1.2027249      0.65642111   
     36800  -4632.7221     -4664.1534      31.431361      2362.8504      250.42595      8068.5754      1.2012713      0.65642111   
     36900  -4633.286      -4665.2872      32.00124       2223.4777      254.96639      8064.0774      1.2019414      0.65642111   
     37000  -4633.6014     -4666.8193      33.217845      3542.7415      264.65956      8046.6218      1.2045488      0.62290014   
     37100  -4632.9228     -4665.3561      32.433277      2479.8972      258.4086       8015.5038      1.2092251      0.62290014   
     37200  -4632.5002     -4665.0973      32.597123      3919.9503      259.71402      7977.4812      1.2149886      0.62290014   
     37300  -4631.8629     -4662.9445      31.081592      9214.2862      247.6392       7944.1495      1.2200864      0.62290014   
     37400  -4630.8396     -4665.1923      34.352745      5054.3979      273.70175      7927.2399      1.2226889      0.62290014   
     37500  -4632.0529     -4664.6504      32.59756       6614.993       259.71751      7929.6731      1.2223137      0.62290014   
     37600  -4631.7352     -4665.9187      34.183444      3922.4885      272.35286      7954.2591      1.2185357      0.62290014   
     37700  -4632.6088     -4665.1189      32.510133      4888.1757      259.02094      7996.2608      1.2121351      0.62290014   
     37800  -4633.4992     -4665.6865      32.187269      2721.0253      256.44856      8043.7242      1.2049827      0.62290014   
     37900  -4633.4402     -4666.6511      33.210839      3511.3977      264.60374      8084.8711      1.1988501      0.62290014   
     38000  -4633.462      -4664.5669      31.104937      2430.0531      247.8252       8101.4708      1.1963937      0.61642181   
     38100  -4632.7827     -4665.2982      32.515556     -130.21177      259.06415      8085.4421      1.1987654      0.61642181   
     38200  -4633.0987     -4665.7745      32.67579       5557.8791      260.3408       8040.3602      1.2054868      0.61642181   
     38300  -4633.5594     -4665.3369      31.777512      8926.3802      253.18386      7980.0371      1.2145994      0.61642181   
     38400  -4633.9917     -4665.8554      31.863677      9878.1019      253.87037      7924.1497      1.2231657      0.61642181   
     38500  -4633.2071     -4664.5929      31.385865      7323.4722      250.06346      7887.6552      1.2288251      0.61642181   
     38600  -4632.9708     -4665.0405      32.069768      5733.4591      255.51238      7881.8075      1.2297368      0.61642181   
     38700  -4632.3279     -4666.8748      34.546927      8808.3096      275.24888      7903.1995      1.2264082      0.61642181   
     38800  -4633.2653     -4665.672       32.406756      5013.6089      258.1973       7944.8683      1.219976       0.61642181   
     38900  -4632.6088     -4665.5011      32.892357      6852.496       262.06627      7996.1895      1.2121459      0.61642181   
     39000  -4632.4061     -4664.6851      32.278978      6530.8285      257.17924      8046.2026      1.2046115      0.66161531   
     39100  -4633.2451     -4665.8382      32.593111      1532.542       259.68206      8084.1242      1.1989608      0.66161531   
     39200  -4633.8738     -4665.4528      31.578937      1441.313       251.60174      8095.9372      1.1972114      0.66161531   
     39300  -4633.912      -4666.447       32.534993      2509.3173      259.21901      8077.2874      1.1999757      0.66161531   
     39400  -4634.8767     -4666.6797      31.802968      6653.1229      253.38668      8033.1657      1.2065665      0.66161531   
     39500  -4635.2392     -4666.6491      31.409855      5730.4596      250.2546       7980.857       1.2144746      0.66161531   
     39600  -4634.5843     -4667.0203      32.435984      8277.0086      258.43017      7932.5867      1.2218648      0.66161531   
     39700  -4633.7672     -4666.2395      32.472307      7384.3015      258.71956      7900.083       1.226892       0.66161531   
     39800  -4633.9387     -4666.4617      32.522946      6775.3306      259.12303      7890.8671      1.2283249      0.66161531   
     39900  -4634.0986     -4666.6048      32.506206      7210.956       258.98965      7901.6205      1.2266532      0.66161531   
     40000  -4633.6437     -4666.6897      33.045971      2702.9547      263.29017      7929.3556      1.2223627      0.68084247   
     40100  -4632.7182     -4665.5187      32.800483      3542.4673      261.33427      7965.635       1.2167954      0.68084247   
     40200  -4632.2399     -4665.6379      33.397978      3704.9381      266.09475      8000.9753      1.2114209      0.68084247   
     40300  -4633.1228     -4665.4196      32.29685       4712.6668      257.32163      8026.533       1.2075635      0.68084247   
     40400  -4633.8617     -4665.6841      31.822413      4132.5632      253.54161      8040.7447      1.2054292      0.68084247   
     40500  -4634.0354     -4666.8697      32.834201      1249.1068      261.60292      8040.899       1.2054061      0.68084247   
     40600  -4634.4481     -4665.6767      31.228611      649.14406      248.81055      8022.5412      1.2081644      0.68084247   
     40700  -4633.85       -4665.8321      31.98214       3195.9883      254.81422      7990.2648      1.2130447      0.68084247   
     40800  -4633.9779     -4665.7402      31.762306      6639.0046      253.06271      7952.0122      1.21888        0.68084247   
     40900  -4633.6903     -4665.8906      32.200286      7382.8981      256.55227      7919.9086      1.2238207      0.68084247   
     41000  -4634.3381     -4665.3254      30.987349      10435.793      246.88833      7899.3966      1.2269986      0.73276874   
     41100  -4633.3393     -4665.9884      32.649148      9826.416       260.12853      7900.5506      1.2268194      0.73276874   
     41200  -4634.0967     -4666.1069      32.010238      6212.1458      255.03808      7927.6495      1.2226258      0.73276874   
     41300  -4634.1657     -4665.539       31.373224      5818.7067      249.96274      7967.5967      1.2164959      0.73276874   
     41400  -4633.3642     -4665.9626      32.598371      5172.1442      259.72397      8006.7559      1.2105463      0.73276874   
     41500  -4632.7276     -4665.29        32.562346      6474.2212      259.43694      8038.6088      1.2057495      0.73276874   
     41600  -4631.6684     -4666.3863      34.71792       4858.5099      276.61125      8055.315       1.2032488      0.73276874   
     41700  -4632.8497     -4665.0093      32.159576      2448.2902      256.22791      8055.6375      1.2032007      0.73276874   
     41800  -4633.3528     -4666.2338      32.880938      4069.9822      261.97529      8038.2121      1.205809       0.73276874   
     41900  -4634.2749     -4665.0921      30.817189      6286.7551      245.53259      8007.7029      1.2104031      0.73276874   
     42000  -4635.4401     -4667.8336      32.393526      5294.5853      258.09189      7972.0698      1.2158133      0.69696772   
     42100  -4634.7955     -4665.9031      31.107638      7052.869       247.84672      7935.6955      1.2213861      0.69696772   
     42200  -4634.77       -4666.1733      31.403297      6676.6812      250.20235      7914.7964      1.2246112      0.69696772   
     42300  -4633.5416     -4665.4558      31.914152      6710.9601      254.27253      7914.3526      1.2246799      0.69696772   
     42400  -4635.1818     -4667.2336      32.051788      4372.3514      255.36913      7935.4294      1.2214271      0.69696772   
     42500  -4635.4021     -4666.7129      31.31078       4071.4473      249.46523      7971.882       1.2158419      0.69696772   
     42600  -4633.4592     -4666.6577      33.198432      7979.0051      264.50489      8011.8172      1.2097815      0.69696772   
     42700  -4632.5747     -4666.9254      34.350783      6369.5738      273.68612      8047.8185      1.2043697      0.69696772   
     42800  -4633.1788     -4665.0601      31.881326      3628.8083      254.01099      8071.7276      1.2008022      0.69696772   
     42900  -4632.2065     -4665.3076      33.101021      1310.2289      263.72878      8076.553       1.2000848      0.69696772   
     43000  -4632.2597     -4665.182       32.92233       7421.0828      262.30508      8057.3746      1.2029413      0.65005574   
     43100  -4632.6385     -4664.5508      31.912355      2080.2173      254.25821      8019.643       1.208601       0.65005574   
     43200  -4631.3545     -4663.0114      31.65692       4850.4439      252.22306      7966.4968      1.2166638      0.65005574   
     43300  -4630.8117     -4664.4338      33.622051      8596.7316      267.88003      7920.3329      1.2237552      0.65005574   
     43400  -4631.341      -4664.8725      33.531473      10482.112      267.15836      7894.4774      1.2277632      0.65005574   
     43500  -4632.7773     -4665.6874      32.910024      6678.7234      262.20703      7897.0883      1.2273572      0.65005574   
     43600  -4634.4083     -4667.5504      33.142146      5123.2103      264.05644      7926.2596      1.2228401      0.65005574   
     43700  -4632.8877     -4666.8197      33.931985      3046.6256      270.34939      7973.494       1.2155961      0.65005574   
     43800  -4631.6673     -4665.0865      33.419197      3390.2486      266.26381      8029.7772      1.2070756      0.65005574   
     43900  -4632.114      -4665.8378      33.723824      1168.1915      268.69089      8077.2288      1.1999844      0.65005574   
     44000  -4632.193      -4664.5434      32.350328      2379.5168      257.74771      8100.0157      1.1966086      0.64328201   
     44100  -4633.9404     -4666.0783      32.137927      364.68224      256.05543      8094.6756      1.197398       0.64328201   
     44200  -4633.2926     -4665.1746      31.881959      4292.1604      254.01603      8060.2101      1.2025181      0.64328201   
     44300  -4631.9131     -4665.6922      33.779107      3665.4117      269.13135      8007.489       1.2104354      0.64328201   
     44400  -4632.0359     -4665.4643      33.428364      5603.8069      266.33685      7952.7412      1.2187682      0.64328201   
     44500  -4631.1097     -4664.3915      33.281859      6658.8246      265.16958      7912.7363      1.22493        0.64328201   
     44600  -4631.1752     -4664.9854      33.810233      8816.9027      269.37935      7895.1918      1.227652       0.64328201   
     44700  -4631.5773     -4665.7871      34.209765      6931.4925      272.56257      7905.2669      1.2260874      0.64328201   
     44800  -4630.4503     -4664.8438      34.393495      6591.8217      274.02642      7935.7994      1.2213701      0.64328201   
     44900  -4631.3879     -4663.9452      32.557264      3555.8561      259.39645      7981.6908      1.2143478      0.64328201   
     45000  -4631.3508     -4664.9782      33.627406      5331.0443      267.92269      8031.9261      1.2067527      0.65692042   
     45100  -4632.4155     -4666.0225      33.607005      2941.9982      267.76015      8069.5629      1.2011243      0.65692042   
     45200  -4632.2902     -4664.8214      32.531201      237.22161      259.1888       8084.6         1.1988903      0.65692042   
     45300  -4633.7564     -4666.0985      32.342092      2129.5238      257.68209      8072.3696      1.2007067      0.65692042   
     45400  -4633.1251     -4666.684       33.558941      2024.377       267.37721      8034.5253      1.2063623      0.65692042   
     45500  -4632.9303     -4665.2393      32.309033      5208.8566      257.4187       7980.5317      1.2145241      0.65692042   
     45600  -4633.8193     -4666.2335      32.41427       4758.9223      258.25717      7931.3913      1.222049       0.65692042   
     45700  -4633.8411     -4666.1006      32.259502      5732.6026      257.02407      7899.3044      1.2270129      0.65692042   
     45800  -4633.4853     -4666.0097      32.524423      6820.3456      259.13479      7892.1978      1.2281178      0.65692042   
     45900  -4633.5184     -4666.3235      32.805054      6030.9361      261.37069      7911.2332      1.2251628      0.65692042   
     46000  -4631.7151     -4665.0337      33.318677      5858.1001      265.46293      7948.4728      1.2194227      0.71054708   
     46100  -4632.9825     -4665.7873      32.804749      6478.5435      261.36826      7995.5423      1.212244       0.71054708   
     46200  -4631.8334     -4664.2515      32.418181      8026.8471      258.28832      8038.4698      1.2057703      0.71054708   
     46300  -4631.8505     -4664.1004      32.249908      6187.5144      256.94763      8069.077       1.2011967      0.71054708   
     46400  -4631.1342     -4664.5255      33.391309      665.09321      266.04161      8080.3686      1.1995181      0.71054708   
     46500  -4632.2463     -4664.7664      32.520058      3837.6095      259.10001      8065.7725      1.2016888      0.71054708   
     46600  -4631.6861     -4665.2313      33.545226      6142.299       267.26793      8029.5331      1.2071123      0.71054708   
     46700  -4631.2607     -4666.12        34.859251      7481.5112      277.73728      7986.5721      1.2136056      0.71054708   
     46800  -4630.9416     -4664.6304      33.688814      6721.5536      268.41195      7951.9877      1.2188837      0.71054708   
     46900  -4630.8607     -4666.3261      35.465461      6693.8642      282.5672       7939.5644      1.2207909      0.71054708   
     47000  -4631.6069     -4663.9981      32.391153      8079.5878      258.07298      7949.9663      1.2191937      0.65439668   
     47100  -4631.8777     -4665.4324      33.554726      6458.9498      267.34362      7976.5391      1.2151321      0.65439668   
     47200  -4633.0823     -4664.8754      31.793099      7024.8165      253.30805      8005.9303      1.2106711      0.65439668   
     47300  -4633.1391     -4666.0831      32.943986      5230.7639      262.47762      8032.7038      1.2066359      0.65439668   
     47400  -4633.4754     -4665.6246      32.149193      3886.238       256.14519      8049.8679      1.204063       0.65439668   
     47500  -4633.4886     -4665.5209      32.032285      5750.6964      255.21374      8052.203       1.2037139      0.65439668   
     47600  -4632.9696     -4665.9424      32.972768      6214.1619      262.70694      8038.481       1.2057686      0.65439668   
     47700  -4633.5713     -4665.4332      31.861819      2620.2867      253.85557      8007.9856      1.2103604      0.65439668   
     47800  -4633.1151     -4666.1461      33.031018      5636.0019      263.17103      7972.8288      1.2156975      0.65439668   
     47900  -4632.8376     -4664.8535      32.01584       8193.9133      255.08272      7943.3546      1.2202085      0.65439668   
     48000  -4632.457      -4664.9066      32.449559      7763.5803      258.53833      7928.7448      1.2224568      0.65538237   
     48100  -4632.3717     -4664.7409      32.36924       5738.897       257.8984       7932.8507      1.2218241      0.65538237   
     48200  -4632.4677     -4664.8725      32.404829      4173.9147      258.18194      7953.9653      1.2185807      0.65538237   
     48300  -4633.4064     -4664.6453      31.238907      3770.4662      248.89259      7987.7336      1.2134291      0.65538237   
     48400  -4633.0476     -4664.4847      31.43711       2285.9343      250.47175      8025.6861      1.2076909      0.65538237   
     48500  -4633.1796     -4665.3891      32.209512      4121.8981      256.62578      8054.9041      1.2033102      0.65538237   
     48600  -4633.6844     -4665.5501      31.865737      4704.2529      253.88679      8069.7017      1.2011037      0.65538237   
     48700  -4633.889      -4666.1318      32.242775      2640.8458      256.89079      8067.422       1.2014431      0.65538237   
     48800  -4632.7465     -4664.9058      32.159289      3534.7952      256.22563      8046.6148      1.2045498      0.65538237   
     48900  -4633.0257     -4665.3134      32.287663      3136.5688      257.24844      8012.0926      1.2097399      0.65538237   
     49000  -4632.2002     -4664.6497      32.449493      7599.6378      258.5378       7971.6867      1.2158717      0.6810409    
     49100  -4631.8252     -4665.029       33.203881      5883.8464      264.5483       7938.4598      1.2209608      0.6810409    
     49200  -4630.726      -4663.789       33.06296       6746.3493      263.42553      7922.7642      1.2233796      0.6810409    
     49300  -4632.2327     -4664.6236      32.390959      5970.1077      258.07144      7929.633       1.2223199      0.6810409    
     49400  -4632.6508     -4665.7657      33.11487       5160.1839      263.83912      7959.4263      1.2177446      0.6810409    
     49500  -4631.6793     -4665.0367      33.357388      6651.207       265.77136      8002.8597      1.2111356      0.6810409    
     49600  -4632.7593     -4665.0485      32.289261      6547.1852      257.26117      8050.0942      1.2040292      0.6810409    
     49700  -4632.4552     -4665.1426      32.687352      4419.4715      260.43292      8084.4199      1.198917       0.6810409    
     49800  -4631.7711     -4664.5841      32.812993      3187.3243      261.43395      8093.1307      1.1976266      0.6810409    
     49900  -4630.8307     -4664.4999      33.66927       4112.4809      268.25624      8077.6273      1.1999252      0.6810409    
     50000  -4632.0821     -4664.8679      32.785794      2675.8867      261.21724      8044.359       1.2048876      0.64083565   
     50100  -4631.5696     -4664.7896      33.220033      6635.9899      264.67699      8003.7124      1.2110066      0.64083565   
     50200  -4630.1804     -4663.4309      33.250462      7545.8021      264.91943      7967.5212      1.2165074      0.64083565   
     50300  -4630.5056     -4665.1403      34.634689      3253.9768      275.94811      7946.8747      1.2196679      0.64083565   
     50400  -4632.5587     -4665.5976      33.038939      7259.6586      263.23414      7945.0952      1.2199411      0.64083565   
     50500  -4632.8414     -4665.7441      32.902755      4302.8583      262.14911      7960.4266      1.2175916      0.64083565   
     50600  -4634.1734     -4666.7188      32.545383      3136.5524      259.30179      7984.0093      1.2139951      0.64083565   
     50700  -4634.0003     -4666.3514      32.351079      2527.0922      257.75369      8003.9402      1.2109721      0.64083565   
     50800  -4634.9471     -4666.9165      31.969388      3068.3489      254.71262      8017.5112      1.2089223      0.64083565   
     50900  -4634.823      -4667.1592      32.336156      7035.2518      257.6348       8020.3709      1.2084913      0.64083565   
     51000  -4635.0684     -4666.4435      31.375036      5256.9847      249.97718      8010.5733      1.2099694      0.61728433   
     51100  -4633.2417     -4666.5068      33.265161      4645.8417      265.03655      7991.3809      1.2128753      0.61728433   
     51200  -4633.0568     -4665.8544      32.797592      1469.3915      261.31124      7973.0039      1.2156709      0.61728433   
     51300  -4632.629      -4664.689       32.060005      5706.067       255.4346       7962.6286      1.2172549      0.61728433   
     51400  -4631.6813     -4665.239       33.557709      7192.6667      267.36739      7962.1128      1.2173337      0.61728433   
     51500  -4631.6608     -4665.127       33.466209      4273.5985      266.63838      7969.2114      1.2162494      0.61728433   
     51600  -4632.9251     -4665.6033      32.678127      2756.6092      260.35942      7980.4985      1.2145292      0.61728433   
     51700  -4633.2133     -4665.6817      32.468345      4456.7775      258.688        7992.3583      1.212727       0.61728433   
     51800  -4632.3453     -4664.9426      32.597339      7179.1419      259.71574      7998.9486      1.2117278      0.61728433   
     51900  -4631.9867     -4665.0857      33.098935      3419.6265      263.71216      8001.8389      1.2112901      0.61728433   
     52000  -4632.5876     -4665.7189      33.131299      4971.7075      263.97001      8001.1458      1.2113951      0.65953625   
     52100  -4632.7716     -4664.9058      32.134277      4504.5706      256.02635      7998.8979      1.2117355      0.65953625   
     52200  -4632.571      -4663.9461      31.37512       5734.2897      249.97785      7996.8139      1.2120513      0.65953625   
     52300  -4633.0566     -4666.7755      33.718871      4041.6601      268.65143      7993.1436      1.2126078      0.65953625   
     52400  -4634.3571     -4666.1518      31.794705      4681.5587      253.32085      7986.7301      1.2135816      0.65953625   
     52500  -4634.38       -4666.3686      31.988602      6392.8837      254.8657       7980.1687      1.2145794      0.65953625   
     52600  -4634.7923     -4665.9728      31.180493      4806.6861      248.42718      7974.9538      1.2153736      0.65953625   
     52700  -4635.6011     -4666.9588      31.357676      3627.6562      249.83887      7972.4497      1.2157554      0.65953625   
     52800  -4635.7473     -4667.2207      31.473487      3770.559       250.76158      7969.7756      1.2161633      0.65953625   
     52900  -4635.2318     -4666.4654      31.233583      8432.076       248.85017      7967.7725      1.216469       0.65953625   
     53000  -4634.469      -4665.5665      31.09751       5342.2122      247.76602      7968.4115      1.2163715      0.7571383    
     53100  -4635.6262     -4667.6385      32.012254      7050.2911      255.05414      7971.5042      1.2158996      0.7571383    
     53200  -4636.3222     -4668.975       32.652821      4258.2031      260.15779      7977.2283      1.2150271      0.7571383    
     53300  -4635.0404     -4665.8243      30.78388       6369.8003      245.26721      7981.6411      1.2143553      0.7571383    
     53400  -4634.269      -4666.7036      32.434598      1441.6949      258.41912      7984.377       1.2139392      0.7571383    
     53500  -4634.7781     -4667.0949      32.316859      3069.7189      257.48105      7985.5998      1.2137533      0.7571383    
     53600  -4633.7181     -4667.3377      33.619606      5921.4443      267.86054      7986.5583      1.2136077      0.7571383    
     53700  -4634.4261     -4666.4553      32.029168      4110.6547      255.1889       7986.4212      1.2136285      0.7571383    
     53800  -4633.1474     -4666.6861      33.538649      5376.4969      267.21553      7984.0558      1.2139881      0.7571383    
     53900  -4632.3129     -4664.5497      32.236797      4615.4052      256.84317      7985.8779      1.2137111      0.7571383    
     54000  -4630.8774     -4664.334       33.456651      5154.5957      266.56222      7994.8956      1.2123421      0.66184595   
     54100  -4632.7725     -4665.1983      32.425785      7764.5596      258.34891      8008.9471      1.2102151      0.66184595   
     54200  -4633.5133     -4665.7586      32.245332      6321.5433      256.91117      8020.7041      1.2084411      0.66184595   
     54300  -4633.4864     -4666.2069      32.720496      6135.9505      260.69699      8027.0827      1.2074808      0.66184595   
     54400  -4633.0794     -4666.7358      33.656443      2857.8915      268.15404      8024.0132      1.2079427      0.66184595   
     54500  -4632.7222     -4665.3023      32.58008       3831.2546      259.57823      8013.1965      1.2095733      0.66184595   
     54600  -4631.4669     -4664.4644      32.997539      6197.472       262.90429      7995.5717      1.2122396      0.66184595   
     54700  -4632.4955     -4664.6246      32.12907       3598.6351      255.98487      7977.2712      1.2150206      0.66184595   
     54800  -4633.0873     -4665.0062      31.918918      3331.7974      254.3105       7963.5008      1.2171215      0.66184595   
     54900  -4633.1033     -4665.3616      32.258319      6848.1537      257.01464      7955.1938      1.2183925      0.66184595   
     55000  -4634.5606     -4667.2804      32.719716      9749.9187      260.69077      7958.0319      1.217958       0.67537726   
     55100  -4635.6059     -4667.2344      31.628559      7878.0504      251.9971       7970.5084      1.2160515      0.67537726   
     55200  -4634.1477     -4666.8601      32.712367      4920.2075      260.63222      7985.4407      1.2137775      0.67537726   
     55300  -4634.9356     -4665.7628      30.827161      4857.6584      245.61204      8001.5344      1.2113362      0.67537726   
     55400  -4634.4387     -4666.1914      31.752645      5168.4755      252.98574      8016.3557      1.2090966      0.67537726   
     55500  -4634.3484     -4666.2461      31.897675      5134.0678      254.14125      8024.3839      1.2078869      0.67537726   
     55600  -4635.4438     -4667.1687      31.724928      4860.3372      252.76491      8021.8764      1.2082645      0.67537726   
     55700  -4635.0125     -4666.5323      31.519846      5569.3421      251.13094      8007.051       1.2105017      0.67537726   
     55800  -4633.8311     -4665.515       31.683859      4191.583       252.43769      7985.8072      1.2137218      0.67537726   
     55900  -4634.1377     -4665.8012      31.663536      5670.2129      252.27577      7963.3921      1.2171382      0.67537726   
     56000  -4634.032      -4667.0847      33.05272       5035.1864      263.34395      7945.1594      1.2199313      0.67459201   
     56100  -4634.2045     -4665.6448      31.440309      5573.6676      250.49723      7935.5993      1.2214009      0.67459201   
     56200  -4634.514      -4666.5378      32.023803      6012.8971      255.14616      7941.2592      1.2205304      0.67459201   
     56300  -4633.9078     -4666.0727      32.164839      7808.4106      256.26985      7958.9635      1.2178154      0.67459201   
     56400  -4633.5486     -4665.438       31.88936       4300.6747      254.075        7985.9268      1.2137036      0.67459201   
     56500  -4633.6801     -4666.3721      32.691971      3582.1672      260.46971      8018.8807      1.2087159      0.67459201   
     56600  -4632.3284     -4664.8212      32.492843      5447.5024      258.88318      8048.6442      1.2042461      0.67459201   
     56700  -4632.9591     -4663.9213      30.962239      5462.1523      246.68826      8065.5796      1.2017175      0.67459201   
     56800  -4632.3267     -4664.8548      32.528116      4693.6338      259.16422      8065.7849      1.2016869      0.67459201   
     56900  -4632.1765     -4664.6212      32.44469       5711.1501      258.49953      8048.514       1.2042656      0.67459201   
[...]
   2186200  -4633.2219     -4664.7691      31.547189      4468.04        251.34879      8008.9511      1.2102145      0.63436522   
   2186300  -4633.5768     -4665.3013      31.724503      3696.1689      252.76152      7988.4883      1.2133145      0.63436522   
   2186400  -4632.4892     -4666.0375      33.548368      6334.6129      267.29296      7963.4439      1.2171302      0.63436522   
   2186500  -4632.2174     -4665.2706      33.053243      5915.1725      263.34811      7942.42        1.220352       0.63436522   
   2186600  -4631.3675     -4664.6227      33.255252      5119.4635      264.9576       7934.6938      1.2215403      0.63436522   
   2186700  -4630.7196     -4662.6358      31.916193      4158.0816      254.28879      7940.4946      1.2206479      0.63436522   
   2186800  -4631.3405     -4664.5576      33.217074      7259.6193      264.65342      7962.2036      1.2173198      0.63436522   
   2186900  -4631.1825     -4664.5724      33.389873      1471.1695      266.03017      7989.6497      1.2131381      0.63436522   
   2187000  -4631.1723     -4664.1917      33.019353      5175.6947      263.0781       8015.746       1.2091886      0.65714625   
   2187100  -4631.0334     -4663.9706      32.937256      6160.6044      262.424        8030.4986      1.2069672      0.65714625   
   2187200  -4633.1275     -4666.7711      33.643657      464.25374      268.05217      8032.5821      1.2066541      0.65714625   
   2187300  -4633.9387     -4666.2638      32.325097      2919.8761      257.54668      8023.6397      1.207999       0.65714625   
   2187400  -4634.0503     -4666.0913      32.041037      5215.8413      255.28347      8006.8283      1.2105353      0.65714625   
   2187500  -4633.9524     -4667.0946      33.14215       6404.4821      264.05647      7986.0211      1.2136893      0.65714625   
   2187600  -4634.1992     -4666.6096      32.410407      6600.8872      258.22638      7966.5738      1.2166521      0.65714625   
   2187700  -4635.4347     -4667.417       31.982311      7409.2914      254.81558      7953.7758      1.2186097      0.65714625   
   2187800  -4634.4854     -4667.2176      32.732254      5550.4612      260.79067      7946.5305      1.2197208      0.65714625   
   2187900  -4634.913      -4667.216       32.302988      6420.6458      257.37054      7945.4238      1.2198907      0.65714625   
   2188000  -4633.5269     -4666.9038      33.37685       5076.7688      265.92641      7953.0785      1.2187166      0.69143008   
   2188100  -4631.9177     -4665.4227      33.504963      3401.1919      266.94714      7970.8029      1.2160065      0.69143008   
   2188200  -4631.4048     -4664.9509      33.546131      2547.1314      267.27514      7993.8169      1.2125057      0.69143008   
   2188300  -4633.0177     -4664.7554      31.737732      5077.62        252.86692      8012.2086      1.2097224      0.69143008   
   2188400  -4633.8303     -4666.2922      32.461871      5720.563       258.63642      8022.5544      1.2081624      0.69143008   
   2188500  -4634.0309     -4666.9149      32.883962      6945.4665      261.99939      8024.9228      1.2078058      0.69143008   
   2188600  -4633.4465     -4665.35        31.903501      3868.5154      254.18767      8016.7972      1.20903        0.69143008   
   2188700  -4633.0941     -4666.4283      33.334161      5040.6507      265.5863       7997.9504      1.211879       0.69143008   
   2188800  -4633.1622     -4665.9105      32.748278      6111.327       260.91834      7970.7886      1.2160087      0.69143008   
   2188900  -4633.2421     -4665.6969      32.454788      7300.0735      258.57999      7941.9202      1.2204288      0.69143008   
   2189000  -4633.1908     -4666.777       33.586164      5211.9965      267.5941       7920.8386      1.223677       0.70351616   
   2189100  -4632.1788     -4665.754       33.575183      6881.9212      267.50661      7917.6429      1.2241709      0.70351616   
   2189200  -4633.4659     -4665.9149      32.449071      7526.3492      258.53443      7938.5952      1.22094        0.70351616   
   2189300  -4631.9757     -4664.4183      32.442579      7430.4163      258.48271      7973.6263      1.215576       0.70351616   
   2189400  -4631.5762     -4665.3079      33.731651      5992.3494      268.75325      8016.1682      1.2091249      0.70351616   
   2189500  -4631.6303     -4664.7229      33.092598      3776.0868      263.66167      8052.9737      1.2035987      0.70351616   
   2189600  -4633.1689     -4666.1275      32.958561      1859.2529      262.59374      8080.0835      1.1995604      0.70351616   
   2189700  -4632.2494     -4665.1874      32.937986      3666.3236      262.42981      8087.0747      1.1985234      0.70351616   
   2189800  -4632.2316     -4665.1242      32.892509      4782.5304      262.06748      8072.9694      1.2006175      0.70351616   
   2189900  -4633.1345     -4665.4025      32.267999      4443.3286      257.09176      8036.9579      1.2059972      0.70351616   
   2190000  -4631.9288     -4665.6278      33.699036      5556.0253      268.4934       7983.7157      1.2140398      0.64716074   
   2190100  -4631.8731     -4664.7875      32.914336      7995.8464      262.24138      7930.4739      1.2221903      0.64716074   
   2190200  -4632.0646     -4664.4741      32.409472      6104.6593      258.21894      7894.0671      1.227827       0.64716074   
   2190300  -4633.0901     -4665.545       32.454881      5708.411       258.58073      7886.2712      1.2290407      0.64716074   
   2190400  -4632.689      -4665.6234      32.934428      5988.7893      262.40146      7907.6292      1.2257212      0.64716074   
   2190500  -4630.695      -4663.9973      33.302292      7884.0472      265.33238      7953.3361      1.2186771      0.64716074   
   2190600  -4630.6118     -4665.624       35.012216      229.95175      278.95602      8011.6307      1.2098097      0.64716074   
   2190700  -4630.8838     -4663.8189      32.935113      2600.3444      262.40692      8067.2027      1.2014757      0.64716074   
   2190800  -4631.1406     -4664.1833      33.042687      3599.6446      263.26401      8109.1485      1.1952609      0.64716074   
   2190900  -4631.786      -4664.1462      32.360231      3538.1942      257.82662      8123.1138      1.193206       0.64716074   
   2191000  -4632.4709     -4665.0933      32.622314      2066.0183      259.91473      8106.4187      1.1956634      0.61423597   
   2191100  -4632.7901     -4664.8654      32.075229      4247.9806      255.55589      8060.5617      1.2024656      0.61423597   
   2191200  -4632.1876     -4664.2295      32.041883      5304.4117      255.29021      7993.9089      1.2124917      0.61423597   
   2191300  -4632.0397     -4664.4937      32.454002      4243.5972      258.57372      7928.5587      1.2224855      0.61423597   
   2191400  -4632.0501     -4665.4191      33.369026      6779.7812      265.86408      7882.9049      1.2295656      0.61423597   
   2191500  -4632.4957     -4665.7062      33.210483      8663.6605      264.6009       7870.9508      1.231433       0.61423597   
   2191600  -4631.075      -4665.2337      34.158648      7102.784       272.15531      7894.406       1.2277743      0.61423597   
   2191700  -4631.9627     -4664.7977      32.834949      4828.4258      261.60888      7942.355       1.220362       0.61423597   
   2191800  -4631.0836     -4662.8801      31.796528      6684.9956      253.33537      7998.3965      1.2118114      0.61423597   
   2191900  -4631.9907     -4665.0669      33.076221      4505.9405      263.53119      8051.229       1.2038595      0.61423597   
   2192000  -4631.477      -4664.0277      32.550741      6420.3109      259.34448      8084.094       1.1989653      0.61365742   
   2192100  -4631.5361     -4666.069       34.532904      4454.4577      275.13715      8094.4037      1.1974382      0.61365742   
   2192200  -4633.2884     -4665.491       32.202632      5281.4795      256.57096      8080.7535      1.199461       0.61365742   
   2192300  -4633.0532     -4664.9635      31.910285      3111.5258      254.24172      8044.9305      1.204802       0.61365742   
   2192400  -4631.9761     -4666.4355      34.459318      4962.4565      274.55086      7991.2872      1.2128895      0.61365742   
   2192500  -4630.5751     -4664.3724      33.797333      6923.0263      269.27657      7938.7715      1.2209129      0.61365742   
   2192600  -4631.1048     -4663.2528      32.147992      8940.1654      256.13562      7909.7311      1.2253954      0.61365742   
   2192700  -4631.5359     -4664.6691      33.133184      10623.775      263.98503      7913.5685      1.2248012      0.61365742   
   2192800  -4632.8118     -4665.4412      32.629443      8713.2251      259.97153      7943.813       1.220138       0.61365742   
   2192900  -4634.6007     -4666.2404      31.639656      3860.2344      252.08551      7987.2644      1.2135004      0.61365742   
   2193000  -4634.3919     -4666.252       31.860082      3336.3501      253.84173      8028.0883      1.2073296      0.65567412   
   2193100  -4634.0862     -4664.9111      30.824896      1367.5828      245.594        8057.1868      1.2029693      0.65567412   
   2193200  -4634.1266     -4666.6096      32.48296       2253.0877      258.80444      8069.0487      1.2012009      0.65567412   
   2193300  -4633.9707     -4666.1844      32.213717      5400.0585      256.65928      8058.8572      1.20272        0.65567412   
   2193400  -4634.2393     -4666.1417      31.902426      6966.9706      254.1791       8027.7724      1.2073771      0.65567412   
   2193500  -4634.7811     -4666.1092      31.328077      2530.6558      249.60304      7983.4024      1.2140874      0.65567412   
   2193600  -4633.069      -4665.8433      32.774239      6195.8471      261.12518      7937.7695      1.221067       0.65567412   
   2193700  -4632.3082     -4665.6824      33.374189      9719.5639      265.90521      7903.7056      1.2263296      0.65567412   
   2193800  -4632.9837     -4664.6268      31.643006      9053.602       252.1122       7894.1462      1.2278147      0.65567412   
   2193900  -4632.9417     -4665.9364      32.994679      3268.3102      262.88151      7910.6473      1.2252535      0.65567412   
   2194000  -4632.9205     -4664.7446      31.824123      7311.1626      253.55524      7948.4611      1.2194245      0.73214249   
   2194100  -4633.3991     -4666.7139      33.314733      3540.0667      265.43151      7999.5751      1.2116329      0.73214249   
   2194200  -4633.2377     -4665.9061      32.668424      4025.7115      260.28211      8046.1376      1.2046213      0.73214249   
   2194300  -4632.4694     -4665.0369      32.567507      3024.8         259.47806      8077.2006      1.1999886      0.73214249   
   2194400  -4632.4639     -4664.3237      31.859773      5954.2551      253.83927      8084.7881      1.1988624      0.73214249   
   2194500  -4631.3195     -4664.5682      33.248613      3909.1819      264.9047       8066.7353      1.2015454      0.73214249   
   2194600  -4630.7217     -4665.0417      34.320035      4454.4815      273.44114      8026.001       1.2076436      0.73214249   
   2194700  -4631.7148     -4664.8976      33.182829      5112.4188      264.38057      7979.1824      1.2147295      0.73214249   
   2194800  -4632.3244     -4665.2862      32.961778      6382.976       262.61937      7938.5101      1.2209531      0.73214249   
   2194900  -4632.5246     -4665.9699      33.445278      7540.7509      266.4716       7911.9939      1.225045       0.73214249   
   2195000  -4632.7534     -4665.6297      32.876317      8159.8215      261.93847      7902.5766      1.2265048      0.69864829   
   2195100  -4631.5229     -4664.0812      32.558287      8127.4866      259.40461      7912.3162      1.2249951      0.69864829   
   2195200  -4632.1291     -4665.8803      33.75122       6827.8354      268.90917      7939.8744      1.2207433      0.69864829   
   2195300  -4632.7323     -4665.8183      33.086062      5728.563       263.60959      7976.545       1.2151312      0.69864829   
   2195400  -4632.7175     -4665.4793      32.761856      4388.7883      261.02652      8014.5994      1.2093616      0.69864829   
   2195500  -4631.8472     -4664.3865      32.539278      3945.6429      259.25315      8040.6895      1.2054375      0.69864829   
   2195600  -4631.6651     -4664.7094      33.044273      3828.1417      263.27664      8050.2035      1.2040128      0.69864829   
   2195700  -4631.6599     -4664.5098      32.849929      5235.9689      261.72823      8040.2149      1.2055086      0.69864829   
   2195800  -4631.4059     -4663.8878      32.481839      3908.3513      258.79551      8011.3823      1.2098472      0.69864829   
   2195900  -4632.784      -4664.9511      32.167047      5956.7789      256.28744      7975.2951      1.2153216      0.69864829   
   2196000  -4631.9201     -4664.7523      32.832176      8547.6482      261.58678      7940.7989      1.2206012      0.69419713   
   2196100  -4632.2747     -4663.352       31.077306      5022.7058      247.60505      7918.9614      1.2239671      0.69419713   
   2196200  -4631.7612     -4664.8334      33.072227      7081.0454      263.49937      7917.6981      1.2241624      0.69419713   
   2196300  -4632.1959     -4664.4526      32.256624      8676.9397      257.00114      7938.3834      1.2209726      0.69419713   
   2196400  -4633.4934     -4665.8541      32.360672      7409.0465      257.83013      7973.2204      1.2156378      0.69419713   
   2196500  -4633.1928     -4665.4959      32.303107      4567.9369      257.37148      8012.3051      1.2097078      0.69419713   
   2196600  -4632.9826     -4664.8903      31.907674      3927.2864      254.22092      8048.9776      1.2041962      0.69419713   
   2196700  -4633.7541     -4664.8692      31.115168      4956.4293      247.90671      8071.7492      1.200799       0.69419713   
   2196800  -4634.7299     -4666.7689      32.038966      1581.3321      255.26697      8074.2586      1.2004258      0.69419713   
   2196900  -4634.827      -4666.4024      31.575443      4925.8865      251.5739       8048.9185      1.2042051      0.69419713   
   2197000  -4635.5708     -4666.9897      31.418884      3243.5629      250.32653      8001.322       1.2113684      0.61575646   
   2197100  -4635.0742     -4666.1276      31.053365      6546.8228      247.4143       7942.433       1.22035        0.61575646   
   2197200  -4633.4577     -4666.1741      32.71639       6210.9394      260.66427      7892.0437      1.2281418      0.61575646   
   2197300  -4634.2925     -4666.4767      32.184216      5684.9933      256.42423      7866.6707      1.232103       0.61575646   
   2197400  -4633.6245     -4666.1836      32.559066      6770.7108      259.41081      7865.369       1.2323069      0.61575646   
   2197500  -4634.3023     -4666.4856      32.183275      6846.8555      256.41674      7891.5957      1.2282115      0.61575646   
   2197600  -4635.2159     -4665.8491      30.633158      7020.9765      244.06635      7932.4117      1.2218918      0.61575646   
   2197700  -4634.6599     -4666.1279      31.467946      7315.1706      250.71743      7972.9898      1.215673       0.61575646   
   2197800  -4635.4742     -4666.7368      31.262604      5496.8773      249.08139      8006.1358      1.21064        0.61575646   
   2197900  -4633.7784     -4666.545       32.766606      5528.4278      261.06436      8024.9963      1.2077947      0.61575646   
   2198000  -4633.2998     -4664.3237      31.023924      3496.0588      247.17973      8027.9928      1.2073439      0.59746626   
   2198100  -4633.4126     -4664.8129      31.400277      3164.4875      250.17829      8016.2405      1.209114       0.59746626   
   2198200  -4633.5158     -4664.5404      31.024592      2091.0222      247.18505      7993.9366      1.2124875      0.59746626   
   2198300  -4634.16       -4666.2159      32.055964      5514.5271      255.4024       7969.5217      1.216202       0.59746626   
   2198400  -4634.0248     -4666.9549      32.930097      7182.4523      262.36696      7954.5171      1.2184961      0.59746626   
   2198500  -4633.0484     -4665.9458      32.897479      6900.8804      262.10708      7950.5255      1.2191079      0.59746626   
   2198600  -4633.7914     -4665.6505      31.859055      8457.0787      253.83355      7954.4744      1.2185027      0.59746626   
   2198700  -4633.8427     -4665.8983      32.055652      6463.3689      255.39991      7963.9159      1.2170581      0.59746626   
   2198800  -4633.6598     -4665.225       31.565193      3757.6189      251.49224      7979.6468      1.2146588      0.59746626   
   2198900  -4634.0455     -4666.8096      32.764144      3864.4859      261.04475      7998.5612      1.2117865      0.59746626   
   2199000  -4634.2637     -4666.3971      32.13348       2384.1052      256.02         8011.4792      1.2098326      0.69154142   
   2199100  -4634.4016     -4666.1161      31.714552      5600.508       252.68224      8013.2514      1.209565       0.69154142   
   2199200  -4633.7902     -4665.9919      32.201707      4975.5151      256.56359      8005.3827      1.2107539      0.69154142   
   2199300  -4634.6698     -4666.5811      31.911352      3850.6078      254.25022      7990.2511      1.2130468      0.69154142   
   2199400  -4634.2868     -4666.5578      32.271075      5358.804       257.11627      7968.4596      1.2163641      0.69154142   
   2199500  -4633.8248     -4666.0951      32.270221      5210.7595      257.10947      7948.5915      1.2194045      0.69154142   
   2199600  -4632.8277     -4665.3689      32.541228      5880.1414      259.26868      7939.3012      1.2208314      0.69154142   
   2199700  -4633.494      -4666.1591      32.665049      5035.853       260.25522      7941.5906      1.2204795      0.69154142   
   2199800  -4633.8286     -4666.0513      32.222689      7264.8463      256.73076      7949.6554      1.2192413      0.69154142   
   2199900  -4634.5262     -4667.217       32.690747      8400.6654      260.45996      7961.2857      1.2174602      0.69154142   
   2200000  -4633.9088     -4665.7116      31.80273       6976.6295      253.38479      7973.8899      1.2155358      0.6250354    
   2200100  -4633.9579     -4665.6488      31.690908      6014.2906      252.49385      7987.6789      1.2134374      0.6250354    
   2200200  -4633.4665     -4666.2153      32.748838      4805.1323      260.92279      7999.1629      1.2116953      0.6250354    
   2200211  -4633.157      -4666.084       32.926986      4143.0332      262.34217      8000.3889      1.2115097      0.6250354    
Loop time of 6923.19 on 1 procs for 2000000 steps with 972 atoms

Performance: 12.480 ns/day, 1.923 hours/ns, 288.884 timesteps/s, 280.795 katom-step/s
99.8% CPU use with 1 MPI tasks x 1 OpenMP threads

MPI task timing breakdown:
Section |  min time  |  avg time  |  max time  |%varavg| %total
---------------------------------------------------------------
Pair    | 4931.9     | 4931.9     | 4931.9     |   0.0 | 71.24
Neigh   | 77.07      | 77.07      | 77.07      |   0.0 |  1.11
Comm    | 91.105     | 91.105     | 91.105     |   0.0 |  1.32
Output  | 4.5382     | 4.5382     | 4.5382     |   0.0 |  0.07
Modify  | 1771.8     | 1771.8     | 1771.8     |   0.0 | 25.59
Other   |            | 46.82      |            |       |  0.68

Nlocal:            972 ave         972 max         972 min
Histogram: 1 0 0 0 0 0 0 0 0 0
Nghost:           3876 ave        3876 max        3876 min
Histogram: 1 0 0 0 0 0 0 0 0 0
Neighs:              0 ave           0 max           0 min
Histogram: 1 0 0 0 0 0 0 0 0 0
FullNghs:       135278 ave      135278 max      135278 min
Histogram: 1 0 0 0 0 0 0 0 0 0

Total # of neighbors = 135278
Ave neighs/atom = 139.1749
Neighbor list builds = 196674
Dangerous builds = 180050
Total wall time: 2:06:59
