LAMMPS (7 Feb 2024 - Update 1)
KOKKOS mode with Kokkos version 4.2.0 is enabled (src/KOKKOS/kokkos.cpp:72)
  will use up to 2 GPU(s) per node
  using 1 OpenMP thread(s) per MPI task
Reading data file ...
  triclinic box = (0 0 0) to (18.047441 22.912981 19.549222) with tilt (-0.10697296 -6.2467562 -0.022549581)
  1 by 2 by 1 MPI processor grid
  reading atoms ...
  1008 atoms
  read_data CPU = 0.010 seconds
ACE/AL version: 2023.11.25
Loading /home/cicn/cicn607503/pd/pot_dir/interim_potential_ladder_step_5.yaml
Total number of basis functions
	H: 24 (r=1) 863 (r>1)
	O: 24 (r=1) 863 (r>1)
Mapping LAMMPS atom type #1(H) -> ACE species type #0
Mapping LAMMPS atom type #2(O) -> ACE species type #1
Loading ASI /home/cicn/cicn607503/pd/pot_dir/interim_potential_ladder_step_5.asi
LINEAR ASI is loaded
Switching to 'neigh_modify every 1 delay 0 check yes' setting during minimization
Neighbor list info ...
  update: every = 1 steps, delay = 0 steps, check = yes
  max neighbors/atom: 2000, page size: 100000
  master list distance cutoff = 6.5
  ghost atom cutoff = 6.5
  binsize = 6.5, bins = 4 4 4
  1 neighbor lists, perpetual/occasional/extra = 1 0 0
  (1) pair pace/extrapolation/kk, perpetual
      attributes: full, newton on, kokkos_device
      pair build: full/bin/kk/device
      stencil: full/bin/3d
      bin: kk/device
Setting up cg/kk style minimization ...
  Unit style    : metal
  Current step  : 0
WARNING: Fix with atom-based arrays not compatible with sending data in Kokkos communication, switching to classic exchange/border communication (src/KOKKOS/comm_kokkos.cpp:666)
WARNING: Fix with atom-based arrays not compatible with Kokkos sorting on device, switching to classic host sorting (src/KOKKOS/atom_kokkos.cpp:218)
Per MPI rank memory allocation (min/avg/max) = 546.3 | 549.6 | 552.9 Mbytes
   Step         TotEng         PotEng         KinEng         Press           Temp          Volume        Density     c_max_pace_gamma
         0  -4827.4078     -4827.4078      0              65842.018      0              8084.0073      1.2433848      0.77404012   
       100  -4869.0901     -4869.0901      0             -8623.4012      0              8084.0073      1.2433848      0.77404012   
       200  -4869.1022     -4869.1022      0             -8586.5226      0              8084.0073      1.2433848      0.77404012   
       300  -4869.1022     -4869.1022      0             -8587.4902      0              8084.0073      1.2433848      0.77404012   
       303  -4869.1022     -4869.1022      0             -8587.5931      0              8084.0073      1.2433848      0.77404012   
Loop time of 1.20081 on 2 procs for 303 steps with 1008 atoms

99.5% CPU use with 2 MPI tasks x 1 OpenMP threads

Minimization stats:
  Stopping criterion = force tolerance
  Energy initial, next-to-last, final = 
     -4827.40775476357  -4869.10223783817  -4869.10223784276
  Force two-norm initial, final = 47.883568 0.00048071696
  Force max component initial, final = 2.283098 3.3055059e-05
  Final line search alpha, max atom move = 1 3.3055059e-05
  Iterations, force evaluations = 303 605

MPI task timing breakdown:
Section |  min time  |  avg time  |  max time  |%varavg| %total
---------------------------------------------------------------
Pair    | 0.85695    | 0.86017    | 0.86339    |   0.3 | 71.63
Neigh   | 0.0022241  | 0.002249   | 0.0022739  |   0.1 |  0.19
Comm    | 0.11543    | 0.11914    | 0.12286    |   1.1 |  9.92
Output  | 0.00052354 | 0.00052552 | 0.00052749 |   0.0 |  0.04
Modify  | 0.13959    | 0.14104    | 0.14248    |   0.4 | 11.75
Other   |            | 0.07768    |            |       |  6.47

Nlocal:            504 ave         505 max         503 min
Histogram: 1 0 0 0 0 0 0 0 0 1
Nghost:           2652 ave        2655 max        2649 min
Histogram: 1 0 0 0 0 0 0 0 0 1
Neighs:              0 ave           0 max           0 min
Histogram: 2 0 0 0 0 0 0 0 0 0
FullNghs:        73309 ave       73559 max       73059 min
Histogram: 1 0 0 0 0 0 0 0 0 1

Total # of neighbors = 146618
Ave neighs/atom = 145.45437
Neighbor list builds = 6
Dangerous builds = 0
Setting up Verlet run ...
  Unit style    : metal
  Current step  : 303
  Time step     : 0.0005
WARNING: Fix with atom-based arrays not compatible with sending data in Kokkos communication, switching to classic exchange/border communication (src/KOKKOS/comm_kokkos.cpp:666)
WARNING: Fix with atom-based arrays not compatible with Kokkos sorting on device, switching to classic host sorting (src/KOKKOS/atom_kokkos.cpp:218)
Per MPI rank memory allocation (min/avg/max) = 548.7 | 551 | 553.4 Mbytes
   Step         TotEng         PotEng         KinEng         Press           Temp          Volume        Density     c_max_pace_gamma
       303  -4831.3544     -4869.1022      37.74784      -3600.0747      290            8084.0073      1.2433848      0.77404012   
       400  -4823.1458     -4844.993       21.847254      1689.3103      167.84282      8043.7476      1.249608       0.77404012   
       500  -4816.2532     -4840.3254      24.072243      1135.0818      184.93642      7948.4627      1.2645881      0.77404012   
       600  -4809.5839     -4839.1343      29.550412      6608.2456      227.02278      7832.6774      1.2832817      0.77404012   
       700  -4804.5213     -4836.5197      31.998376      9962.9848      245.8294       7739.0516      1.2988067      0.77404012   
       800  -4802.1043     -4836.0011      33.896776      11171.927      260.41398      7692.6899      1.3066342      0.77404012   
       900  -4800.2047     -4833.9922      33.787529      5958.1786      259.57467      7695.7405      1.3061162      0.77404012   
      1000  -4798.0524     -4833.4662      35.413865      8923.3175      272.0691       7744.7704      1.2978476      0.72951207   
      1100  -4796.9525     -4832.0419      35.089415      5360.4158      269.57649      7826.4927      1.2842958      0.72951207   
      1200  -4795.7452     -4831.9184      36.173164      30.498486      277.90246      7923.9583      1.2684988      0.72951207   
      1300  -4794.5087     -4831.1871      36.67834       5398.853       281.7835       8016.2105      1.2539007      0.72951207   
      1400  -4793.6615     -4830.4171      36.75561       2728.2652      282.37714      8092.5282      1.2420756      0.72951207   
      1500  -4792.8241     -4829.9176      37.093526      287.88557      284.97319      8144.1179      1.2342075      0.72951207   
      1600  -4792.999      -4829.8975      36.898488      1819.5997      283.4748       8164.0254      1.231198       0.72951207   
      1700  -4792.7433     -4828.5674      35.824095      2970.1504      275.22071      8153.8787      1.2327301      0.72951207   
      1800  -4791.037      -4829.5742      38.537191      117.54564      296.06423      8118.6061      1.2380859      0.72951207   
      1900  -4790.1319     -4827.6623      37.530393      1868.8711      288.32945      8067.7373      1.2458923      0.72951207   
      2000  -4791.422      -4829.6878      38.265853      6726.1941      293.97966      8014.2102      1.2542136      0.72741979   
      2100  -4791.9922     -4829.3936      37.401419      6277.1999      287.3386       7967.5513      1.2615585      0.72741979   
      2200  -4791.9289     -4829.1687      37.239823      4600.9149      286.09713      7928.4059      1.2677872      0.72741979   
      2300  -4790.5547     -4828.6396      38.084908      10193.44       292.58954      7906.9567      1.2712263      0.72741979   
      2400  -4792.0336     -4829.467       37.433339      7409.0053      287.58383      7910.9948      1.2705775      0.72741979   
      2500  -4793.7263     -4831.3212      37.594928      2957.0821      288.82524      7938.9363      1.2661056      0.72741979   
      2600  -4793.7612     -4831.0544      37.293145      2692.3962      286.50678      7981.6467      1.2593306      0.72741979   
      2700  -4794.9446     -4831.5622      36.617593      6174.8286      281.31681      8029.8377      1.2517727      0.72741979   
      2800  -4792.9261     -4828.6416      35.715517      2952.7273      274.38656      8073.2749      1.2450377      0.72741979   
      2900  -4792.8478     -4829.1689      36.321066      2892.3671      279.03873      8103.8095      1.2403465      0.72741979   
      3000  -4794.2051     -4830.5007      36.295657      1552.5537      278.84352      8118.1522      1.2381551      0.76364403   
      3100  -4791.7406     -4828.4337      36.693143     -165.30256      281.89723      8115.2377      1.2385998      0.76364403   
      3200  -4790.9316     -4827.6985      36.766851      4231.3276      282.46349      8095.4523      1.2416269      0.76364403   
      3300  -4790.4391     -4829.3555      38.916473      889.577        298.97809      8068.2733      1.2458095      0.76364403   
      3400  -4790.3012     -4828.3362      38.03502       4890.6101      292.20628      8039.3327      1.2502943      0.76364403   
      3500  -4789.9571     -4827.9407      37.983563      8416.9925      291.81095      8007.7083      1.255232       0.76364403   
      3600  -4791.2048     -4828.8805      37.675666      2043.0188      289.44552      7980.5997      1.2594958      0.76364403   
      3700  -4791.6507     -4829.1547      37.503975      5158.3259      288.12649      7957.8122      1.2631024      0.76364403   
      3800  -4791.7537     -4829.4917      37.73803       7412.8647      289.92463      7946.3511      1.2649242      0.76364403   
      3900  -4792.6337     -4829.5108      36.877125      6051.6101      283.31068      7952.8199      1.2638953      0.76364403   
      4000  -4791.875      -4829.1019      37.226895      3238.9562      285.99781      7975.5267      1.2602969      0.68674903   
      4100  -4792.0238     -4829.9668      37.943076      2687.9812      291.49991      8011.7699      1.2545956      0.68674903   
      4200  -4790.931      -4828.6892      37.758202      2086.4892      290.07961      8055.7865      1.2477406      0.68674903   
      4300  -4789.5947     -4828.2033      38.608649     -1794.6061      296.61322      8102.9511      1.2404779      0.68674903   
      4400  -4789.9691     -4828.4449      38.475882      1673.7364      295.59322      8143.0068      1.2343759      0.68674903   
      4500  -4791.3245     -4827.827       36.502461      81.606294      280.4323       8169.5842      1.2303603      0.68674903   
      4600  -4791.4785     -4828.531       37.052509      1033.1026      284.65807      8174.1711      1.2296698      0.68674903   
      4700  -4792.4186     -4827.8722      35.453557      1401.7965      272.37403      8153.831       1.2327373      0.68674903   
      4800  -4790.8076     -4828.6706      37.862906     -265.75171      290.884        8106.8421      1.2398825      0.68674903   
      4900  -4790.9854     -4829.1147      38.129255      2016.3508      292.93024      8045.4912      1.2493372      0.68674903   
      5000  -4790.7585     -4828.4081      37.649596      3722.9166      289.24523      7979.309       1.2596995      0.68193373   
      5100  -4790.1019     -4829.0698      38.967945      6125.7316      299.37353      7921.9408      1.2688219      0.68193373   
      5200  -4790.9623     -4829.4692      38.506916      8329.6674      295.83165      7884.709       1.2748133      0.68193373   
      5300  -4790.0547     -4828.4281      38.373363      5029.5661      294.80562      7873.6715      1.2766003      0.68193373   
      5400  -4791.429      -4829.688       38.258923      7189.2038      293.92643      7891.9459      1.2736443      0.68193373   
      5500  -4791.3467     -4829.3703      38.023555      5218.6809      292.1182       7934.7053      1.2667807      0.68193373   
      5600  -4789.8881     -4828.4209      38.5328        7281.356       296.0305       7993.984       1.257387       0.68193373   
      5700  -4791.0321     -4827.8144      36.782282      3678.9692      282.58204      8063.9751      1.2464736      0.68193373   
      5800  -4789.5818     -4828.0695      38.487655      4637.6783      295.68367      8129.4264      1.236438       0.68193373   
      5900  -4791.2305     -4828.2569      37.026397      1307.7078      284.45747      8181.8422      1.2285169      0.68193373   
      6000  -4791.1113     -4828.1904      37.079113      4391.9012      284.86247      8212.7196      1.2238981      0.70121262   
      6100  -4790.2844     -4828.932       38.64757       6574.3085      296.91223      8214.9863      1.2235604      0.70121262   
      6200  -4789.8271     -4827.4702      37.643193      2653.8299      289.19604      8188.5777      1.2275064      0.70121262   
      6300  -4790.1659     -4827.7203      37.554397      4343.1697      288.51386      8138.5229      1.235056       0.70121262   
      6400  -4790.2891     -4828.1022      37.813113      3347.2619      290.50146      8071.1989      1.2453579      0.70121262   
      6500  -4791.0564     -4828.5848      37.528309      3676.2697      288.31344      8000.6452      1.2563401      0.70121262   
      6600  -4791.278      -4829.1036      37.825607      6803.0203      290.59745      7941.4789      1.2657002      0.70121262   
      6700  -4792.6434     -4830.5602      37.916786      4194.1266      291.29793      7905.9164      1.2713936      0.70121262   
      6800  -4793.7537     -4830.308       36.554376      7109.2221      280.83114      7897.4956      1.2727493      0.70121262   
      6900  -4792.9522     -4831.2439      38.291707      5074.6254      294.17829      7914.6219      1.2699952      0.70121262   
      7000  -4793.3615     -4829.3013      35.939788      6060.474       276.10954      7946.0756      1.264968       0.70154556   
      7100  -4793.8798     -4831.4127      37.532881      6991.4134      288.34857      7987.6127      1.25839        0.70154556   
      7200  -4794.4031     -4831.3823      36.979129      1228.2156      284.09433      8029.0451      1.2518963      0.70154556   
      7300  -4792.7602     -4830.0868      37.326548      4046.5975      286.7634       8058.2316      1.247362       0.70154556   
      7400  -4793.5386     -4830.9474      37.408792      3913.1556      287.39524      8076.686       1.2445119      0.70154556   
      7500  -4794.6381     -4830.5259      35.88779       4134.3048      275.71006      8082.612       1.2435994      0.70154556   
      7600  -4793.2458     -4830.1667      36.92093       3382.3898      283.64721      8078.6603      1.2442077      0.70154556   
      7700  -4792.0513     -4830.0601      38.008774      3836.5078      292.00464      8063.9238      1.2464815      0.70154556   
      7800  -4792.3834     -4829.9174      37.534014      6214.3082      288.35727      8044.6065      1.2494746      0.70154556   
      7900  -4791.2302     -4829.7854      38.55514       2213.9819      296.20213      8021.2773      1.2531086      0.70154556   
      8000  -4792.2755     -4830.1743      37.898786      5707.8732      291.15965      7996.2093      1.2570371      0.78375942   
      8100  -4791.8409     -4829.2665      37.425582      7669.7771      287.52423      7973.8822      1.2605568      0.78375942   
      8200  -4791.9264     -4829.7003      37.773937      4668.3838      290.20049      7965.55        1.2618754      0.78375942   
      8300  -4791.8449     -4828.1638      36.318912      4447.3953      279.02217      7969.721       1.261215       0.78375942   
      8400  -4793.2995     -4830.54        37.24054       4257.2534      286.10263      7992.5369      1.2576147      0.78375942   
      8500  -4792.8137     -4830.0118      37.198121      4758.8361      285.77675      8027.9359      1.2520692      0.78375942   
      8600  -4792.8319     -4829.9074      37.075545      2630.432       284.83505      8064.3292      1.2464188      0.78375942   
      8700  -4791.095      -4828.8494      37.75446       3506.5478      290.05085      8092.0315      1.2421518      0.78375942   
      8800  -4790.0067     -4827.635       37.628316      3981.9792      289.08175      8111.5165      1.239168       0.78375942   
      8900  -4789.9708     -4827.0634      37.092622      4983.407       284.96625      8122.9907      1.2374176      0.78375942   
      9000  -4789.3289     -4829.0283      39.699403      1673.7829      304.99299      8123.1734      1.2373898      0.78301058   
      9100  -4789.7211     -4826.9332      37.212106      3317.9256      285.88419      8112.9734      1.2389455      0.78301058   
      9200  -4788.7299     -4828.1513      39.421337      2790.0994      302.85674      8095.0397      1.2416902      0.78301058   
      9300  -4788.8484     -4827.6297      38.7813        3084.7         297.93961      8070.8182      1.2454167      0.78301058   
      9400  -4789.5272     -4827.0608      37.533663      3554.7887      288.35457      8041.3862      1.249975       0.78301058   
      9500  -4789.2993     -4828.8662      39.56686       6286.1991      303.97472      8013.1334      1.2543822      0.78301058   
      9600  -4790.2849     -4828.3424      38.057574      6018.1167      292.37955      7988.3116      1.2582799      0.78301058   
      9700  -4791.5938     -4829.5259      37.932161      7263.0945      291.41606      7972.0961      1.2608393      0.78301058   
      9800  -4790.0673     -4829.0111      38.943821      2186.1834      299.18819      7967.7038      1.2615343      0.78301058   
      9900  -4790.2961     -4828.7562      38.460164      5776.3652      295.47247      7982.1002      1.259259       0.78301058   
     10000  -4791.427      -4829.1039      37.676865      7318.3636      289.45473      8013.7176      1.2542907      0.72093549   
     10100  -4791.3013     -4826.7516      35.450331      5097.3483      272.34925      8058.5383      1.2473145      0.72093549   
     10200  -4790.6047     -4829.4377      38.832935     -1790.357       298.3363       8104.2317      1.2402819      0.72093549   
     10300  -4790.5347     -4828.3791      37.844431     -240.82364      290.74206      8138.4701      1.235064       0.72093549   
     10400  -4791.4998     -4828.7395      37.239687      945.02514      286.09608      8151.431       1.2331003      0.72093549   
     10500  -4792.189      -4829.7502      37.56115      -992.76441      288.56574      8139.2123      1.2349514      0.72093549   
     10600  -4792.9748     -4828.1592      35.18436      -211.63483      270.30591      8102.2012      1.2405927      0.72093549   
     10700  -4793.0097     -4829.5374      36.527672      1347.549       280.62599      8050.3326      1.2485859      0.72093549   
     10800  -4794.0369     -4830.9437      36.906833      4685.9066      283.53892      7994.5149      1.2573035      0.72093549   
     10900  -4792.7059     -4829.9819      37.276056      4972.9254      286.37549      7942.4973      1.2655379      0.72093549   
     11000  -4792.4924     -4828.8507      36.358253      5114.291       279.32442      7902.0935      1.2720087      0.65893225   
     11100  -4792.2736     -4830.6455      38.371874      7855.6641      294.79417      7882.7925      1.2751232      0.65893225   
     11200  -4791.3505     -4830.3202      38.969686      8990.5371      299.38691      7888.9667      1.2741252      0.65893225   
     11300  -4790.048      -4828.8574      38.809371      7219.586       298.15527      7919.2463      1.2692536      0.65893225   
     11400  -4790.4189     -4828.4202      38.001271      7766.5357      291.94699      7966.7236      1.2616895      0.65893225   
     11500  -4790.6168     -4828.1987      37.58198       4775.7804      288.72577      8020.4164      1.2532431      0.65893225   
     11600  -4791.3559     -4829.4418      38.085898      21.218773      292.59715      8068.6935      1.2457446      0.65893225   
     11700  -4789.6293     -4828.3         38.67071      -257.60415      297.09         8104.4725      1.240245       0.65893225   
     11800  -4788.8378     -4827.4384      38.600588      1810.0245      296.55129      8127.0782      1.2367952      0.65893225   
     11900  -4788.5194     -4827.9564      39.437069      571.8251       302.9776       8130.6929      1.2362454      0.65893225   
     12000  -4788.3593     -4826.2918      37.932491      3767.2854      291.41859      8115.8574      1.2385052      0.79111219   
     12100  -4789.522      -4828.3343      38.812365      3894.7667      298.17828      8089.9179      1.2424764      0.79111219   
     12200  -4788.5666     -4827.0936      38.527043      2394.7292      295.98627      8059.7812      1.2471221      0.79111219   
     12300  -4789.1803     -4827.5568      38.376415      3724.9586      294.82906      8030.5486      1.2516619      0.79111219   
     12400  -4789.4385     -4827.9448      38.506226      6407.7448      295.82635      8006.292       1.2554541      0.79111219   
     12500  -4789.855      -4828.6119      38.756839      7448.2467      297.75169      7988.8259      1.2581989      0.79111219   
     12600  -4791.8622     -4827.8552      35.993069      1325.432       276.51887      7985.3008      1.2587543      0.79111219   
     12700  -4792.1672     -4828.8615      36.694309      2085.0075      281.90618      7991.0203      1.2578534      0.79111219   
     12800  -4792.7835     -4829.0695      36.286067      2972.5958      278.76984      7997.4638      1.2568399      0.79111219   
     12900  -4791.5494     -4829.4894      37.939934      4661.7431      291.47577      8005.9298      1.2555109      0.79111219   
     13000  -4791.9802     -4829.8488      37.868552      5499.1056      290.92737      8015.108       1.2540731      0.74451959   
     13100  -4790.1649     -4827.7413      37.576335      4536.0639      288.6824       8023.519       1.2527585      0.74451959   
     13200  -4791.3899     -4829.3034      37.913535      2169.8018      291.27296      8030.3551      1.2516921      0.74451959   
     13300  -4790.7139     -4828.7754      38.061512      1151.2621      292.4098       8033.8737      1.2511438      0.74451959   
     13400  -4791.7701     -4830.0064      38.236295      380.16262      293.75258      8034.4414      1.2510555      0.74451959   
     13500  -4792.8049     -4828.2482      35.443314      4878.4561      272.29534      8024.0702      1.2526725      0.74451959   
     13600  -4793.1873     -4830.7531      37.565848      3777.8817      288.60184      8006.3802      1.2554402      0.74451959   
     13700  -4793.184      -4830.3912      37.207221      553.04344      285.84666      7983.1422      1.2590947      0.74451959   
     13800  -4792.2633     -4829.3559      37.092574      4585.9022      284.96588      7960.4569      1.2626828      0.74451959   
     13900  -4791.337      -4829.7292      38.392187      5171.9201      294.95024      7944.3523      1.2652424      0.74451959   
     14000  -4792.5886     -4829.2275      36.638934      5695.3268      281.48076      7939.7898      1.2659695      0.73018167   
     14100  -4792.0454     -4829.965       37.919615      5730.331       291.31967      7948.7954      1.2645352      0.73018167   
     14200  -4790.9984     -4829.4355      38.437137      4603.6994      295.29557      7972.1332      1.2608334      0.73018167   
     14300  -4791.9904     -4829.3097      37.319293      4637.2421      286.70766      8006.0479      1.2554923      0.73018167   
     14400  -4791.6655     -4829.3654      37.699895      969.20563      289.63166      8042.6976      1.2497712      0.73018167   
     14500  -4790.5902     -4828.8418      38.251628      152.58439      293.87038      8078.2256      1.2442747      0.73018167   
     14600  -4790.5504     -4826.8858      36.335348      2691.8216      279.14844      8107.144       1.2398363      0.73018167   
     14700  -4790.1112     -4827.3621      37.250937      2853.3389      286.18251      8126.0121      1.2369575      0.73018167   
     14800  -4789.6606     -4828.3083      38.64779      -144.64997      296.91392      8130.2086      1.236319       0.73018167   
     14900  -4791.5602     -4828.6822      37.122027      5307.3308      285.19215      8117.9573      1.2381848      0.73018167   
     15000  -4791.9143     -4828.3717      36.457393      3956.8239      280.08606      8092.4426      1.2420887      0.74871302   
     15100  -4791.0192     -4827.8237      36.804436      6275.4044      282.75224      8053.7891      1.24805        0.74871302   
     15200  -4791.641      -4829.949       38.307993      5102.602       294.30341      8012.0278      1.2545553      0.74871302   
     15300  -4789.8411     -4828.8831      39.042064      1771.7991      299.94295      7969.2396      1.2612912      0.74871302   
     15400  -4789.5228     -4828.1717      38.648905      4024.2275      296.92249      7933.1523      1.2670287      0.74871302   
     15500  -4790.2018     -4828.3359      38.134019      7564.7728      292.96684      7916.0383      1.2697679      0.74871302   
     15600  -4790.0153     -4828.4344      38.419109      5216.917       295.15706      7923.169       1.2686252      0.74871302   
     15700  -4789.1862     -4827.7628      38.576626      6589.6482      296.3672       7949.4757      1.264427       0.74871302   
     15800  -4788.661      -4828.278       39.617023      5337.1439      304.36011      7989.4668      1.2580979      0.74871302   
     15900  -4789.6434     -4828.1125      38.469088      8104.0936      295.54103      8039.7283      1.2502328      0.74871302   
     16000  -4790.2968     -4829.3636      39.066794      1000.1598      300.13294      8088.6755      1.2426672      0.70733454   
     16100  -4791.4267     -4828.026       36.599234     -258.08171      281.17577      8127.5331      1.236726       0.70733454   
     16200  -4792.9073     -4829.6299      36.722574     -29.664033      282.12333      8147.8874      1.2336365      0.70733454   
     16300  -4792.0809     -4828.3771      36.296227     -121.29009      278.8479       8139.1757      1.234957       0.70733454   
     16400  -4791.0489     -4828.2221      37.173239      6089.2317      285.5856       8105.9489      1.2400191      0.70733454   
     16500  -4790.7632     -4828.4989      37.735733      4008.0914      289.90699      8059.5771      1.2471537      0.70733454   
     16600  -4792.802      -4829.2612      36.459213      4691.9242      280.10004      8009.2351      1.2549927      0.70733454   
     16700  -4793.7089     -4829.4346      35.72575       4219.3977      274.46517      7963.3792      1.2622194      0.70733454   
     16800  -4792.8689     -4830.8354      37.966567      4375.4114      291.68038      7930.6573      1.2674273      0.70733454   
     16900  -4791.1886     -4829.0929      37.904298      4604.8534      291.202        7914.8909      1.269952       0.70733454   
     17000  -4790.7047     -4829.2517      38.547005      9144.1155      296.13963      7919.1061      1.2692761      0.74837294   
     17100  -4792.2714     -4829.1806      36.909244      8422.4803      283.55743      7947.2211      1.2647857      0.74837294   
     17200  -4791.8057     -4828.8349      37.029197      4864.3623      284.47898      7990.8979      1.2578726      0.74837294   
     17300  -4792.4002     -4829.9698      37.569552      3157.5892      288.63029      8036.3773      1.2507541      0.74837294   
     17400  -4791.2517     -4828.7957      37.543957      2723.3125      288.43366      8073.798       1.244957       0.74837294   
     17500  -4791.3081     -4827.8183      36.510194     -63.316145      280.49171      8099.9249      1.2409413      0.74837294   
     17600  -4790.1854     -4827.6142      37.428827      1762.2669      287.54917      8112.2064      1.2390626      0.74837294   
     17700  -4790.4917     -4828.7568      38.265051      2653.4409      293.9735       8111.6383      1.2391494      0.74837294   
     17800  -4789.9285     -4828.3883      38.459827      4172.0675      295.46988      8096.1938      1.2415132      0.74837294   
     17900  -4790.4491     -4828.7813      38.332203      3568.557       294.4894       8067.8289      1.2458781      0.74837294   
     18000  -4791.7155     -4829.8588      38.143212      1229.3206      293.03746      8034.7504      1.2510073      0.71572874   
     18100  -4790.7198     -4827.5641      36.844377      3764.0167      283.05909      7997.8612      1.2567775      0.71572874   
     18200  -4791.6292     -4827.456       35.826741      5118.6207      275.24105      7967.1751      1.261618       0.71572874   
     18300  -4792.0022     -4830.0694      38.067188      4327.892       292.45341      7952.081       1.2640127      0.71572874   
     18400  -4792.4115     -4829.3957      36.984227      6484.8444      284.13349      7951.0349      1.264179       0.71572874   
     18500  -4792.1981     -4830.2863      38.088161      6021.2255      292.61454      7965.4928      1.2618845      0.71572874   
     18600  -4793.0831     -4831.2502      38.167063      4713.8453      293.22071      7990.9376      1.2578664      0.71572874   
     18700  -4791.9342     -4830.0311      38.096919      3488.8839      292.68182      8023.5437      1.2527547      0.71572874   
     18800  -4792.1791     -4828.9432      36.764097      4295.2052      282.44234      8061.7902      1.2468114      0.71572874   
     18900  -4791.7398     -4828.6972      36.957347      4954.8906      283.92699      8096.214       1.2415101      0.71572874   
     19000  -4792.7555     -4830.1644      37.408886     -273.09448      287.39596      8116.3786      1.2384257      0.71156651   
     19100  -4793.109      -4829.078       35.969081      2198.162       276.33458      8114.8296      1.2386621      0.71156651   
     19200  -4791.9449     -4829.6007      37.655821      2696.6926      289.29305      8090.1017      1.2424481      0.71156651   
     19300  -4791.9818     -4829.7977      37.815884      3529.3295      290.52275      8052.5607      1.2482404      0.71156651   
     19400  -4791.4881     -4829.0423      37.554128      5878.5784      288.5118       8010.9095      1.2547304      0.71156651   
     19500  -4791.9247     -4828.8699      36.945283      5145.2511      283.83431      7967.1041      1.2616293      0.71156651   
     19600  -4791.9646     -4829.9906      38.026004      6796.404       292.13701      7928.699       1.2677404      0.71156651   
     19700  -4791.9064     -4829.8088      37.902426      5209.0264      291.18761      7900.0594      1.2723362      0.71156651   
     19800  -4789.6197     -4827.9688      38.349105      5121.9182      294.61925      7889.6168      1.2740203      0.71156651   
     19900  -4790.1671     -4827.878       37.7109        5710.4457      289.71621      7911.4794      1.2704996      0.71156651   
     20000  -4789.5008     -4828.6034      39.102536      1952.9788      300.40753      7964.6049      1.2620251      0.73551013   
     20100  -4790.3401     -4829.4379      39.0978        1106.2272      300.37114      8037.9719      1.250506       0.73551013   
     20200  -4790.3892     -4827.8183      37.429031      3259.2623      287.55073      8116.022       1.2384801      0.73551013   
     20300  -4791.0332     -4828.7806      37.747393      641.96774      289.99657      8182.7213      1.2283849      0.73551013   
     20400  -4791.2033     -4828.7569      37.553564      1425.7691      288.50746      8224.4359      1.2221545      0.73551013   
     20500  -4793.4262     -4828.1654      34.739222      4188.8906      266.88611      8232.6203      1.2209396      0.73551013   
     20600  -4793.1344     -4829.476       36.341566      2482.7899      279.19622      8202.0882      1.2254845      0.73551013   
     20700  -4792.6171     -4830.0828      37.465643      3661.4127      287.83201      8135.2332      1.2355554      0.73551013   
     20800  -4792.3581     -4829.8212      37.463036      4763.3606      287.81198      8042.1394      1.2498579      0.73551013   
     20900  -4792.7054     -4829.5817      36.876256      5824.7659      283.304        7944.3835      1.2652375      0.73551013   
     21000  -4792.7058     -4829.3713      36.665568      5767.3735      281.68538      7867.0456      1.2776755      0.71467091   
     21100  -4793.1712     -4830.6291      37.457903      7389.2185      287.77254      7828.0068      1.2840474      0.71467091   
     21200  -4793.6064     -4830.0071      36.400719      8305.1168      279.65067      7828.5992      1.2839502      0.71467091   
     21300  -4793.4578     -4829.7513      36.293445      6531.0713      278.82652      7861.5249      1.2785728      0.71467091   
     21400  -4793.2864     -4831.2401      37.953731      2030.2555      291.58177      7916.6203      1.2696746      0.71467091   
     21500  -4792.7298     -4828.5418      35.812062      196.34981      275.12827      7984.0923      1.2589448      0.71467091   
     21600  -4792.1834     -4828.7967      36.613233      2844.3254      281.28331      8052.46        1.248256       0.71467091   
     21700  -4792.9891     -4828.6581      35.669081      5169.5551      274.02981      8111.5387      1.2391646      0.71467091   
     21800  -4794.0196     -4829.7372      35.717513      3989.6475      274.40189      8152.5481      1.2329313      0.71467091   
     21900  -4792.7024     -4830.1983      37.495898      522.65791      288.06444      8165.1577      1.2310273      0.71467091   
     22000  -4792.6259     -4828.8914      36.265535     -159.71626      278.6121       8151.3371      1.2331145      0.70786275   
     22100  -4791.8424     -4827.4181      35.575795      2784.7245      273.31313      8117.3077      1.2382839      0.70786275   
     22200  -4790.9589     -4829.443       38.484105      1934.1471      295.6564       8073.6081      1.2449863      0.70786275   
     22300  -4793.3505     -4829.8399      36.489352      391.33053      280.33159      8024.2169      1.2526495      0.70786275   
     22400  -4793.0477     -4830.5565      37.508866      6646.7809      288.16407      7976.3549      1.2601661      0.70786275   
     22500  -4791.5671     -4829.8219      38.254764      7103.693       293.89447      7940.5475      1.2658487      0.70786275   
     22600  -4791.2771     -4828.7925      37.515392      11601.211      288.2142       7923.0368      1.2686463      0.70786275   
     22700  -4790.6338     -4828.8981      38.264315      7107.386       293.96785      7929.0157      1.2676897      0.70786275   
     22800  -4790.2992     -4828.7284      38.429167      2512.2031      295.23434      7960.1216      1.262736       0.70786275   
     22900  -4790.9661     -4828.6214      37.655288      5120.799       289.28896      8004.4496      1.255743       0.70786275   
     23000  -4791.5046     -4829.0407      37.536113      4413.8786      288.37339      8055.0712      1.2478514      0.72708582   
     23100  -4790.0082     -4828.6467      38.638473     -1340.8956      296.84234      8104.6978      1.2402105      0.72708582   
     23200  -4791.0999     -4827.9309      36.831001     -49.097172      282.95633      8142.7141      1.2344203      0.72708582   
     23300  -4791.5774     -4828.46        36.882605      123.77798      283.35278      8163.8795      1.23122        0.72708582   
     23400  -4791.7803     -4829.1326      37.352284      498.06447      286.96112      8165.5904      1.230962       0.72708582   
     23500  -4791.6038     -4828.0196      36.415814      1663.7105      279.76663      8147.0544      1.2337627      0.72708582   
     23600  -4790.2896     -4828.9611      38.671517      1781.8129      297.0962       8110.1099      1.2393829      0.72708582   
     23700  -4789.8834     -4828.2873      38.403891      3437.2891      295.04015      8058.7874      1.247276       0.72708582   
     23800  -4791.2042     -4828.7283      37.524098      5808.4651      288.28109      8007.7372      1.2552275      0.72708582   
     23900  -4791.8079     -4829.7325      37.924541      5847.4846      291.35751      7964.4649      1.2620473      0.72708582   
     24000  -4791.2997     -4828.5609      37.261206      6494.9658      286.26141      7935.9796      1.2665773      0.67571456   
     24100  -4790.2559     -4827.5845      37.328554      8965.335       286.77881      7930.4955      1.2674532      0.67571456   
     24200  -4788.5376     -4827.4749      38.937306      6274.8636      299.13814      7950.8772      1.2642041      0.67571456   
     24300  -4788.8454     -4826.5342      37.688859      5367.9048      289.54688      7991.6668      1.2577516      0.67571456   
     24400  -4788.7439     -4828.5065      39.762547      4588.3526      305.4781       8043.8775      1.2495879      0.67571456   
     24500  -4787.9126     -4824.969       37.056376      6069.2034      284.68779      8100.1401      1.2409084      0.67571456   
     24600  -4788.2111     -4826.6571      38.445993      3225.7777      295.3636       8150.6554      1.2332176      0.67571456   
     24700  -4789.9344     -4827.5235      37.589145      5964.4487      288.78082      8183.9199      1.228205       0.67571456   
     24800  -4789.8029     -4827.9267      38.123804      6122.0215      292.88837      8192.1124      1.2269768      0.67571456   
     24900  -4789.7323     -4827.7378      38.005525      4873.1125      291.97968      8176.0103      1.2293932      0.67571456   
     25000  -4790.4398     -4827.95        37.51014       6039.2349      288.17385      8140.1105      1.2348151      0.73591112   
     25100  -4788.6456     -4828.5584      39.912836      6081.8523      306.6327       8091.6401      1.2422119      0.73591112   
     25200  -4789.0586     -4826.1289      37.070292      5359.1226      284.7947       8039.1666      1.2503201      0.73591112   
     25300  -4789.7354     -4827.8148      38.079402      1572.9785      292.54724      7990.4718      1.2579397      0.73591112   
     25400  -4789.7799     -4829.3244      39.544452      6253.2301      303.80258      7949.4657      1.2644286      0.73591112   
     25500  -4790.6352     -4829.4201      38.784833      5454.6732      297.96676      7925.1826      1.2683028      0.73591112   
     25600  -4791.304      -4829.1571      37.8531        3316.775       290.80867      7923.6383      1.26855        0.73591112   
     25700  -4790.8478     -4828.8975      38.049672      4943.5874      292.31884      7942.4931      1.2655386      0.73591112   
     25800  -4791.7429     -4828.8672      37.12433       3018.614       285.20984      7977.3913      1.2600023      0.73591112   
     25900  -4792.3924     -4829.245       36.852623      3831.9324      283.12245      8024.0135      1.2526813      0.73591112   
     26000  -4791.6733     -4828.6933      37.020009      2527.4149      284.40839      8069.1452      1.2456749      0.74364127   
     26100  -4791.5203     -4828.9748      37.454471      1457.1484      287.74617      8101.9351      1.2406334      0.74364127   
     26200  -4791.8733     -4828.3154      36.442155      2451.0217      279.96899      8122.0931      1.2375544      0.74364127   
     26300  -4791.9261     -4829.7718      37.845607      2822.8422      290.7511       8127.6161      1.2367134      0.74364127   
     26400  -4791.6034     -4829.5488      37.94536       1903.7133      291.51746      8113.6141      1.2388476      0.74364127   
     26500  -4790.7292     -4828.6647      37.93551       1586.5903      291.44179      8085.5569      1.2431465      0.74364127   
     26600  -4790.6764     -4828.3368      37.660346      1033.0508      289.32782      8051.2919      1.2484371      0.74364127   
     26700  -4790.8172     -4828.6228      37.805607      4218.9661      290.4438       8016.1638      1.253908       0.74364127   
     26800  -4789.3819     -4828.9068      39.524895      5787.0635      303.65233      7985.5602      1.2587134      0.74364127   
     26900  -4791.2972     -4827.4374      36.140198      6309.6558      277.64919      7967.3386      1.2615921      0.74364127   
     27000  -4791.1912     -4829.6899      38.498666      3015.5515      295.76827      7962.9139      1.2622932      0.79882288   
     27100  -4789.7794     -4828.5347      38.755312      4685.1205      297.73996      7975.2686      1.2603377      0.79882288   
     27200  -4789.4467     -4828.515       39.068334      6051.0426      300.14477      8005.0641      1.2556466      0.79882288   
     27300  -4788.7925     -4826.5073      37.714772      5421.6772      289.74596      8043.766       1.2496052      0.79882288   
     27400  -4788.1522     -4826.8112      38.65906       3884.2519      297.0005       8089.822       1.2424911      0.79882288   
     27500  -4788.7444     -4828.3452      39.600819      5695.3496      304.23562      8138.4263      1.2350707      0.79882288   
     27600  -4789.3911     -4827.6718      38.280705      3345.4317      294.09376      8177.3557      1.229191       0.79882288   
     27700  -4788.2925     -4827.0234      38.730914      1392.662       297.55252      8196.6587      1.2262962      0.79882288   
     27800  -4789.1101     -4826.4223      37.312204     -2136.5819      286.6532       8192.5927      1.2269049      0.79882288   
     27900  -4788.3238     -4826.3953      38.071529      611.47752      292.48676      8165.0547      1.2310428      0.79882288   
     28000  -4788.4971     -4826.7107      38.213658      4525.9083      293.57867      8115.3566      1.2385816      0.69216149   
     28100  -4788.5223     -4827.3912      38.868928      7427.2086      298.61282      8050.7218      1.2485255      0.69216149   
     28200  -4788.1838     -4826.356       38.172145      2015.8661      293.25974      7985.0775      1.2587895      0.69216149   
     28300  -4790.7745     -4828.0204      37.24593       6799.519       286.14405      7934.4915      1.2668149      0.69216149   
     28400  -4791.7734     -4829.0429      37.269487      7744.0492      286.32502      7904.8153      1.2715707      0.69216149   
     28500  -4791.4653     -4829.8923      38.426978      4575.5979      295.21751      7900.6021      1.2722488      0.69216149   
     28600  -4791.1322     -4828.6486      37.516383      4589.9506      288.22182      7921.5965      1.268877       0.69216149   
     28700  -4789.262      -4827.7398      38.4778        4106.6671      295.60796      7964.9742      1.2619666      0.69216149   
     28800  -4790.6979     -4828.0625      37.364611      8162.5195      287.05582      8027.1131      1.2521976      0.69216149   
     28900  -4790.947      -4829.8038      38.856856      3964.8747      298.52008      8095.726       1.241585       0.69216149   
     29000  -4790.7676     -4828.124       37.356491      1467.3723      286.99344      8158.3147      1.2320598      0.71462983   
     29100  -4790.0964     -4826.6663      36.569877     -1281.7122      280.95023      8203.6915      1.225245       0.71462983   
     29200  -4787.7367     -4825.4868      37.750162      3705.4421      290.01784      8226.1637      1.2218978      0.71462983   
     29300  -4789.1394     -4828.0453      38.905905      2757.925       298.8969       8225.5682      1.2219863      0.71462983   
     29400  -4788.8132     -4826.4276      37.614397      2314.5527      288.97481      8200.2555      1.2257583      0.71462983   
     29500  -4789.0674     -4829.3652      40.297823     -113.69441      309.59039      8151.6792      1.2330627      0.71462983   
     29600  -4789.8295     -4827.4121      37.582628      3038.3892      288.73075      8087.9233      1.2427828      0.71462983   
     29700  -4790.8171     -4829.2422      38.425127      4324.372       295.20329      8023.706       1.2527293      0.71462983   
     29800  -4791.3873     -4830.1035      38.716201      5703.5704      297.43949      7969.9451      1.2611795      0.71462983   
     29900  -4791.6576     -4827.6718      36.01427       3449.0629      276.68175      7938.2063      1.266222       0.71462983   
     30000  -4791.2771     -4828.7302      37.453138      6886.2042      287.73594      7931.8142      1.2672424      0.74996198   
     30100  -4789.6418     -4828.2552      38.613398      5685.3484      296.6497       7947.0956      1.2648057      0.74996198   
     30200  -4790.0771     -4828.5333      38.456191      6973.8871      295.44194      7981.2821      1.2593881      0.74996198   
     30300  -4790.5311     -4829.1598      38.628666      4008.1142      296.76699      8027.6284      1.2521172      0.74996198   
     30400  -4790.7491     -4828.394       37.644836      2559.6821      289.20866      8075.5047      1.2446939      0.74996198   
     30500  -4791.1618     -4827.5627      36.400901      2402.5071      279.65206      8116.5167      1.2384046      0.74996198   
     30600  -4790.9127     -4828.5543      37.641599      2164.8158      289.18379      8145.2186      1.2340407      0.74996198   
     30700  -4790.2602     -4827.2334      36.973201      3158.8353      284.04879      8155.3691      1.2325048      0.74996198   
     30800  -4790.4814     -4828.7021      38.220695      1548.6316      293.63274      8144.9076      1.2340879      0.74996198   
     30900  -4790.126      -4828.6691      38.543088      2238.8183      296.10954      8116.9351      1.2383408      0.74996198   
     31000  -4790.4512     -4828.429       37.977797      6728.957       291.76665      8075.2429      1.2447343      0.84856167   
     31100  -4791.1702     -4828.5195      37.349278      4595.7931      286.93803      8028.4686      1.2519862      0.84856167   
     31200  -4790.4981     -4828.4369      37.938795      5294.7422      291.46702      7986.3701      1.2585858      0.84856167   
     31300  -4790.173      -4829.5214      39.348428      5333.3224      302.29661      7960.834       1.2626229      0.84856167   
     31400  -4789.6964     -4828.4265      38.73011       5796.3058      297.54635      7952.0365      1.2640198      0.84856167   
     31500  -4790.1931     -4827.3943      37.201175      3159.9683      285.80021      7960.6432      1.2626532      0.84856167   
     31600  -4790.7411     -4828.6293      37.888179      8619.729       291.07816      7985.1808      1.2587732      0.84856167   
     31700  -4789.286      -4829.694       40.407974      4939.6831      310.43663      8021.546       1.2530666      0.84856167   
     31800  -4789.0154     -4826.1389      37.123491      6087.5986      285.2034       8063.6307      1.2465268      0.84856167   
     31900  -4789.7882     -4829.6052      39.817016      3345.6902      305.89656      8107.8148      1.2397338      0.84856167   
     32000  -4790.0216     -4827.9881      37.966562      2376.5591      291.68034      8143.7437      1.2342642      0.75689953   
     32100  -4790.2571     -4826.7626      36.505524      4370.1622      280.45583      8163.197       1.2313229      0.75689953   
     32200  -4790.6418     -4827.3813      36.739503     -204.20132      282.25339      8160.4461      1.231738       0.75689953   
     32300  -4790.0988     -4827.8043      37.705504      2931.1045      289.67475      8136.2689      1.2353982      0.75689953   
     32400  -4790.0583     -4829.9287      39.870452      2377.119       306.30709      8098.5009      1.2411595      0.75689953   
     32500  -4788.5846     -4827.333       38.748372      2480.4875      297.68664      8054.7938      1.2478944      0.75689953   
     32600  -4788.9538     -4828.7189      39.765146      6722.6019      305.49807      8015.7493      1.2539728      0.75689953   
     32700  -4788.8242     -4828.131       39.306817      4090.9021      301.97693      7982.485       1.2591983      0.75689953   
     32800  -4789.3902     -4827.3415      37.951252      4439.0237      291.56273      7959.4536      1.2628419      0.75689953   
     32900  -4788.7965     -4828.1822      39.385709      4202.9537      302.58302      7955.7204      1.2634345      0.75689953   
     33000  -4789.3158     -4829.8287      40.512938      2576.3778      311.24303      7971.3911      1.2609508      0.7583223    
     33100  -4789.7547     -4827.5307      37.775929      5084.3588      290.2158       8005.057       1.2556477      0.7583223    
     33200  -4789.2381     -4828.718       39.47994       2126.0623      303.30696      8051.3967      1.2484209      0.7583223    
     33300  -4791.0521     -4828.139       37.086994      3449.6875      284.92301      8091.6813      1.2422056      0.7583223    
     33400  -4791.9392     -4830.2509      38.311696     -1636.1713      294.33186      8125.9707      1.2369638      0.7583223    
     33500  -4790.4397     -4827.8703      37.430657     -976.05873      287.56322      8142.4968      1.2344533      0.7583223    
     33600  -4789.6015     -4827.982       38.380529      1020.3457      294.86067      8141.6499      1.2345817      0.7583223    
     33700  -4788.0471     -4826.7418      38.694631      2563.7529      297.27378      8127.5863      1.2367179      0.7583223    
     33800  -4790.4965     -4829.1317      38.635233      2169.2117      296.81745      8103.4027      1.2404088      0.7583223    
     33900  -4790.6987     -4828.6579      37.959249      3679.2909      291.62416      8066.8801      1.2460247      0.7583223    
     34000  -4792.2139     -4831.1207      38.906734      4819.5633      298.90327      8027.1758      1.2521878      0.79895275   
     34100  -4791.2031     -4828.7077      37.504573      2620.5522      288.13108      7987.1044      1.25847        0.79895275   
     34200  -4791.8575     -4829.7718      37.914264      637.54664      291.27856      7953.5581      1.263778       0.79895275   
     34300  -4791.2976     -4830.0013      38.703703      4076.2939      297.34348      7934.5333      1.2668082      0.79895275   
     34400  -4790.2365     -4828.8811      38.644611      7859.8309      296.88949      7934.6138      1.2667953      0.79895275   
     34500  -4791.9437     -4829.5337      37.590041      8550.7961      288.7877       7950.3007      1.2642958      0.79895275   
     34600  -4792.0115     -4829.2337      37.222236      2572.183       285.96202      7975.2964      1.2603333      0.79895275   
     34700  -4792.154      -4828.6931      36.539036      4438.4273      280.71329      8008.5586      1.2550987      0.79895275   
     34800  -4791.1064     -4827.3752      36.268793      283.63869      278.63713      8048.3577      1.2488923      0.79895275   
     34900  -4792.0114     -4829.3142      37.302811      1105.483       286.58104      8086.3288      1.2430278      0.79895275   
     35000  -4792.5689     -4829.3063      36.73743       924.899        282.23746      8113.4011      1.2388802      0.76843873   
     35100  -4792.1778     -4829.7543      37.576528      3962.1298      288.68388      8123.4082      1.237354       0.76843873   
     35200  -4792.7313     -4829.5116      36.780334      1370.8244      282.56708      8114.0549      1.2387803      0.76843873   
     35300  -4792.3354     -4830.0036      37.668176     -1147.8838      289.38798      8083.5649      1.2434528      0.76843873   
     35400  -4793.5909     -4830.6044      37.013482     -1121.2799      284.35825      8038.3986      1.2504396      0.76843873   
     35500  -4791.3107     -4828.6886      37.377894      4543.3221      287.15787      7986.4101      1.2585795      0.76843873   
     35600  -4790.9949     -4829.7795      38.784564      3853.5871      297.96469      7943.671       1.265351       0.76843873   
     35700  -4792.1676     -4828.8527      36.685117      5727.2956      281.83557      7918.809       1.2693237      0.76843873   
     35800  -4791.8878     -4829.4359      37.54814       5031.2455      288.46579      7914.0561      1.270086       0.76843873   
     35900  -4791.9891     -4830.4629      38.473742      3747.034       295.57678      7929.5762      1.2676001      0.76843873   
     36000  -4793.1779     -4829.7099      36.532008      4664.2562      280.6593       7959.814       1.2627847      0.75455799   
     36100  -4791.5945     -4829.1012      37.506719      2881.6953      288.14757      7996.8309      1.2569394      0.75455799   
     36200  -4790.6998     -4828.825       38.125182      4651.4863      292.89895      8035.202       1.250937       0.75455799   
     36300  -4791.6266     -4827.8896      36.262943      5602.6141      278.59219      8071.0948      1.245374       0.75455799   
     36400  -4790.6233     -4828.7533      38.130058      5692.2868      292.93641      8102.338       1.2405717      0.75455799   
     36500  -4790.2181     -4828.0656      37.84748       2330.4174      290.76549      8125.0028      1.2371112      0.75455799   
     36600  -4791.614      -4830.0541      38.440096     -93.91975       295.31829      8130.8424      1.2362227      0.75455799   
     36700  -4791.8395     -4828.0055      36.16602       2913.2845      277.84757      8119.5465      1.2379425      0.75455799   
     36800  -4791.9103     -4830.0176      38.107279      4100.1699      292.76141      8094.7682      1.2417319      0.75455799   
     36900  -4791.4815     -4829.3422      37.860658      1502.7578      290.86673      8055.5882      1.2477713      0.75455799   
     37000  -4791.2874     -4828.4884      37.201069      3835.4889      285.7994       8012.5565      1.2544725      0.71752838   
     37100  -4792.3822     -4827.6006      35.218399      7346.1504      270.56742      7977.2273      1.2600282      0.71752838   
     37200  -4792.1445     -4829.4909      37.346448      6814.1695      286.91628      7956.0835      1.2633768      0.71752838   
     37300  -4792.3238     -4829.8033      37.479492      6736.2923      287.9384       7954.3321      1.263655       0.71752838   
     37400  -4790.4754     -4829.9358      39.460405      3929.2413      303.15688      7971.996       1.2608551      0.71752838   
     37500  -4789.8314     -4827.7757      37.944243      6834.8375      291.50888      8003.0801      1.2559579      0.71752838   
     37600  -4789.2753     -4828.0774      38.802182      3907.1637      298.10004      8043.8003      1.2495999      0.71752838   
     37700  -4790.2636     -4829.5827      39.319112     -1284.8242      302.07139      8083.0765      1.243528       0.71752838   
     37800  -4789.5646     -4828.0707      38.506056      2655.6313      295.82504      8108.5356      1.2396235      0.71752838   
     37900  -4789.7836     -4828.2465      38.462883      3597.9717      295.49336      8121.5188      1.2376419      0.71752838   
     38000  -4790.3422     -4826.3978      36.055558      4152.2867      276.99894      8121.3344      1.23767        0.81642513   
     38100  -4790.7598     -4827.186       36.426195      2606.5334      279.84638      8107.2043      1.2398271      0.81642513   
     38200  -4790.5729     -4828.929       38.35617       4769.5484      294.67353      8082.5925      1.2436024      0.81642513   
     38300  -4789.8722     -4828.0538      38.181619      1167.4506      293.33253      8050.6302      1.2485397      0.81642513   
     38400  -4790.9984     -4828.3686      37.370217      4642.1454      287.09889      8017.6962      1.2536683      0.81642513   
     38500  -4792.205      -4830.0709      37.865926      2960.1199      290.9072       7986.8645      1.2585078      0.81642513   
     38600  -4791.9104     -4829.1216      37.211267      5437.9205      285.87775      7962.8016      1.2623109      0.81642513   
     38700  -4791.6255     -4829.0348      37.409297      6273.2242      287.39912      7954.8475      1.2635732      0.81642513   
     38800  -4792.4245     -4829.0082      36.583617      6794.0634      281.05579      7961.0865      1.2625829      0.81642513   
     38900  -4790.7656     -4828.3632      37.597615      1448.6629      288.84589      7978.9504      1.2597561      0.81642513   
     39000  -4789.7556     -4828.1568      38.401192      1060.1953      295.01941      8011.5424      1.2546313      0.73103548   
     39100  -4790.214      -4828.9625      38.748478      6005.4722      297.68746      8053.9807      1.2480203      0.73103548   
     39200  -4790.9462     -4830.6486      39.702461      6698.1801      305.01649      8100.5992      1.240838       0.73103548   
     39300  -4790.7904     -4828.3975      37.607111      6611.4906      288.91884      8142.3782      1.2344712      0.73103548   
     39400  -4790.8585     -4828.6319      37.773383      5467.5119      290.19623      8168.7178      1.2304908      0.73103548   
     39500  -4790.8025     -4827.4347      36.632196      3372.5165      281.429        8173.5569      1.2297622      0.73103548   
     39600  -4791.09       -4829.5743      38.484291      4862.7205      295.65783      8152.6046      1.2329228      0.73103548   
     39700  -4790.9338     -4828.2361      37.302275      2740.638       286.57692      8114.3859      1.2387298      0.73103548   
     39800  -4791.6731     -4828.6929      37.019739      2035.6031      284.40632      8066.8025      1.2460367      0.73103548   
     39900  -4792.3294     -4829.614       37.284552      5728.7766      286.44076      8012.7769      1.254438       0.73103548   
     40000  -4792.445      -4830.0982      37.653178      6073.9645      289.27275      7960.5303      1.2626711      0.66150537   
     40100  -4792.2253     -4829.6999      37.474636      9337.415       287.9011       7920.3467      1.2690772      0.66150537   
     40200  -4792.6372     -4830.0525      37.415285      6403.0866      287.44513      7906.18        1.2713512      0.66150537   
     40300  -4793.6359     -4829.0346      35.398715      7828.2472      271.95271      7913.9489      1.2701032      0.66150537   
     40400  -4792.6397     -4829.3467      36.706986      8909.1639      282.00358      7944.422       1.2652313      0.66150537   
     40500  -4791.9533     -4829.7921      37.83876       7651.5212      290.6985       7994.6167      1.2572875      0.66150537   
     40600  -4792.3212     -4830.9204      38.599234      1540.5633      296.54088      8058.2319      1.2473619      0.66150537   
     40700  -4792.8748     -4829.3869      36.512142      2288.6815      280.50668      8124.0706      1.2372531      0.66150537   
     40800  -4792.9585     -4828.5966      35.638112      3799.9012      273.79189      8171.1454      1.2301252      0.66150537   
     40900  -4790.0881     -4827.7374      37.649259      2639.3895      289.24264      8189.8488      1.2273159      0.66150537   
     41000  -4791.3667     -4828.5323      37.165581     -3255.9779      285.52676      8182.7036      1.2283876      0.75253654   
     41100  -4791.8256     -4828.8114      36.985757      1869.3493      284.14525      8143.9625      1.2342311      0.75253654   
     41200  -4790.9842     -4828.6685      37.684259      668.71808      289.51154      8084.507       1.2433079      0.75253654   
     41300  -4791.4279     -4829.7621      38.334134      5614.1039      294.50424      8021.1191      1.2531333      0.75253654   
     41400  -4791.8108     -4828.9589      37.148106      5839.8351      285.39251      7968.7935      1.2613618      0.75253654   
     41500  -4792.312      -4830.7303      38.418324      3821.4055      295.15103      7933.9724      1.2668977      0.75253654   
     41600  -4793.1981     -4830.4868      37.288764      4345.2192      286.47312      7919.2429      1.2692541      0.75253654   
     41700  -4793.3396     -4829.7192      36.379574      10009.692      279.48821      7922.0651      1.268802       0.75253654   
     41800  -4793.1103     -4829.9922      36.88186       6860.1355      283.34706      7942.0533      1.2656087      0.75253654   
     41900  -4791.5553     -4828.6624      37.107152      4016.8678      285.07787      7976.606       1.2601264      0.75253654   
     42000  -4792.971      -4829.7085      36.737526      3937.0502      282.2382       8019.4881      1.2533882      0.7233359    
     42100  -4793.84       -4831.4269      37.58688       4092.2197      288.76342      8060.5369      1.2470052      0.7233359    
     42200  -4793.6611     -4830.723       37.061882     -811.4219       284.73008      8090.2264      1.242429       0.7233359    
     42300  -4791.7572     -4829.4734      37.716158      3956.444       289.7566       8102.9471      1.2404785      0.7233359    
     42400  -4791.4565     -4828.2939      36.837379      2070.2034      283.00533      8101.564       1.2406903      0.7233359    
     42500  -4790.6684     -4827.8292      37.160799      2660.1111      285.49002      8090.837       1.2423352      0.7233359    
     42600  -4789.8315     -4827.7585      37.926948      2607.2652      291.37601      8071.9233      1.2452462      0.7233359    
     42700  -4789.7126     -4827.9824      38.269853      4386.9728      294.01039      8054.3584      1.2479618      0.7233359    
     42800  -4790.0389     -4827.8811      37.842156      2747.2693      290.72459      8039.3439      1.2502925      0.7233359    
     42900  -4790.5183     -4827.9507      37.432395      4239.9837      287.57658      8026.0608      1.2523618      0.7233359    
     43000  -4789.825      -4828.8064      38.981364      4061.7422      299.47662      8020.4562      1.2532369      0.70496727   
     43100  -4789.2541     -4826.9477      37.693605      7678.1052      289.58333      8019.6077      1.2533695      0.70496727   
     43200  -4788.5028     -4826.5613      38.058502      6825.9803      292.38668      8026.3733      1.252313       0.70496727   
     43300  -4788.2266     -4827.6052      39.378649      382.08861      302.52879      8040.7915      1.2500674      0.70496727   
     43400  -4789.0514     -4826.6241      37.572692      4856.1723      288.65441      8058.4934      1.2473214      0.70496727   
     43500  -4788          -4826.0459      38.045846      3458.4107      292.28945      8077.5703      1.2443756      0.70496727   
     43600  -4788.6816     -4826.7411      38.059467      2555.7523      292.39409      8097.9535      1.2412435      0.70496727   
     43700  -4789.9051     -4827.1778      37.272674      3943.5524      286.34951      8112.3451      1.2390414      0.70496727   
     43800  -4790.2988     -4828.5089      38.210083      1883.2397      293.55121      8117.1943      1.2383012      0.70496727   
     43900  -4790.9816     -4827.6306      36.648993     -601.32043      281.55804      8109.0564      1.2395439      0.70496727   
     44000  -4790.5982     -4828.2845      37.686305      723.43002      289.52726      8088.0667      1.2427607      0.70860607   
     44100  -4790.0087     -4829.4605      39.451851      1901.7098      303.09117      8051.1061      1.2484659      0.70860607   
     44200  -4788.478      -4828.8364      40.3584        5001.7911      310.05578      8007.3242      1.2552922      0.70860607   
     44300  -4788.6512     -4827.7976      39.146384      5588.0189      300.74439      7967.3794      1.2615857      0.70860607   
     44400  -4789.5255     -4828.2141      38.688635      6890.3659      297.22771      7942.0334      1.2656119      0.70860607   
     44500  -4790.391      -4828.5905      38.199498      5292.9188      293.46989      7935.4969      1.2666543      0.70860607   
     44600  -4791.3216     -4829.5041      38.182529      5070.1872      293.33952      7949.4149      1.2644367      0.70860607   
     44700  -4790.8593     -4829.977       39.117714      6397.4275      300.52413      7981.0332      1.2594274      0.70860607   
     44800  -4792.2137     -4828.5704      36.356706      3573.14        279.31253      8030.0396      1.2517412      0.70860607   
     44900  -4791.8028     -4828.2829      36.480072      5589.4476      280.26029      8086.3946      1.2430177      0.70860607   
     45000  -4790.2037     -4827.538       37.334332      1207.73        286.8232       8138.55        1.2350519      0.79998373   
     45100  -4789.1737     -4827.473       38.299273     -773.76406      294.23641      8180.2736      1.2287525      0.79998373   
     45200  -4788.7466     -4827.9977      39.251065      1956.5434      301.54861      8198.269       1.2260554      0.79998373   
     45300  -4787.3317     -4826.6917      39.360034      1796.2333      302.38578      8191.8609      1.2270145      0.79998373   
     45400  -4787.364      -4827.3396      39.975613      772.366        307.115        8164.9297      1.2310616      0.79998373   
     45500  -4786.4928     -4825.4449      38.952111      2593.2283      299.25188      8122.6502      1.2374695      0.79998373   
     45600  -4788.6221     -4827.2899      38.667831      846.21246      297.06789      8073.8258      1.2449528      0.79998373   
     45700  -4788.9732     -4827.1862      38.213024      5846.1474      293.5738       8020.3616      1.2532517      0.79998373   
     45800  -4788.8646     -4828.3593      39.494736      5290.3883      303.42063      7973.3035      1.2606483      0.79998373   
     45900  -4789.1409     -4827.7251      38.584158      4206.728       296.42506      7943.9712      1.2653031      0.79998373   
     46000  -4790.8326     -4828.8419      38.009245      3251.6983      292.00826      7939.0579      1.2660862      0.71030679   
     46100  -4791.6391     -4828.9139      37.274837      2031.4981      286.36612      7957.056       1.2632224      0.71030679   
     46200  -4791.882      -4829.025       37.143046      3904.7594      285.35363      7992.7845      1.2575757      0.71030679   
     46300  -4793.4153     -4830.3383      36.923064      2256.1978      283.66361      8036.8519      1.2506802      0.71030679   
     46400  -4793.3056     -4831.169       37.86346       5828.0812      290.88826      8077.6052      1.2443703      0.71030679   
     46500  -4792.4276     -4829.2493      36.821723      2335.0938      282.88505      8109.6315      1.239456       0.71030679   
     46600  -4790.8187     -4828.0807      37.262046      2923.2997      286.26786      8129.5186      1.236424       0.71030679   
     46700  -4790.8687     -4828.8556      37.986855      1979.5319      291.83625      8137.8779      1.2351539      0.71030679   
     46800  -4791.3802     -4828.4174      37.037142      452.76791      284.54002      8132.9547      1.2359016      0.71030679   
     46900  -4790.5872     -4828.6842      38.096974      4732.9392      292.68224      8111.3552      1.2391926      0.71030679   
     47000  -4790.7562     -4828.3868      37.630586      3318.91        289.09919      8072.8381      1.2451051      0.79271979   
     47100  -4791.8937     -4827.895       36.001254      1045.8199      276.58175      8021.147       1.253129       0.79271979   
     47200  -4792.0182     -4829.5501      37.531877      4529.2053      288.34085      7969.4722      1.2612544      0.79271979   
     47300  -4791.3053     -4829.0608      37.755499      5512.8708      290.05884      7929.1339      1.2676708      0.79271979   
     47400  -4791.7197     -4829.7814      38.061719      6877.7412      292.4114       7908.4201      1.2709911      0.79271979   
     47500  -4791.5688     -4830.3508      38.782         3565.5174      297.945        7912.3744      1.2703559      0.79271979   
     47600  -4792.8747     -4830.216       37.341244      3101.0377      286.8763       7937.2509      1.2663744      0.79271979   
     47700  -4791.6091     -4830.2808      38.671663      3881.8329      297.09732      7970.9791      1.2610159      0.79271979   
     47800  -4791.2564     -4828.6059      37.349479      2117.446       286.93957      8011.5663      1.2546275      0.79271979   
     47900  -4790.1222     -4828.6194      38.497159      2926.8751      295.75669      8057.7824      1.2474315      0.79271979   
     48000  -4791.1308     -4829.1221      37.991292      2266.5619      291.87033      8094.1518      1.2418264      0.75150292   
     48100  -4791.2631     -4828.5675      37.304311      1082.4297      286.59256      8114.0247      1.2387849      0.75150292   
     48200  -4790.0913     -4828.7671      38.675789      4462.602       297.12902      8116.634       1.2383867      0.75150292   
     48300  -4789.9854     -4828.6008      38.615414      3272.2173      296.66518      8106.085       1.2399983      0.75150292   
     48400  -4789.5484     -4828.5188      38.970386      6215.5093      299.39228      8087.3986      1.2428634      0.75150292   
     48500  -4790.1806     -4828.2552      38.074523      3449.5243      292.50976      8058.2642      1.2473569      0.75150292   
     48600  -4790.4981     -4827.0512      36.553106      5273.7513      280.82138      8023.471       1.252766       0.75150292   
     48700  -4790.5979     -4827.9833      37.38537       3919.9157      287.2153       7988.5506      1.2582422      0.75150292   
     48800  -4791.2299     -4828.5768      37.346974      2256.931       286.92033      7961.1992      1.262565       0.75150292   
     48900  -4792.1259     -4828.9461      36.820233      3490.1598      282.87361      7946.8269      1.2648484      0.75150292   
     49000  -4792.2252     -4828.7636      36.538414      1116.4561      280.70851      7952.0859      1.264012       0.71397836   
     49100  -4792.8764     -4829.2936      36.417222      449.74087      279.77745      7974.5747      1.2604474      0.71397836   
     49200  -4793.724      -4830.414       36.689992     -1534.5248      281.87302      8006.235       1.255463       0.71397836   
     49300  -4792.9776     -4830.2238      37.246131      846.55876      286.14559      8041.2313      1.2499991      0.71397836   
     49400  -4792.7982     -4830.1207      37.322483      3308.9679      286.73217      8068.6972      1.2457441      0.71397836   
     49500  -4793.1052     -4830.4023      37.297123      3836.9829      286.53734      8084.2724      1.243344       0.71397836   
     49600  -4792.3471     -4828.8646      36.517516      2891.0913      280.54796      8084.4062      1.2433234      0.71397836   
     49700  -4793.2376     -4829.645       36.407403      3514.8358      279.70202      8073.2354      1.2450438      0.71397836   
     49800  -4792.0959     -4829.5839      37.488063      4118.3986      288.00425      8052.8343      1.248198       0.71397836   
     49900  -4790.1075     -4828.1431      38.035606      5994.0363      292.21078      8024.9733      1.2525315      0.71397836   
     50000  -4791.6706     -4829.6335      37.962911      2959.3234      291.65229      7998.2739      1.2567126      0.66707186   
     50100  -4792.4836     -4829.6264      37.142796      2649.868       285.35172      7979.3108      1.2596992      0.66707186   
     50200  -4790.8739     -4828.5997      37.725815      4071.3733      289.83079      7971.276       1.260969       0.66707186   
     50300  -4792.2624     -4830.0073      37.74485       7513.6374      289.97703      7976.5612      1.2601335      0.66707186   
     50400  -4791.9637     -4829.5688      37.605116      4370.7598      288.90351      7993.6064      1.2574464      0.66707186   
     50500  -4792.1367     -4830.3543      38.217581      7412.2768      293.60881      8014.769       1.2541262      0.66707186   
     50600  -4793.3896     -4830.2183      36.828711      6242.8125      282.93874      8038.6452      1.2504012      0.66707186   
     50700  -4790.8594     -4827.5505      36.691107      5078.8129      281.88158      8062.0616      1.2467694      0.66707186   
     50800  -4791.1081     -4827.8749      36.766777      2114.8031      282.46293      8083.6298      1.2434428      0.66707186   
     50900  -4789.6159     -4827.2006      37.584647      1455.1111      288.74626      8099.8906      1.2409466      0.66707186   
     51000  -4790.6629     -4828.4562      37.793313     -1121.61        290.34935      8105.0117      1.2401625      0.72749913   
     51100  -4789.9309     -4827.8587      37.927734      2659.287       291.38205      8098.592       1.2411456      0.72749913   
     51200  -4789.4567     -4827.506       38.049279      4690.4984      292.31582      8086.164       1.2430532      0.72749913   
     51300  -4788.9573     -4826.616       37.658669      3615.8751      289.31494      8064.8939      1.2463316      0.72749913   
     51400  -4790.0017     -4827.6531      37.65148       5217.1741      289.25971      8035.1156      1.2509505      0.72749913   
     51500  -4790.7861     -4829.7391      38.953047      4326.979       299.25908      8000.3215      1.256391       0.72749913   
     51600  -4790.7903     -4828.8058      38.015476      8496.1123      292.05613      7970.7904      1.2610458      0.72749913   
     51700  -4790.1815     -4829.3466      39.165087      5556.0091      300.88808      7955.6592      1.2634442      0.72749913   
     51800  -4789.9586     -4827.9689      38.010307      3561.0443      292.01642      7960.3531      1.2626992      0.72749913   
     51900  -4790.8922     -4827.6706      36.7784        5688.1522      282.55222      7987.5097      1.2584062      0.72749913   
     52000  -4790.6947     -4828.8014      38.106756      5895.0155      292.75739      8031.8903      1.2514528      0.76229226   
     52100  -4791.0676     -4829.7211      38.653435      2932.2997      296.95729      8077.8902      1.2443264      0.76229226   
     52200  -4790.6903     -4829.1429      38.452527      1914.8956      295.4138       8114.1169      1.2387709      0.76229226   
     52300  -4792.0273     -4830.0205      37.993189      4857.341       291.88491      8134.0329      1.2357378      0.76229226   
     52400  -4791.4389     -4829.5868      38.147989      3761.865       293.07417      8138.1837      1.2351075      0.76229226   
     52500  -4787.932      -4826.3108      38.378823      2652.8799      294.84757      8126.6061      1.2368671      0.76229226   
     52600  -4788.6128     -4826.9631      38.350284      2820.7433      294.62831      8106.5606      1.2399256      0.76229226   
     52700  -4789.3911     -4828.2457      38.854601      4104.2625      298.50275      8081.1308      1.2438274      0.76229226   
     52800  -4787.1927     -4826.7989      39.606256      7599.4086      304.27739      8055.7853      1.2477408      0.76229226   
     52900  -4788.0211     -4828.1168      40.095745      5241.6209      308.03792      8035.4321      1.2509012      0.76229226   
     53000  -4787.8373     -4827.3781      39.540831      5416.0215      303.77476      8025.0883      1.2525135      0.66830772   
     53100  -4788.6277     -4826.1759      37.548138      8262.8063      288.46578      8023.621       1.2527426      0.66830772   
     53200  -4790.5765     -4828.8122      38.235649      782.92438      293.74762      8029.9309      1.2517582      0.66830772   
     53300  -4791.3669     -4829.2871      37.920248      4734.6802      291.32453      8034.7351      1.2510097      0.66830772   
     53400  -4790.9525     -4828.9112      37.958713      2121.4703      291.62004      8038.4454      1.2504323      0.66830772   
     53500  -4791.7666     -4829.546       37.779474     -128.0424       290.24303      8042.6847      1.2497732      0.66830772   
     53600  -4791.9652     -4830.2948      38.329536      2222.1026      294.46891      8047.41        1.2490393      0.66830772   
     53700  -4792.8865     -4829.778       36.891454      6564.2426      283.42077      8049.6117      1.2486977      0.66830772   
     53800  -4791.7208     -4829.8107      38.089956      5916.7258      292.62832      8051.191       1.2484528      0.66830772   
     53900  -4792.3813     -4829.12        36.738759      4532.8961      282.24768      8051.9701      1.248332       0.66830772   
     54000  -4793.177      -4830.4633      37.286323      3199.0582      286.45437      8050.5559      1.2485513      0.7131041    
     54100  -4792.9645     -4831.045       38.080446      1653.4958      292.55526      8040.2117      1.2501576      0.7131041    
     54200  -4793.1698     -4830.1301      36.960351      3451.5834      283.95007      8024.0116      1.2526816      0.7131041    
     54300  -4792.893      -4828.5064      35.613336      6842.835       273.60154      8010.5175      1.2547918      0.7131041    
     54400  -4793.0733     -4829.5872      36.513836      3119.12        280.51969      8001.3705      1.2562262      0.7131041    
     54500  -4792.7291     -4829.6018      36.872726      1555.6568      283.27689      7993.6904      1.2574332      0.7131041    
     54600  -4791.9843     -4829.5581      37.573861      6429.4733      288.66339      7989.6857      1.2580635      0.7131041    
     54700  -4794.3105     -4830.6256      36.315045      3832.8074      278.99247      7994.4072      1.2573205      0.7131041    
     54800  -4792.6578     -4829.9225      37.264718      2486.0668      286.28839      8002.0394      1.2561212      0.7131041    
     54900  -4790.5554     -4828.1901      37.634678      3932.8943      289.13062      8013.3591      1.2543468      0.7131041    
     55000  -4791.4672     -4829.4237      37.956493      3881.877       291.60299      8030.4263      1.251681       0.70589995   
     55100  -4792.0977     -4828.4796      36.381889      2154.2473      279.506        8049.1383      1.2487711      0.70589995   
     55200  -4791.77       -4828.3108      36.540737      4781.9488      280.72636      8062.9375      1.246634       0.70589995   
     55300  -4791.0046     -4828.4994      37.494732      9237.5386      288.05548      8069.1619      1.2456723      0.70589995   
     55400  -4791.6849     -4827.8184      36.13356       5445.4685      277.5982       8069.3527      1.2456429      0.70589995   
     55500  -4791.2053     -4827.9738      36.768516      5275.6921      282.47629      8062.8552      1.2466467      0.70589995   
     55600  -4791.6083     -4828.0889      36.480644      3834.0511      280.26469      8051.4229      1.2484168      0.70589995   
     55700  -4792.3454     -4829.7653      37.419902      4330.4345      287.4806       8033.7869      1.2511574      0.70589995   
     55800  -4791.3994     -4828.6332      37.233809      3240.9687      286.05092      8012.6451      1.2544586      0.70589995   
     55900  -4792.0036     -4829.5158      37.512266      5799.4102      288.19019      7996.309       1.2570214      0.70589995   
     56000  -4791.8053     -4828.9053      37.099969      7089.2844      285.02269      7986.8499      1.2585101      0.73950508   
     56100  -4791.978      -4830.1024      38.124358      5106.7592      292.89262      7987.393       1.2584246      0.73950508   
     56200  -4793.3746     -4830.1814      36.806789      5034.1477      282.77032      7991.1264      1.2578366      0.73950508   
     56300  -4792.5586     -4829.158       36.599448      4640.3912      281.17741      7994.127       1.2573645      0.73950508   
     56400  -4793.6852     -4829.8891      36.203926      3187.1772      278.13879      8000.3408      1.2563879      0.73950508   
     56500  -4792.5287     -4830.3594      37.830761      3134.1842      290.63704      8008.4541      1.2551151      0.73950508   
     56600  -4793.4322     -4830.7032      37.271015      5242.0463      286.33676      8017.1145      1.2537593      0.73950508   
     56700  -4793.5209     -4831.0134      37.492545      3604.6914      288.03868      8029.3997      1.251841       0.73950508   
     56800  -4793.1142     -4831.0507      37.936524      2796.6226      291.44957      8040.2661      1.2501491      0.73950508   
     56900  -4793.2373     -4829.9695      36.732148      3295.8541      282.19688      8045.0375      1.2494077      0.73950508   
     57000  -4792.6865     -4830.3106      37.624175      4774.312       289.04994      8040.7209      1.2500784      0.73648111   
     57100  -4793.9983     -4830.4854      36.487133      7773.3177      280.31454      8028.2318      1.2520231      0.73648111   
     57200  -4794.0177     -4830.881       36.863257      3803.166       283.20414      8013.8765      1.2542659      0.73648111   
[...]
    386300  -4792.4529     -4829.1312      36.678339      5334.5998      281.78349      8101.3251      1.2407269      0.67267641   
    386400  -4791.6829     -4827.7818      36.098871      4326.182       277.3317       8110.15        1.2393768      0.67267641   
    386500  -4792.4842     -4829.9402      37.455988      4647.7617      287.75783      8104.4564      1.2402475      0.67267641   
    386600  -4792.5362     -4828.2412      35.704956      2404.8276      274.30543      8084.3624      1.2433302      0.67267641   
    386700  -4792.1117     -4828.125       36.013274      3059.2425      276.6741       8057.2953      1.2475069      0.67267641   
    386800  -4792.3037     -4828.2414      35.937788      2968.9351      276.09417      8024.9635      1.252533       0.67267641   
    386900  -4793.3081     -4829.8226      36.514474      3315.8803      280.52459      7992.3099      1.2576504      0.67267641   
    387000  -4793.2605     -4831.1655      37.905058      5481.0414      291.20784      7964.675       1.262014       0.72501441   
    387100  -4793.3612     -4830.4893      37.12808       7186.7706      285.23866      7941.5318      1.2656918      0.72501441   
    387200  -4792.9208     -4830.2167      37.295887      7915.0383      286.52784      7928.433       1.2677829      0.72501441   
    387300  -4793.0641     -4830.2766      37.212521      8127.2419      285.88738      7930.6592      1.267427       0.72501441   
    387400  -4793.5628     -4831.4952      37.932383      6292.1998      291.41776      7947.7501      1.2647015      0.72501441   
    387500  -4793.4059     -4830.6451      37.239131      6243.3366      286.09181      7970.6596      1.2610665      0.72501441   
    387600  -4792.09       -4829.9446      37.854646      1892.7253      290.82054      7998.5522      1.2566689      0.72501441   
    387700  -4792.046      -4829.2661      37.220093      3338.4775      285.94555      8027.4897      1.2521389      0.72501441   
    387800  -4791.8157     -4828.063       36.247373      811.64831      278.47257      8050.864       1.2485035      0.72501441   
    387900  -4791.3686     -4828.9405      37.571985      787.0853       288.64899      8063.9078      1.246484       0.72501441   
    388000  -4790.3857     -4828.5773      38.191572     -31.378427      293.409        8067.296       1.2459604      0.73911568   
    388100  -4789.5897     -4827.7253      38.135609      2690.1925      292.97906      8065.8583      1.2461825      0.73911568   
    388200  -4788.8165     -4827.8255      39.008965      4033.0014      299.68867      8058.0245      1.247394       0.73911568   
    388300  -4789.836      -4828.1329      38.296906      2595.705       294.21823      8049.3649      1.248736       0.73911568   
    388400  -4789.5504     -4827.5202      37.96976       8200.6149      291.70491      8037.4045      1.2505942      0.73911568   
    388500  -4790.5248     -4829.8875      39.362627      3926.5126      302.40569      8027.8244      1.2520866      0.73911568   
    388600  -4790.3689     -4828.5374      38.168591      5642.5709      293.23244      8022.2906      1.2529503      0.73911568   
    388700  -4791.3025     -4828.888       37.585504      1587.33        288.75285      8023.541       1.2527551      0.73911568   
    388800  -4790.78       -4828.2344      37.454449      2428.6232      287.74601      8027.9765      1.2520629      0.73911568   
    388900  -4791.9809     -4829.1322      37.151311      4957.5709      285.41713      8034.0843      1.2511111      0.73911568   
    389000  -4791.6024     -4828.1298      36.527427      6970.5743      280.6241       8043.0538      1.2497158      0.74464591   
    389100  -4789.5253     -4827.3958      37.87054       8360.3448      290.94265      8053.4519      1.2481023      0.74464591   
    389200  -4790.1217     -4828.7298      38.608131      7349.3137      296.60923      8068.7738      1.2457322      0.74464591   
    389300  -4791.5104     -4829.0778      37.567349      7562.3824      288.61336      8086.1359      1.2430575      0.74464591   
    389400  -4790.9656     -4828.1919      37.226309      3204.8621      285.99331      8096.0032      1.2415425      0.74464591   
    389500  -4791.4667     -4828.6082      37.141526      3053.6279      285.34195      8092.8519      1.2420259      0.74464591   
    389600  -4791.9288     -4828.7785      36.849708      3830.3936      283.10005      8080.5624      1.2439149      0.74464591   
    389700  -4791.0074     -4827.4478      36.440351      6529.5555      279.95514      8063.6163      1.246529       0.74464591   
    389800  -4789.4419     -4828.5364      39.094466      3956.2352      300.34553      8046.7447      1.2491426      0.74464591   
    389900  -4790.4381     -4828.563       38.124916      2940.0676      292.8969       8030.3869      1.2516871      0.74464591   
    390000  -4790.2078     -4829.2613      39.053505      6251.619       300.03085      8016.9601      1.2537834      0.82616196   
    390100  -4790.2746     -4828.5191      38.244491      5319.4638      293.81555      8010.5028      1.2547941      0.82616196   
    390200  -4790.5932     -4829.5086      38.915328      2469.8472      298.9693       8011.9955      1.2545603      0.82616196   
    390300  -4792.0062     -4828.7612      36.754936      5988.9592      282.37195      8018.992       1.2534657      0.82616196   
    390400  -4790.5086     -4828.1686      37.660008     -217.35327      289.32523      8030.9697      1.2515963      0.82616196   
    390500  -4791.6751     -4828.8137      37.138621      3158.7191      285.31964      8040.4991      1.2501129      0.82616196   
    390600  -4791.7769     -4827.7374      35.960429      5847.7279      276.26811      8052.0727      1.2483161      0.82616196   
    390700  -4791.4255     -4828.9648      37.539304      2345.8048      288.39791      8065.5282      1.2462335      0.82616196   
    390800  -4792.6314     -4830.3943      37.762939     -344.69242      290.116        8076.5182      1.2445377      0.82616196   
    390900  -4792.6716     -4829.0437      36.372026      906.91465      279.43023      8078.9373      1.2441651      0.82616196   
    391000  -4792.4612     -4829.3163      36.855073      2467.8205      283.14126      8070.5424      1.2454592      0.75971901   
    391100  -4791.5683     -4827.6362      36.067839      2949.6361      277.0933       8056.482       1.2476329      0.75971901   
    391200  -4791.9646     -4829.777       37.812423      6573.8394      290.49616      8038.4371      1.2504336      0.75971901   
    391300  -4791.9014     -4829.0774      37.17603       5163.836       285.60703      8021.4474      1.253082       0.75971901   
    391400  -4791.5738     -4828.8852      37.311396      4796.2277      286.64699      8006.4494      1.2554294      0.75971901   
    391500  -4793.2073     -4830.4755      37.268259      5616.3299      286.31559      7997.7356      1.2567972      0.75971901   
    391600  -4793.6126     -4829.6777      36.06511       3636.3907      277.07233      7993.9886      1.2573863      0.75971901   
    391700  -4792.9009     -4829.1518      36.250898      3246.5331      278.49965      7993.9816      1.2573874      0.75971901   
    391800  -4793.6852     -4830.4956      36.810409      3109.9765      282.79813      7997.8343      1.2567817      0.75971901   
    391900  -4792.7874     -4831.1047      38.317366      4326.6629      294.37542      8006.1707      1.2554731      0.75971901   
    392000  -4792.7297     -4829.8977      37.16794       2253.0324      285.54488      8018.0419      1.2536143      0.69774251   
    392100  -4792.5725     -4829.8034      37.230854      4811.3323      286.02823      8030.6744      1.2516423      0.69774251   
    392200  -4793.8533     -4829.399       35.545652      4862.2003      273.08156      8044.7715      1.249449       0.69774251   
    392300  -4791.7054     -4830.727       39.021596      4270.6012      299.78571      8057.0289      1.2475482      0.69774251   
    392400  -4791.3689     -4830.9853      39.616362      4711.5313      304.35503      8064.1338      1.246449       0.69774251   
    392500  -4790.2053     -4828.0905      37.88516       3418.2777      291.05497      8062.1272      1.2467592      0.69774251   
    392600  -4788.7545     -4826.532       37.777493      5051.8466      290.22781      8057.5906      1.2474612      0.69774251   
    392700  -4790.1432     -4827.318       37.17478       3453.7745      285.59743      8056.3851      1.2476479      0.69774251   
    392800  -4791.3098     -4829.0792      37.769434      5154.304       290.1659       8055.007       1.2478613      0.69774251   
    392900  -4789.4882     -4828.1137      38.625569      5864.0306      296.7432       8052.5508      1.2482419      0.69774251   
    393000  -4790.0471     -4828.1633      38.116193      5819.8892      292.82989      8052.1168      1.2483092      0.7339017    
    393100  -4790.5282     -4828.092       37.563799      3860.2759      288.58609      8054.5383      1.2479339      0.7339017    
    393200  -4790.6354     -4828.5024      37.866971      3822.1173      290.91523      8054.0372      1.2480116      0.7339017    
    393300  -4789.156      -4828.2244      39.068419      3116.4178      300.14542      8050.4768      1.2485635      0.7339017    
    393400  -4788.5173     -4826.3943      37.876998      1427.6182      290.99226      8045.6195      1.2493173      0.7339017    
    393500  -4788.6864     -4827.3499      38.663546      5395.3967      297.03496      8045.0583      1.2494045      0.7339017    
    393600  -4788.3452     -4827.3973      39.052081      5129.9213      300.0199       8045.9049      1.249273       0.7339017    
    393700  -4789.4926     -4827.3482      37.855579      4940.5534      290.82771      8047.7439      1.2489875      0.7339017    
    393800  -4789.5711     -4828.2917      38.720654      5809.2802      297.4737       8050.2965      1.2485915      0.7339017    
    393900  -4791.4379     -4828.4075      36.969627      1556.2683      284.02133      8052.3111      1.2482791      0.7339017    
    394000  -4791.1521     -4828.9388      37.786653      4842.26        290.29819      8050.4831      1.2485626      0.71819661   
    394100  -4790.805      -4827.8093      37.00434       4373.5032      284.28802      8042.6421      1.2497798      0.71819661   
    394200  -4788.7896     -4827.5324      38.742815      3829.4429      297.64395      8032.3397      1.2513828      0.71819661   
    394300  -4789.3816     -4826.8016      37.420012      4559.313       287.48144      8021.8531      1.2530187      0.71819661   
    394400  -4789.6525     -4828.2965      38.644         6072.6098      296.8848       8014.9587      1.2540965      0.71819661   
    394500  -4789.2872     -4828.3286      39.041396      1971.9187      299.93782      8012.6813      1.254453       0.71819661   
    394600  -4790.7407     -4827.8012      37.060498      2165.3077      284.71946      8014.7448      1.25413        0.71819661   
    394700  -4789.728      -4827.4602      37.732227      5694.9836      289.88005      8022.5161      1.2529151      0.71819661   
    394800  -4791.4476     -4830.2249      38.777284      1434.9605      297.90876      8033.6962      1.2511715      0.71819661   
    394900  -4792.3137     -4828.809       36.495298      3516.697       280.37727      8040.0682      1.2501799      0.71819661   
    395000  -4791.4197     -4828.3513      36.931602      6964.7495      283.7292       8037.7886      1.2505345      0.71032253   
    395100  -4790.1782     -4827.7298      37.551602      344.24311      288.49239      8030.5284      1.251665       0.71032253   
    395200  -4790.1421     -4827.5557      37.413632     -361.10638      287.43242      8020.8247      1.2531793      0.71032253   
    395300  -4790.5392     -4828.568       38.028838      1477.0287      292.15878      8013.6389      1.2543031      0.71032253   
    395400  -4790.5748     -4828.0078      37.432924      7118.3608      287.58064      8009.0314      1.2550246      0.71032253   
    395500  -4790.6308     -4826.8947      36.263901      4139.6248      278.59955      8011.7253      1.2546026      0.71032253   
    395600  -4788.5773     -4827.7758      39.198512      7559.951       301.14487      8018.9583      1.253471       0.71032253   
    395700  -4789.0831     -4826.0603      36.97719       3323.3826      284.07943      8032.2988      1.2513892      0.71032253   
    395800  -4789.7472     -4828.3895      38.642325      2338.4277      296.87193      8052.5326      1.2482448      0.71032253   
    395900  -4790.4349     -4828.697       38.262051      4684.6724      293.95045      8072.6771      1.2451299      0.71032253   
    396000  -4791.2485     -4829.9047      38.656199      4351.1176      296.97852      8085.5161      1.2431528      0.75430993   
    396100  -4790.6757     -4828.7392      38.063574      6691.4406      292.42564      8090.4946      1.2423878      0.75430993   
    396200  -4791.3653     -4829.7785      38.413217      4503.0581      295.1118       8091.9668      1.2421618      0.75430993   
    396300  -4789.6517     -4828.0861      38.434404      2629.9744      295.27457      8085.8806      1.2430967      0.75430993   
    396400  -4788.5113     -4827.201       38.689779      2134.6435      297.2365       8073.2052      1.2450485      0.75430993   
    396500  -4789.0385     -4826.2911      37.252596      4346.8411      286.19526      8058.1292      1.2473778      0.75430993   
    396600  -4789.2453     -4827.7025      38.457242      3945.1358      295.45002      8047.5331      1.2490202      0.75430993   
    396700  -4789.766      -4827.6149      37.848923      3716.4939      290.77658      8040.1422      1.2501684      0.75430993   
    396800  -4789.703      -4828.264       38.56098       6584.4512      296.24699      8034.4247      1.2510581      0.75430993   
    396900  -4790.8289     -4829.0215      38.192598      4730.9385      293.41688      8032.681       1.2513296      0.75430993   
    397000  -4789.8702     -4827.5632      37.693082      6159.0988      289.57932      8034.073       1.2511128      0.74006727   
    397100  -4791.1931     -4828.736       37.542866      7145.2353      288.42528      8040.8046      1.2500654      0.74006727   
    397200  -4792.3845     -4829.3018      36.917345      4372.9393      283.61967      8052.4844      1.2482522      0.74006727   
    397300  -4792.4824     -4829.3054      36.823072      1496.2342      282.89541      8061.9198      1.2467913      0.74006727   
    397400  -4791.7324     -4829.4683      37.735923      1843.2667      289.90844      8062.889       1.2466415      0.74006727   
    397500  -4792.3983     -4829.6585      37.260207      4780.556       286.25373      8054.8577      1.2478844      0.74006727   
    397600  -4792.7837     -4830.6778      37.894069      6971.3468      291.12341      8043.8059      1.249599       0.74006727   
    397700  -4791.9363     -4829.6096      37.673296      3762.4467      289.42731      8029.3404      1.2518502      0.74006727   
    397800  -4790.5327     -4828.7746      38.241898      4429.5335      293.79563      8012.4719      1.2544857      0.74006727   
    397900  -4790.5956     -4828.5941      37.998467      9931.2382      291.92546      7999.1156      1.2565804      0.74006727   
    398000  -4791.3907     -4830.5602      39.169509      7720.8328      300.92205      7990.3411      1.2579603      0.75681743   
    398100  -4792.3917     -4830.3123      37.920679      2932.3236      291.32784      7986.3602      1.2585873      0.75681743   
    398200  -4791.7825     -4829.7261      37.943632      4107.568       291.50418      7986.5592      1.258556       0.75681743   
    398300  -4790.9528     -4827.2097      36.256953      4712.717       278.54617      7992.0828      1.2576861      0.75681743   
    398400  -4790.0105     -4829.1981      39.187634      4360.6576      301.0613       8005.1756      1.2556291      0.75681743   
    398500  -4790.7399     -4828.2763      37.536318      5209.4021      288.37497      8021.4377      1.2530836      0.75681743   
    398600  -4791.4618     -4829.2529      37.79106       1660.2857      290.33204      8039.3355      1.2502938      0.75681743   
    398700  -4791.4662     -4829.3224      37.856187      307.3274       290.83238      8053.0558      1.2481637      0.75681743   
    398800  -4791.4474     -4828.5923      37.144889      4929.1266      285.36779      8057.7434      1.2474375      0.75681743   
    398900  -4791.902      -4827.6157      35.713746      4041.5379      274.37296      8056.1497      1.2476843      0.75681743   
    399000  -4792.2415     -4829.6878      37.446338      2661.772       287.68369      8051.976       1.2483311      0.74924189   
    399100  -4792.1674     -4830.6569      38.489448      4576.9398      295.69745      8038.5514      1.2504158      0.74924189   
    399200  -4792.4394     -4829.3573      36.917893      4041.7531      283.62388      8018.2355      1.253584       0.74924189   
    399300  -4792.2935     -4829.4761      37.182611      8141.3776      285.65759      7998.297       1.256709       0.74924189   
    399400  -4793.4248     -4830.1353      36.710455      8666.9439      282.03023      7982.7507      1.2591564      0.74924189   
    399500  -4792.5416     -4829.6804      37.138777      477.6641       285.32083      7978.4298      1.2598383      0.74924189   
    399600  -4792.9941     -4829.4241      36.430072      7184.1639      279.87617      7981.2564      1.2593922      0.74924189   
    399700  -4792.5688     -4829.9115      37.342701      7601.3458      286.88749      7988.982       1.2581743      0.74924189   
    399800  -4792.0286     -4829.4336      37.405004      2098.6585      287.36614      7999.5658      1.2565097      0.74924189   
    399900  -4792.5023     -4829.7978      37.295548      3914.7178      286.52524      8009.2608      1.2549887      0.74924189   
    400000  -4792.3454     -4828.7213      36.375946      4668.6677      279.46034      8016.1487      1.2539103      0.77002115   
    400100  -4791.3762     -4828.7537      37.377489      7616.3942      287.15475      8020.0283      1.2533038      0.77002115   
    400200  -4790.3866     -4828.1765      37.789884      4334.0845      290.323        8025.2098      1.2524946      0.77002115   
    400300  -4790.7788     -4829.0334      38.254613      2500.611       293.89331      8034.2534      1.2510847      0.77002115   
    400303  -4790.7144     -4828.3514      37.636963      3747.4394      289.14818      8034.5288      1.2510418      0.77002115   
Loop time of 587.379 on 2 procs for 200000 steps with 1008 atoms

Performance: 14.709 ns/day, 1.632 hours/ns, 340.496 timesteps/s, 343.220 katom-step/s
95.7% CPU use with 2 MPI tasks x 1 OpenMP threads

MPI task timing breakdown:
Section |  min time  |  avg time  |  max time  |%varavg| %total
---------------------------------------------------------------
Pair    | 298.45     | 299.34     | 300.24     |   5.2 | 50.96
Neigh   | 7.901      | 7.9936     | 8.0863     |   3.3 |  1.36
Comm    | 41.804     | 43.408     | 45.012     |  24.3 |  7.39
Output  | 0.30147    | 23.081     | 45.861     | 474.2 |  3.93
Modify  | 187.83     | 211.24     | 234.64     | 161.0 | 35.96
Other   |            | 2.315      |            |       |  0.39

Nlocal:            504 ave         508 max         500 min
Histogram: 1 0 0 0 0 0 0 0 0 1
Nghost:         2703.5 ave        2716 max        2691 min
Histogram: 1 0 0 0 0 0 0 0 0 1
Neighs:              0 ave           0 max           0 min
Histogram: 2 0 0 0 0 0 0 0 0 0
FullNghs:        73340 ave       73955 max       72725 min
Histogram: 1 0 0 0 0 0 0 0 0 1

Total # of neighbors = 146680
Ave neighs/atom = 145.51587
Neighbor list builds = 19957
Dangerous builds = 19744
Total wall time: 0:18:53
