LAMMPS (7 Feb 2024 - Update 1)
KOKKOS mode with Kokkos version 4.2.0 is enabled (src/KOKKOS/kokkos.cpp:72)
  will use up to 2 GPU(s) per node
  using 1 OpenMP thread(s) per MPI task
Reading data file ...
  orthogonal box = (0 0 0) to (18.207572 23.629178 22.213196)
  1 by 2 by 1 MPI processor grid
  reading atoms ...
  864 atoms
  read_data CPU = 0.010 seconds
ACE/AL version: 2023.11.25
Loading /home/cicn/cicn607503/pd/pot_dir/interim_potential_ladder_step_5.yaml
Total number of basis functions
	H: 24 (r=1) 863 (r>1)
	O: 24 (r=1) 863 (r>1)
Mapping LAMMPS atom type #1(H) -> ACE species type #0
Mapping LAMMPS atom type #2(O) -> ACE species type #1
Loading ASI /home/cicn/cicn607503/pd/pot_dir/interim_potential_ladder_step_5.asi
LINEAR ASI is loaded
Switching to 'neigh_modify every 1 delay 0 check yes' setting during minimization
Neighbor list info ...
  update: every = 1 steps, delay = 0 steps, check = yes
  max neighbors/atom: 2000, page size: 100000
  master list distance cutoff = 6.5
  ghost atom cutoff = 6.5
  binsize = 6.5, bins = 3 4 4
  1 neighbor lists, perpetual/occasional/extra = 1 0 0
  (1) pair pace/extrapolation/kk, perpetual
      attributes: full, newton on, kokkos_device
      pair build: full/bin/kk/device
      stencil: full/bin/3d
      bin: kk/device
Setting up cg/kk style minimization ...
  Unit style    : metal
  Current step  : 0
WARNING: Fix with atom-based arrays not compatible with sending data in Kokkos communication, switching to classic exchange/border communication (src/KOKKOS/comm_kokkos.cpp:666)
WARNING: Fix with atom-based arrays not compatible with Kokkos sorting on device, switching to classic host sorting (src/KOKKOS/atom_kokkos.cpp:218)
Per MPI rank memory allocation (min/avg/max) = 449.3 | 453 | 456.7 Mbytes
   Step         TotEng         PotEng         KinEng         Press           Temp          Volume        Density     c_max_pace_gamma
         0  -4180.7249     -4180.7249      0              931.57303      0              9556.7825      0.90151666     0.51848272   
       100  -4182.8568     -4182.8568      0             -5818.1351      0              9556.7825      0.90151666     0.51848272   
       191  -4182.8571     -4182.8571      0             -5809.5218      0              9556.7825      0.90151666     0.51848272   
Loop time of 0.66633 on 2 procs for 191 steps with 864 atoms

99.7% CPU use with 2 MPI tasks x 1 OpenMP threads

Minimization stats:
  Stopping criterion = force tolerance
  Energy initial, next-to-last, final = 
      -4180.7249004513  -4182.85708343912  -4182.85708344367
  Force two-norm initial, final = 6.5563152 0.00040677855
  Force max component initial, final = 0.28078875 3.6224289e-05
  Final line search alpha, max atom move = 1 3.6224289e-05
  Iterations, force evaluations = 191 382

MPI task timing breakdown:
Section |  min time  |  avg time  |  max time  |%varavg| %total
---------------------------------------------------------------
Pair    | 0.45965    | 0.46103    | 0.46241    |   0.2 | 69.19
Neigh   | 0          | 0          | 0          |   0.0 |  0.00
Comm    | 0.066663   | 0.067196   | 0.067729   |   0.2 | 10.08
Output  | 0.00015388 | 0.00015457 | 0.00015526 |   0.0 |  0.02
Modify  | 0.08894    | 0.090506   | 0.092072   |   0.5 | 13.58
Other   |            | 0.04745    |            |       |  7.12

Nlocal:            432 ave         436 max         428 min
Histogram: 1 0 0 0 0 0 0 0 0 1
Nghost:           2169 ave        2174 max        2164 min
Histogram: 1 0 0 0 0 0 0 0 0 1
Neighs:              0 ave           0 max           0 min
Histogram: 2 0 0 0 0 0 0 0 0 0
FullNghs:        45636 ave       46083 max       45189 min
Histogram: 1 0 0 0 0 0 0 0 0 1

Total # of neighbors = 91272
Ave neighs/atom = 105.63889
Neighbor list builds = 0
Dangerous builds = 0
Setting up Verlet run ...
  Unit style    : metal
  Current step  : 191
  Time step     : 0.0005
WARNING: Fix with atom-based arrays not compatible with sending data in Kokkos communication, switching to classic exchange/border communication (src/KOKKOS/comm_kokkos.cpp:666)
WARNING: Fix with atom-based arrays not compatible with Kokkos sorting on device, switching to classic host sorting (src/KOKKOS/atom_kokkos.cpp:218)
Per MPI rank memory allocation (min/avg/max) = 453.3 | 454.9 | 456.4 Mbytes
   Step         TotEng         PotEng         KinEng         Press           Temp          Volume        Density     c_max_pace_gamma
       191  -4148.8339     -4182.8571      34.023209     -2006.9041      305            9556.7825      0.90151666     0.51848272   
       200  -4148.544      -4172.6477      24.103651     -9856.1066      216.07643      9556.5636      0.9015373      0.51848272   
       300  -4140.2028     -4162.4844      22.281592     -3108.5653      199.74264      9534.2729      0.90364506     0.51848272   
       400  -4135.3118     -4157.0621      21.750348      48.523939      194.98032      9488.1226      0.9080404      0.51848272   
       500  -4131.284      -4155.463       24.179078     -1570.6141      216.75259      9416.9665      0.91490169     0.51848272   
       600  -4125.383      -4153.0249      27.641929      2682.7286      247.79521      9342.7982      0.92216469     0.51848272   
       700  -4122.0594     -4151.9704      29.910966      4227.2239      268.13593      9294.7108      0.92693563     0.51848272   
       800  -4120.2929     -4150.9744      30.6815        3299.2861      275.04336      9291.2768      0.92727822     0.51848272   
       900  -4118.5442     -4150.0274      31.483128      2878.0284      282.22953      9339.8496      0.92245581     0.51848272   
      1000  -4117.2922     -4149.4772      32.18497       720.79456      288.52116      9431.202       0.91352074     0.88498782   
      1100  -4116.5659     -4148.3593      31.793442      231.09711      285.01132      9545.6189      0.90257098     0.88498782   
      1200  -4114.9603     -4146.8096      31.849266     -542.15906      285.51176      9659.0285      0.89197362     0.88498782   
      1300  -4114.1196     -4145.6901      31.570445     -243.43006      283.01227      9746.2516      0.88399099     0.88498782   
      1400  -4113.7697     -4146.0246      32.25491      -1214.9537      289.14813      9794.7889      0.87961044     0.88498782   
      1500  -4113.4758     -4145.8281      32.352293     -2977.1424      290.02113      9805.9514      0.87860915     0.88498782   
      1600  -4112.5273     -4145.1074      32.580175     -1037.1718      292.06396      9784.4572      0.88053925     0.88498782   
      1700  -4112.282      -4145.9164      33.634426     -3022.5448      301.51477      9735.9871      0.88492297     0.88498782   
      1800  -4111.9579     -4144.7912      32.833344      1015.947       294.33349      9672.4998      0.89073133     0.88498782   
      1900  -4111.7393     -4144.1296      32.390298      444.43361      290.36182      9609.0642      0.89661162     0.88498782   
      2000  -4111.0064     -4144.2293      33.222922     -118.76622      297.82586      9554.7382      0.90170954     0.67950381   
      2100  -4110.2469     -4143.0987      32.851712      2237.5437      294.49815      9512.8904      0.90567622     0.67950381   
      2200  -4110.1419     -4144.3925      34.250651      3171.0862      307.03889      9491.2509      0.90774111     0.67950381   
      2300  -4107.8585     -4143.5892      35.730698      2992.027       320.30673      9495.2517      0.90735863     0.67950381   
      2400  -4108.4661     -4143.9757      35.509541     -3159.3455      318.32417      9524.2936      0.90459187     0.67950381   
      2500  -4109.8582     -4145.0616      35.203396      575.96123      315.57975      9570.8356      0.90019293     0.67950381   
      2600  -4109.2372     -4144.4927      35.255563     -3800.0185      316.0474       9624.8341      0.89514256     0.67950381   
      2700  -4109.6435     -4145.0529      35.409369      2036.9216      317.42618      9675.3849      0.89046572     0.67950381   
      2800  -4109.3509     -4145.0559      35.70509       103.50804      320.07717      9716.7325      0.88667652     0.67950381   
      2900  -4110.612      -4145.6497      35.037674     -2721.9267      314.09414      9739.7159      0.88458418     0.67950381   
      3000  -4109.0697     -4144.0108      34.941019     -3233.184       313.22768      9735.721       0.88494715     0.68014383   
      3100  -4110.6525     -4144.7657      34.113193     -359.32358      305.80666      9713.4422      0.88697687     0.68014383   
      3200  -4110.8741     -4145.9725      35.098378      434.94313      314.63832      9675.9892      0.89041011     0.68014383   
      3300  -4109.4221     -4142.5516      33.129424      2551.8344      296.98769      9625.667       0.8950651      0.68014383   
      3400  -4110.4401     -4143.8924      33.452262     -176.70017      299.88176      9578.5762      0.89946548     0.68014383   
      3500  -4110.1404     -4144.8748      34.734407      3906.315       311.37551      9541.662       0.90294528     0.68014383   
      3600  -4110.913      -4144.6502      33.73722       971.91712      302.43626      9523.9932      0.90462041     0.68014383   
      3700  -4112.8336     -4146.9354      34.101788     -2202.4509      305.70442      9525.8533      0.90444376     0.68014383   
      3800  -4113.4791     -4145.9263      32.447136     -1178.4475      290.87134      9544.7787      0.90265043     0.68014383   
      3900  -4112.8844     -4146.1744      33.290041      32.340051      298.42754      9578.9195      0.89943324     0.68014383   
      4000  -4112.7333     -4145.9008      33.167497     -1729.2391      297.32899      9622.5372      0.89535623     0.78787821   
      4100  -4112.057      -4144.1346      32.077624      1195.592       287.55886      9663.2597      0.89158305     0.78787821   
      4200  -4111.0901     -4145.1961      34.106065     -839.86156      305.74276      9697.211       0.8884615      0.78787821   
      4300  -4111.7974     -4144.8528      33.055347      675.64892      296.32363      9719.3287      0.88643968     0.78787821   
      4400  -4110.9115     -4144.4502      33.538658      1035.3012      300.65626      9725.4779      0.8858792      0.78787821   
      4500  -4112.5528     -4146.2199      33.667133     -2492.4965      301.80797      9713.6731      0.88695579     0.78787821   
      4600  -4113.2202     -4145.6855      32.465284     -1957.4772      291.03403      9684.3638      0.88964012     0.78787821   
      4700  -4111.3555     -4145.82        34.464517      405.03802      308.95609      9648.0063      0.89299264     0.78787821   
      4800  -4111.4512     -4145.2386      33.787406      2768.593       302.88615      9615.4585      0.89601537     0.78787821   
      4900  -4109.37       -4143.0852      33.715236      1898.9954      302.23919      9592.8524      0.89812688     0.78787821   
      5000  -4108.2634     -4143.6028      35.339397      1776.5271      316.79893      9583.5706      0.89899672     0.63287056   
      5100  -4107.634      -4144.0578      36.423802      2548.2832      326.52004      9584.4793      0.8989115      0.63287056   
      5200  -4107.7191     -4143.5358      35.816757      2096.6957      321.0782       9597.4402      0.89769755     0.63287056   
      5300  -4108.184      -4145.0828      36.898754      153.08097      330.77774      9624.9285      0.89513377     0.63287056   
      5400  -4107.7899     -4143.7364      35.946529     -2083.5015      322.24154      9662.4734      0.89165561     0.63287056   
      5500  -4109.5102     -4144.7798      35.269609      2270.9892      316.17331      9705.5754      0.88769581     0.63287056   
      5600  -4110.3723     -4145.5909      35.218588      1562.4639      315.71594      9742.2937      0.88435012     0.63287056   
      5700  -4109.7086     -4144.3262      34.617541     -1134.0089      310.32787      9764.9425      0.88229896     0.63287056   
      5800  -4109.1234     -4144.111       34.987581     -65.12151       313.64508      9768.1091      0.88201294     0.63287056   
      5900  -4111.462      -4144.7103      33.248301     -304.74725      298.05336      9747.5997      0.88386873     0.63287056   
      6000  -4109.7093     -4143.8875      34.178223     -1926.4481      306.38962      9705.122       0.88773728     0.70486759   
      6100  -4109.2709     -4144.1785      34.907699      841.50045      312.92898      9648.3024      0.89296523     0.70486759   
      6200  -4110.3066     -4146.3495      36.042931      2137.8236      323.10573      9591.0052      0.89829985     0.70486759   
      6300  -4110.148      -4144.0675      33.919528      1804.5296      304.07055      9542.3322      0.90288185     0.70486759   
      6400  -4109.1178     -4145.5961      36.478289     -337.87585      327.00849      9513.5333      0.90561501     0.70486759   
      6500  -4110.286      -4144.8111      34.525083     -913.92739      309.49903      9511.3646      0.9058215      0.70486759   
      6600  -4111.325      -4145.1652      33.840176      737.51602      303.35921      9536.5379      0.90343043     0.70486759   
      6700  -4112.1736     -4146.435       34.261416      472.2659       307.1354       9579.0491      0.89942107     0.70486759   
      6800  -4111.7264     -4146.1398      34.413381      346.14478      308.49768      9632.1589      0.89446184     0.70486759   
      6900  -4112.1222     -4145.614       33.491808     -93.237428      300.23627      9689.9968      0.88912295     0.70486759   
      7000  -4112.4342     -4145.2991      32.864879     -1794.8715      294.61619      9742.8027      0.88430392     0.68947734   
      7100  -4110.8118     -4144.814       34.002177     -2445.3105      304.81146      9775.1461      0.88137798     0.68947734   
      7200  -4111.4455     -4144.8556      33.410198      1213.0362      299.50468      9786.0728      0.88039388     0.68947734   
      7300  -4112.287      -4145.7999      33.512901      275.36391      300.42536      9777.6276      0.8811543      0.68947734   
      7400  -4113.7332     -4146.9263      33.193118      513.82808      297.55868      9745.0191      0.88410279     0.68947734   
      7500  -4113.2017     -4146.4914      33.289775     -488.37639      298.42516      9691.8711      0.88895101     0.68947734   
      7600  -4112.7771     -4145.9692      33.192148     -1500.8977      297.54998      9628.6229      0.89479033     0.68947734   
      7700  -4112.3542     -4145.4663      33.112126      1630.2526      296.83262      9564.1568      0.90082155     0.68947734   
      7800  -4113.203      -4146.8147      33.611758      4325.2856      301.31156      9510.9415      0.9058618      0.68947734   
      7900  -4113.0923     -4147.1061      34.013792      2142.2556      304.91558      9481.1639      0.90870685     0.68947734   
      8000  -4111.955      -4146.3983      34.443327      1909.5631      308.76613      9480.2355      0.90879584     0.67191103   
      8100  -4112.6765     -4146.5142      33.837649      1225.8867      303.33656      9506.121       0.90632116     0.67191103   
      8200  -4112.4895     -4146.8354      34.345912      2405.4982      307.89286      9552.3179      0.90193801     0.67191103   
      8300  -4110.6579     -4145.5662      34.908299      1504.5661      312.93436      9609.0701      0.89661107     0.67191103   
      8400  -4111.0851     -4145.3701      34.284995      190.63515      307.34677      9669.2954      0.89102651     0.67191103   
      8500  -4110.6704     -4145.3565      34.686049      1329.9705      310.942        9721.4036      0.88625048     0.67191103   
      8600  -4110.669      -4144.7587      34.089744     -787.96676      305.59645      9761.1277      0.88264378     0.67191103   
      8700  -4109.6774     -4144.4767      34.799298     -2388.9893      311.95722      9783.8644      0.8805926      0.67191103   
      8800  -4109.5839     -4144.4209      34.836999      123.25249      312.29519      9786.441       0.88036076     0.67191103   
      8900  -4109.6666     -4144.1471      34.480495     -1893.5003      309.09933      9766.4349      0.88216414     0.67191103   
      9000  -4110.7098     -4145.1369      34.427091     -723.58093      308.62059      9731.1936      0.88535887     0.69926371   
      9100  -4110.2968     -4142.6584      32.361651     -2055.6483      290.10501      9684.3231      0.88964386     0.69926371   
      9200  -4111.2146     -4145.399       34.184426     -1275.3426      306.44523      9633.5291      0.89433462     0.69926371   
      9300  -4111.8279     -4145.8157      33.98781      -691.51768      304.68267      9586.6923      0.89870399     0.69926371   
      9400  -4112.8063     -4146.4217      33.615463      1617.6451      301.34477      9547.4922      0.90239389     0.69926371   
      9500  -4112.073      -4145.0535      32.980524      3665.036       295.65288      9522.3187      0.90477948     0.69926371   
      9600  -4112.3606     -4145.4547      33.094027      1004.8334      296.67037      9513.2672      0.90564035     0.69926371   
      9700  -4112.6968     -4146.9493      34.252507      3335.5038      307.05553      9525.9815      0.90443159     0.69926371   
      9800  -4113.0306     -4146.6597      33.629082      2572.107       301.46686      9560.4067      0.9011749      0.69926371   
      9900  -4112.6188     -4146.6458      34.026994     -872.86988      305.03393      9610.6055      0.89646783     0.69926371   
     10000  -4113.1116     -4145.2856      32.174048     -339.7017       288.42325      9661.4582      0.8917493      0.66700913   
     10100  -4113.5847     -4146.4819      32.897222     -936.44169      294.90612      9699.9483      0.88821077     0.66700913   
     10200  -4113.3982     -4145.9377      32.539508      666.90466      291.69941      9716.9259      0.88665887     0.66700913   
     10300  -4113.548      -4146.7656      33.21756       1999.7799      297.77779      9714.2947      0.88689904     0.66700913   
     10400  -4112.3878     -4146.328       33.940239     -105.0114       304.25622      9696.446       0.88853159     0.66700913   
     10500  -4112.4878     -4145.1732      32.685391     -406.18998      293.00717      9663.6723      0.89154498     0.66700913   
     10600  -4111.3776     -4146.0709      34.693235      600.03976      311.00642      9627.099       0.89493196     0.66700913   
     10700  -4111.6715     -4144.4412      32.769675     -142.75863      293.76274      9589.5512      0.89843606     0.66700913   
     10800  -4111.8207     -4145.9652      34.144489     -1667.786       306.08721      9556.6247      0.90153154     0.66700913   
     10900  -4111.0397     -4146.2804      35.240764      2619.971       315.91473      9535.0832      0.90356826     0.66700913   
     11000  -4110.29       -4144.2029      33.912836      1675.2943      304.01057      9530.3014      0.90402163     0.76514067   
     11100  -4109.6538     -4143.9817      34.327957      2810.6856      307.73191      9542.5275      0.90286337     0.76514067   
     11200  -4108.2249     -4142.7169      34.492042     -361.87371      309.20283      9571.5621      0.90012461     0.76514067   
     11300  -4109.8489     -4144.857       35.00802       1370.4835      313.8283       9611.9996      0.8963378      0.76514067   
     11400  -4109.8307     -4144.2317      34.401036      600.88354      308.38702      9653.6196      0.89247339     0.76514067   
     11500  -4111.534      -4145.1487      33.614691      1115.8778      301.33785      9693.2486      0.88882468     0.76514067   
     11600  -4111.6234     -4146.3032      34.67978      -1280.788       310.88581      9717.9336      0.88656693     0.76514067   
     11700  -4111.2912     -4144.9536      33.662427     -442.09892      301.76578      9721.3403      0.88625625     0.76514067   
     11800  -4110.8561     -4145.2613      34.405176     -895.84939      308.42413      9711.5168      0.88715272     0.76514067   
     11900  -4110.8521     -4145.5764      34.724269      2103.6312      311.28463      9690.1189      0.88911175     0.76514067   
     12000  -4110.7272     -4144.4655      33.738376     -1108.7347      302.44662      9660.391       0.89184781     0.68050265   
     12100  -4109.9309     -4144.2056      34.2747       -638.97133      307.25448      9624.8348      0.89514249     0.68050265   
     12200  -4110.3978     -4145.0088      34.611075      367.81885      310.26991      9592.9734      0.89811555     0.68050265   
     12300  -4110.9496     -4145.3955      34.445917      333.03183      308.78935      9578.5166      0.89947107     0.68050265   
     12400  -4110.5498     -4145.2159      34.66615      -196.86491      310.76363      9580.4278      0.89929164     0.68050265   
     12500  -4110.9314     -4144.7335      33.802131     -833.81587      303.01816      9595.3023      0.89789757     0.68050265   
     12600  -4110.2803     -4144.5122      34.231952      584.73214      306.87127      9615.8745      0.89597661     0.68050265   
     12700  -4108.8785     -4142.7651      33.88655      -71.05647       303.77492      9633.2459      0.89436091     0.68050265   
     12800  -4108.3883     -4142.7723      34.384039      1660.5184      308.23465      9649.2538      0.89287719     0.68050265   
     12900  -4106.7863     -4143.3646      36.578358     -12.891107      327.90556      9662.8891      0.89161725     0.68050265   
     13000  -4108.0238     -4144.6427      36.618856      1361.4396      328.2686       9675.7421      0.89043285     0.67364049   
     13100  -4108.9464     -4144.2664      35.320013      775.91363      316.62516      9689.3752      0.88917999     0.67364049   
     13200  -4109.4323     -4144.2954      34.86311      -2369.9212      312.52926      9705.0767      0.88774143     0.67364049   
     13300  -4108.1037     -4142.1894      34.085773     -2247.681       305.56085      9716.5645      0.88669185     0.67364049   
     13400  -4109.7895     -4143.2019      33.412454     -3552.8725      299.52491      9724.3996      0.88597743     0.67364049   
     13500  -4109.7073     -4144.2266      34.519285      471.18797      309.44706      9722.8575      0.88611795     0.67364049   
     13600  -4110.6817     -4144.4448      33.763184      938.24878      302.66902      9714.0049      0.88692549     0.67364049   
     13700  -4111.7258     -4145.794       34.068183     -1138.0564      305.40316      9695.3216      0.88863464     0.67364049   
     13800  -4111.9119     -4144.5754      32.663507     -374.41204      292.81099      9661.9882      0.89170038     0.67364049   
     13900  -4110.769      -4144.8877      34.11877       223.06062      305.85665      9618.7356      0.8957101      0.67364049   
     14000  -4112.1392     -4146.4045      34.265228     -231.17499      307.16957      9571.2167      0.90015709     0.78351038   
     14100  -4113.018      -4147.0887      34.070645      1487.1918      305.42523      9527.8854      0.90425086     0.78351038   
     14200  -4112.7374     -4146.295       33.557605     -618.96904      300.82611      9490.1599      0.90784546     0.78351038   
     14300  -4112.3766     -4145.8518      33.47514      -526.72527      300.08685      9469.6534      0.90981139     0.78351038   
     14400  -4110.8733     -4145.7085      34.835285     -1881.1512      312.27983      9472.3797      0.90954954     0.78351038   
     14500  -4110.5054     -4144.3252      33.819711      3255.4443      303.17575      9499.3905      0.9069633      0.78351038   
     14600  -4111.7552     -4146.3125      34.55729      -1147.8259      309.78775      9546.4375      0.90249359     0.78351038   
     14700  -4111.4611     -4145.2713      33.810232     -1197.4366      303.09078      9601.2042      0.89734563     0.78351038   
     14800  -4112.8862     -4146.6346      33.748417      1154.8798      302.53664      9659.1854      0.89195913     0.78351038   
     14900  -4112.6306     -4145.7363      33.105691     -2077.971       296.77494      9708.398       0.88743772     0.78351038   
     15000  -4112.0375     -4145.0253      32.98779      -1722.8186      295.71802      9745.0181      0.88410288     0.75993381   
     15100  -4111.7846     -4146.0661      34.281471     -2439.2698      307.31518      9762.6237      0.88250852     0.75993381   
     15200  -4109.6537     -4143.8141      34.16038       1955.5341      306.22966      9754.9457      0.88320313     0.75993381   
     15300  -4109.5948     -4144.6886      35.093817      805.66432      314.59744      9728.6035      0.88559458     0.75993381   
     15400  -4109.4181     -4144.6082      35.190162     -1688.2894      315.46111      9687.9707      0.8893089      0.75993381   
     15500  -4108.2097     -4143.3514      35.141697     -74.803843      315.02665      9640.5389      0.89368433     0.75993381   
     15600  -4108.8561     -4145.0062      36.150137      406.20656      324.06678      9602.6529      0.89721024     0.75993381   
     15700  -4109.2547     -4144.3606      35.105827      1125.0532      314.70509      9576.1667      0.8996918      0.75993381   
     15800  -4110.4811     -4145.1205      34.639365      2657.586       310.52351      9564.6062      0.90077923     0.75993381   
     15900  -4110.4817     -4144.248       33.766284      2953.9358      302.6968       9570.8744      0.90018929     0.75993381   
     16000  -4110.5616     -4144.1045      33.542898      894.54332      300.69426      9589.6621      0.89842567     0.81955096   
     16100  -4110.7481     -4144.6248      33.8767       -216.17418      303.68662      9615.6916      0.89599365     0.81955096   
     16200  -4110.9515     -4144.5313      33.579743     -354.93777      301.02456      9637.2791      0.89398662     0.81955096   
     16300  -4110.935      -4146.347       35.411956     -2890.7297      317.44938      9651.0191      0.89271387     0.81955096   
     16400  -4111.9622     -4146.9643      35.002092      2725.2633      313.77517      9657.8332      0.89208401     0.81955096   
     16500  -4112.2389     -4146.0897      33.850717      2007.903       303.4537       9661.2481      0.8917687      0.81955096   
     16600  -4112.7108     -4146.7155      34.004755      86.824828      304.83457      9663.0007      0.89160695     0.81955096   
     16700  -4112.8942     -4146.6629      33.768648      761.48255      302.71799      9659.6191      0.89191908     0.81955096   
     16800  -4113.5143     -4146.06        32.545655     -1593.9632      291.75451      9648.361       0.89295981     0.81955096   
     16900  -4113.8834     -4146.8933      33.009843      642.39495      295.91571      9629.0891      0.894747       0.81955096   
     17000  -4113.6182     -4146.8645      33.246328      352.37184      298.03567      9606.5478      0.89684648     0.72602211   
     17100  -4113.676      -4147.5153      33.839239     -2355.6329      303.35081      9579.0192      0.89942388     0.72602211   
     17200  -4112.052      -4145.4754      33.423464     -1111.2289      299.6236       9550.266       0.9021318      0.72602211   
     17300  -4112.3111     -4145.7731      33.462013      1708.604       299.96917      9528.154       0.90422537     0.72602211   
     17400  -4111.9874     -4146.9002      34.912813      1667.1212      312.97483      9515.0905      0.9054668      0.72602211   
     17500  -4112.1468     -4146.4589      34.312042     -1083.0681      307.58924      9512.1528      0.90574645     0.72602211   
     17600  -4112.7478     -4147.1849      34.437149      4017.66        308.71075      9524.7104      0.90455229     0.72602211   
     17700  -4112.7228     -4147.2185      34.495622     -60.594332      309.23493      9552.4673      0.9019239      0.72602211   
     17800  -4111.0416     -4145.4834      34.441773     -913.57932      308.7522       9592.36        0.89817298     0.72602211   
     17900  -4111.4958     -4145.3394      33.843697     -1546.0302      303.39077      9639.255       0.89380337     0.72602211   
     18000  -4111.4678     -4146.3626      34.894813     -48.177385      312.81347      9680.8434      0.88996364     0.66494735   
     18100  -4111.9186     -4146.6249      34.706373      212.95761      311.12421      9716.6534      0.88668374     0.66494735   
     18200  -4112.7227     -4146.1654      33.442765      2883.363       299.79663      9736.8947      0.88484049     0.66494735   
     18300  -4112.6028     -4146.008       33.405262     -2174.359       299.46044      9737.4058      0.88479403     0.66494735   
     18400  -4112.2706     -4145.3766      33.106048     -776.51079      296.77814      9714.1217      0.88691483     0.66494735   
     18500  -4112.8006     -4146.3074      33.50672      -628.6121       300.36995      9673.1227      0.89067397     0.66494735   
     18600  -4113.2229     -4147.7756      34.552677      269.83244      309.7464       9621.8594      0.8954193      0.66494735   
     18700  -4114.2901     -4148.6166      34.326506      664.1703       307.7189       9568.9969      0.90036591     0.66494735   
     18800  -4114.5924     -4147.7388      33.146421     -64.517381      297.14006      9519.5718      0.90504056     0.66494735   
     18900  -4113.6063     -4147.4524      33.846025      2504.0243      303.41163      9479.1593      0.90889902     0.66494735   
     19000  -4114.1674     -4148.9035      34.736046     -905.48521      311.3902       9459.7875      0.91076026     0.73958879   
     19100  -4113.5025     -4145.4758      31.973379      2961.3359      286.62436      9462.6134      0.91048828     0.73958879   
     19200  -4111.9971     -4146.5382      34.541092      3841.5498      309.64255      9486.5515      0.90819078     0.73958879   
     19300  -4111.6794     -4146.6877      35.008314      857.96764      313.83094      9527.863       0.90425299     0.73958879   
     19400  -4111.6423     -4145.4531      33.810748      2411.537       303.0954       9585.5602      0.89881012     0.73958879   
     19500  -4111.155      -4145.8361      34.681134      1103.2703      310.89795      9650.7598      0.89273785     0.73958879   
     19600  -4110.9146     -4144.4462      33.531561     -1945.1527      300.59264      9711.701       0.8871359      0.73958879   
     19700  -4110.1053     -4144.7825      34.677192     -1788.0132      310.86261      9762.1459      0.88255171     0.73958879   
     19800  -4109.6352     -4144.3174      34.682243     -559.05421      310.90789      9792.5772      0.87980911     0.73958879   
     19900  -4109.926      -4144.1338      34.207755      522.75224      306.65436      9800.3904      0.87910769     0.73958879   
     20000  -4110.0263     -4145.0516      35.025347      1020.2344      313.98364      9785.8898      0.88041034     0.67333616   
     20100  -4111.7224     -4144.8596      33.137215     -1879.9808      297.05753      9745.8049      0.88403151     0.67333616   
     20200  -4112.2694     -4146.7979      34.52844      -3416.1849      309.52912      9684.2925      0.88964667     0.67333616   
     20300  -4112.8455     -4145.1919      32.34642       116.43376      289.96848      9609.6         0.89656163     0.67333616   
     20400  -4112.1662     -4147.1582      34.99197       2.3370288      313.68443      9539.5652      0.90314374     0.67333616   
     20500  -4110.2194     -4145.5461      35.32672       1805.2832      316.68528      9489.9625      0.90786435     0.67333616   
     20600  -4111.7176     -4145.1388      33.421198      3250.9327      299.60329      9470.8681      0.90969471     0.67333616   
     20700  -4112.6837     -4145.871       33.18727      -381.9628       297.50625      9477.0827      0.90909817     0.67333616   
     20800  -4111.7395     -4145.8135      34.074009      207.8928       305.4554       9500.6518      0.9068429      0.67333616   
     20900  -4111.1531     -4146.2449      35.091768     -1541.3392      314.57906      9537.3064      0.90335764     0.67333616   
     21000  -4111.6718     -4145.3429      33.671084     -243.83629      301.84339      9581.3715      0.89920306     0.76048244   
     21100  -4111.3404     -4147.2192      35.878771     -756.26627      321.63412      9624.8876      0.89513758     0.76048244   
     21200  -4111.595      -4145.7921      34.197105     -205.07478      306.55889      9662.9305      0.89161343     0.76048244   
     21300  -4110.4023     -4145.365       34.962711     -1371.5795      313.42213      9691.476       0.88898725     0.76048244   
     21400  -4110.324      -4144.715       34.39093      -904.3911       308.29643      9703.8043      0.88785782     0.76048244   
     21500  -4109.4008     -4142.3482      32.947464     -3023.3255      295.35651      9699.5278      0.88824928     0.76048244   
     21600  -4111.0595     -4145.832       34.772561     -638.98925      311.71754      9679.9079      0.89004964     0.76048244   
     21700  -4111.4113     -4145.5213      34.109926      77.852359      305.77737      9649.0834      0.89289295     0.76048244   
     21800  -4110.851      -4145.0874      34.23639       303.16436      306.91105      9612.9473      0.89624944     0.76048244   
     21900  -4111.3782     -4145.1853      33.80704       1277.0164      303.06216      9580.5787      0.89927747     0.76048244   
     22000  -4110.3842     -4144.4415      34.057296      1227.8411      305.30557      9554.59        0.90172353     0.76395209   
     22100  -4109.9967     -4145.1695      35.172807      4497.8212      315.30554      9541.4197      0.9029682      0.76395209   
     22200  -4110.4348     -4145.1579      34.723127      10.291353      311.27439      9538.6654      0.90322893     0.76395209   
     22300  -4110.1001     -4145.2402      35.140036      3636.5419      315.01176      9548.1875      0.90232818     0.76395209   
     22400  -4111.2744     -4146.0077      34.733283      1040.2531      311.36543      9568.9699      0.90036845     0.76395209   
     22500  -4112.0038     -4146.2212      34.217354     -3011.1077      306.74041      9595.9624      0.8978358      0.76395209   
     22600  -4112.7026     -4146.1163      33.413723      1545.1354      299.53628      9626.318       0.89500457     0.76395209   
     22700  -4113.7608     -4147.339       33.578283     -1264.2513      301.01148      9654.3787      0.89240321     0.76395209   
     22800  -4114.2552     -4146.4585      32.203269     -439.98605      288.68521      9670.7195      0.89089531     0.76395209   
     22900  -4114.2646     -4145.5627      31.298029     -3620.0157      280.5702       9672.6223      0.89072005     0.76395209   
     23000  -4113.315      -4146.8606      33.54562      -2389.4937      300.71867      9664.5974      0.89145965     0.86711408   
     23100  -4112.2055     -4145.6877      33.482118     -461.67115      300.1494       9647.179       0.89306921     0.86711408   
     23200  -4110.145      -4143.5375      33.392501     -1435.6483      299.34603      9621.5567      0.89544747     0.86711408   
     23300  -4110.0461     -4144.1155      34.069355     -320.42785      305.41368      9597.46        0.8976957      0.86711408   
     23400  -4109.99       -4143.8362      33.846203      3041.0492      303.41323      9580.0908      0.89932327     0.86711408   
     23500  -4108.9859     -4144.1372      35.151354      2537.9479      315.11322      9570.7773      0.90019842     0.86711408   
     23600  -4109.3636     -4145.4552      36.091599     -538.17586      323.54201      9575.4731      0.89975696     0.86711408   
     23700  -4110.2658     -4143.7323      33.466545     -1991.3769      300.0098       9593.6386      0.89805328     0.86711408   
     23800  -4109.9403     -4145.0525      35.112153     -327.07172      314.7618       9620.0998      0.89558308     0.86711408   
     23900  -4109.9599     -4144.8271      34.867192     -987.74691      312.56586      9646.9608      0.89308941     0.86711408   
     24000  -4110.1463     -4144.9603      34.813981      1830.6177      312.08885      9669.2385      0.89103175     0.66362081   
     24100  -4110.4706     -4144.7258      34.255212     -1456.1457      307.07978      9683.1344      0.88975307     0.66362081   
     24200  -4109.1136     -4143.6927      34.579188     -4051.5405      309.98406      9691.5994      0.88897593     0.66362081   
     24300  -4109.6104     -4143.6542      34.043793     -5694.1994      305.18452      9691.5757      0.8889781      0.66362081   
     24400  -4110.8253     -4143.8879      33.062577     -652.48603      296.38845      9681.1882      0.88993194     0.66362081   
     24500  -4111.2314     -4145.5179      34.286443      1621.8632      307.35975      9663.717       0.89154086     0.66362081   
     24600  -4112.3683     -4146.1303      33.761976     -1261.9899      302.65818      9634.1987      0.89427246     0.66362081   
     24700  -4111.965      -4145.0962      33.131262      1200.289       297.00417      9592.4488      0.89816467     0.66362081   
     24800  -4112.2223     -4146.3456      34.123373      900.0962       305.89791      9546.1214      0.90252346     0.66362081   
     24900  -4111.4119     -4146.5752      35.163334     -907.04668      315.22062      9502.3511      0.90668072     0.66362081   
     25000  -4112.5343     -4145.9542      33.419931      1915.647       299.59193      9469.067       0.90986774     0.76017925   
     25100  -4113.6078     -4146.1594      32.551582      852.08715      291.80764      9452.0642      0.91150445     0.76017925   
     25200  -4112.6103     -4146.9019      34.291675      1013.4         307.40665      9450.5075      0.9116546      0.76017925   
     25300  -4111.2664     -4146.8078      35.541353     -643.433        318.60936      9475.6369      0.90923689     0.76017925   
     25400  -4112.984      -4146.0409      33.056954      901.06595      296.33804      9526.8564      0.90434853     0.76017925   
     25500  -4111.1928     -4144.6693      33.476553     -1476.2133      300.09952      9596.2777      0.8978063      0.76017925   
     25600  -4109.9421     -4143.3388      33.396695     -1660.7643      299.38363      9669.3274      0.89102357     0.76017925   
     25700  -4109.2307     -4145.4617      36.230996      210.44391      324.79164      9736.487       0.88487753     0.76017925   
     25800  -4109.4633     -4143.6405      34.177143     -4129.6355      306.37994      9785.3765      0.88045652     0.76017925   
     25900  -4110.0782     -4144.6625      34.584349     -707.92078      310.03032      9807.8979      0.87843478     0.76017925   
     26000  -4110.8129     -4144.5495      33.736638      1556.9916      302.43105      9800.0779      0.87913572     0.74592565   
     26100  -4110.026      -4143.6416      33.615539     -1291.0098      301.34546      9759.3775      0.88280207     0.74592565   
     26200  -4109.6524     -4144.2074      34.55491      -2107.3743      309.76642      9696.6178      0.88851585     0.74592565   
     26300  -4110.0948     -4143.6471      33.552306      538.30847      300.7786       9619.3688      0.89565113     0.74592565   
     26400  -4110.6203     -4144.5904      33.97008       176.45945      304.52373      9541.8277      0.9029296      0.74592565   
     26500  -4111.8658     -4144.7612      32.895352      1790.6633      294.88936      9480.944       0.90872793     0.74592565   
     26600  -4112.5646     -4146.3145      33.749944     -1384.783       302.55033      9446.2358      0.91206685     0.74592565   
     26700  -4111.7749     -4145.0206      33.245739      3182.7857      298.03039      9441.2129      0.91255209     0.74592565   
     26800  -4111.6249     -4146.4213      34.796368     -327.6835       311.93096      9467.8012      0.90998939     0.74592565   
     26900  -4111.4447     -4145.6854      34.240722      1046.7223      306.94989      9516.1633      0.90536472     0.74592565   
     27000  -4111.1533     -4144.9374      33.784139      842.93733      302.85687      9578.9781      0.89942774     0.76994069   
     27100  -4110.2571     -4144.9509      34.69387       810.99169      311.01212      9643.0222      0.89345419     0.76994069   
     27200  -4109.4309     -4144.613       35.182059     -3690.273       315.38848      9703.2505      0.88790849     0.76994069   
     27300  -4109.4427     -4143.5909      34.148167     -203.81072      306.12018      9754.9863      0.88319946     0.76994069   
     27400  -4110.368      -4145.5242      35.156219      1190.7837      315.15684      9785.6955      0.88042782     0.76994069   
     27500  -4111.0703     -4144.6795      33.60922      -3262.7633      301.28881      9789.8283      0.88005615     0.76994069   
     27600  -4111.1695     -4145.4879      34.31844      -2044.5085      307.64659      9768.3757      0.88198887     0.76994069   
     27700  -4110.3342     -4145.1082      34.774029     -75.935705      311.7307       9725.5805      0.88586985     0.76994069   
     27800  -4109.4117     -4144.8692      35.457498     -1415.2039      317.85764      9673.3557      0.89065252     0.76994069   
     27900  -4108.9879     -4143.6579      34.669955      943.4273       310.79773      9619.1063      0.89567558     0.76994069   
     28000  -4108.7715     -4144.3105      35.539033      1291.4604      318.58856      9567.3702      0.90051899     0.74417891   
     28100  -4107.6668     -4144.1658      36.499026      1587.2973      327.19438      9529.66        0.90408248     0.74417891   
     28200  -4109.0476     -4144.6994      35.651731      3399.6874      319.59884      9513.0955      0.90565669     0.74417891   
     28300  -4109.6489     -4145.3918      35.742903      2006.7351      320.41614      9519.7046      0.90502794     0.74417891   
     28400  -4108.0972     -4143.7515      35.654264      3262.9276      319.62154      9544.0608      0.90271833     0.74417891   
     28500  -4108.0186     -4144.3716      36.352992      1511.0276      325.88526      9584.2857      0.89892965     0.74417891   
     28600  -4108.4415     -4143.9071      35.465632     -369.26807      317.93055      9631.0852      0.89456156     0.74417891   
     28700  -4108.0386     -4143.2686      35.229939      145.31998      315.8177       9678.3637      0.89019166     0.74417891   
     28800  -4109.8269     -4144.5207      34.693771     -942.02011      311.01123      9718.888       0.88647987     0.74417891   
     28900  -4111.2867     -4145.0376      33.750882     -1859.1451      302.55873      9742.5532      0.88432657     0.74417891   
     29000  -4111.4939     -4145.0052      33.511354     -3090.762       300.41149      9744.0038      0.88419491     0.70301283   
     29100  -4111.2948     -4145.1316      33.836809     -637.27531      303.32902      9723.9853      0.88601518     0.70301283   
     29200  -4110.8992     -4144.6296      33.730399     -1520.6315      302.37511      9686.6208      0.88943283     0.70301283   
     29300  -4112.027      -4146.3456      34.318599     -113.86238      307.64802      9639.3299      0.89379642     0.70301283   
     29400  -4109.9284     -4143.8777      33.949223      1290.8845      304.33676      9590.2547      0.89837015     0.70301283   
     29500  -4110.1521     -4145.4345      35.282447      2760.354       316.2884       9554.2976      0.90175113     0.70301283   
     29600  -4109.6592     -4144.0105      34.351209      2510.9731      307.94035      9530.3527      0.90401677     0.70301283   
     29700  -4109.0615     -4143.5962      34.534683      344.17653      309.58509      9523.6046      0.90465732     0.70301283   
     29800  -4109.3454     -4144.2543      34.908905      1292.36        312.9398       9536.2445      0.90345823     0.70301283   
     29900  -4111.7796     -4146.6955      34.915885      1402.337       313.00237      9565.6498      0.90068095     0.70301283   
     30000  -4113.1604     -4146.7006      33.540223     -399.861        300.67029      9603.7808      0.89710488     0.69570768   
     30100  -4114.1757     -4147.3899      33.214221     -1341.3881      297.74785      9641.285       0.89361518     0.69570768   
     30200  -4113.9181     -4147.1526      33.234494     -1363.6603      297.92959      9675.1089      0.89049112     0.69570768   
     30300  -4113.404      -4146.3534      32.949401      128.1087       295.37388      9700.2489      0.88818325     0.69570768   
     30400  -4114.4473     -4146.4116      31.964337     -3192.1875      286.54331      9708.6872      0.88741128     0.69570768   
     30500  -4113.2713     -4147.3019      34.03058      -1.4221878      305.06608      9695.409       0.88862662     0.69570768   
     30600  -4112.9605     -4146.468       33.507523     -2578.0682      300.37715      9665.6857      0.89135928     0.69570768   
     30700  -4112.5443     -4146.3229      33.778626      772.28185      302.80744      9627.9676      0.89485122     0.69570768   
     30800  -4112.0558     -4146.1487      34.092896      4719.8504      305.62471      9585.3966      0.89882547     0.69570768   
     30900  -4110.2655     -4145.1743      34.908709      1993.2088      312.93804      9547.0866      0.90243222     0.69570768   
     31000  -4108.9832     -4145.2935      36.31032       1643.1721      325.50274      9520.95        0.90490955     0.72445842   
     31100  -4109.6999     -4145.4191      35.719199      2821.3472      320.20365      9517.8497      0.90520432     0.72445842   
     31200  -4109.4336     -4144.5273      35.093654      1801.2855      314.59597      9534.1271      0.90365887     0.72445842   
     31300  -4109.8336     -4145.7148      35.881267      1019.1181      321.6565       9571.3864      0.90014113     0.72445842   
     31400  -4110.1172     -4144.742       34.624835     -1154.9007      310.39326      9625.6031      0.89507104     0.72445842   
     31500  -4109.6694     -4144.8595      35.190113      625.931        315.46068      9687.7493      0.88932923     0.72445842   
     31600  -4108.8715     -4142.7332      33.861726     -520.9725       303.55239      9745.8004      0.88403191     0.72445842   
     31700  -4107.1127     -4142.7628      35.650083     -2865.7247      319.58406      9787.5158      0.88026408     0.72445842   
     31800  -4107.5535     -4141.901       34.347537     -1513.2172      307.90743      9805.055       0.87868947     0.72445842   
     31900  -4108.6323     -4142.9122      34.279842     -825.17721      307.30058      9798.4756      0.87927948     0.72445842   
     32000  -4107.817      -4142.6539      34.836902     -155.56348      312.29432      9769.0321      0.8819296      0.71905984   
     32100  -4106.1954     -4141.7722      35.576804     -511.96065      318.92715      9725.6477      0.88586373     0.71905984   
     32200  -4107.7925     -4144.7478      36.955248      1276.2436      331.28417      9674.9619      0.89050465     0.71905984   
     32300  -4109.1377     -4143.9486      34.810857      2180.9486      312.06085      9625.4322      0.89508693     0.71905984   
     32400  -4109.1247     -4144.2785      35.153817      1280.3545      315.1353       9584.3191      0.89892652     0.71905984   
     32500  -4108.5958     -4145.1172      36.52148      -382.7279       327.39567      9555.1029      0.90167512     0.71905984   
     32600  -4109.5762     -4145.7908      36.214668      2805.1755      324.64526      9546.7954      0.90245975     0.71905984   
     32700  -4109.7148     -4144.2266      34.51174       1017.2614      309.37942      9563.0112      0.90092947     0.71905984   
     32800  -4109.8323     -4144.5012      34.668889      539.29358      310.78817      9602.128       0.89725929     0.71905984   
     32900  -4109.6562     -4145.5427      35.886489      1939.0423      321.70332      9652.1972      0.89260491     0.71905984   
     33000  -4110.6608     -4145.6898      35.029036     -802.3746       314.0167       9702.3827      0.88798791     0.78642114   
     33100  -4109.6016     -4144.5022      34.900617     -3708.8686      312.8655       9743.9242      0.88420214     0.78642114   
     33200  -4108.8812     -4142.5578      33.676631     -2387.7138      301.89311      9768.9127      0.88194038     0.78642114   
     33300  -4110.3685     -4143.9596      33.591124     -888.35676      301.12658      9773.6625      0.88151178     0.78642114   
     33400  -4110.096      -4144.9556      34.85967      -1987.1265      312.49843      9758.4846      0.88288284     0.78642114   
     33500  -4109.649      -4143.5543      33.905345     -1877.6142      303.94342      9726.5593      0.88578071     0.78642114   
     33600  -4110.6105     -4144.6356      34.025041      1488.9618      305.01642      9681.3018      0.88992149     0.78642114   
     33700  -4110.729      -4144.3187      33.589605      928.3301       301.11297      9630.912       0.89457765     0.78642114   
     33800  -4111.6462     -4144.2186      32.57249      -671.4898       291.99507      9581.8472      0.89915842     0.78642114   
     33900  -4112.8537     -4146.6263      33.772622      417.19934      302.75362      9537.789       0.90331193     0.78642114   
     34000  -4111.9633     -4145.8996      33.936274     -513.84668      304.22067      9505.6241      0.90636854     0.80392264   
     34100  -4111.9316     -4144.9805      33.048919      520.17887      296.266        9489.5987      0.90789915     0.80392264   
     34200  -4112.7111     -4147.1294      34.418303      1410.5418      308.54181      9493.7667      0.90750056     0.80392264   
     34300  -4111.7123     -4146.0553      34.342968     -447.04107      307.86647      9517.4112      0.90524602     0.80392264   
     34400  -4112.2523     -4145.5335      33.281167      3023.682       298.34798      9559.3063      0.90127864     0.80392264   
     34500  -4112.8513     -4146.2914      33.440123      776.70087      299.77295      9611.0187      0.89642929     0.80392264   
     34600  -4112.7355     -4144.5757      31.840118      1201.0892      285.42975      9663.9229      0.89152187     0.80392264   
     34700  -4111.8509     -4145.3347      33.483816     -256.34244      300.16463      9710.1484      0.88727775     0.80392264   
     34800  -4113.4165     -4146.844       33.427491     -2470.1883      299.6597       9740.7866      0.88448695     0.80392264   
     34900  -4112.1434     -4145.9587      33.815329     -736.9801       303.13647      9750.0073      0.88365047     0.80392264   
     35000  -4112.7831     -4145.535       32.75199      -2006.0734      293.6042       9738.0494      0.88473556     0.63788489   
     35100  -4112.6246     -4146.5828      33.958151     -3121.146       304.41679      9709.471       0.88733965     0.63788489   
     35200  -4113.0386     -4144.9818      31.9432        551.96971      286.35382      9665.0671      0.89141632     0.63788489   
     35300  -4111.7354     -4145.4117      33.676234      1650.402       301.88955      9614.7235      0.89608387     0.63788489   
     35400  -4111.3332     -4146.0333      34.700119     -1122.1552      311.06814      9565.6854      0.9006776      0.63788489   
     35500  -4112.1584     -4146.938       34.779633      1296.1929      311.78094      9527.9467      0.90424505     0.63788489   
     35600  -4112.4357     -4145.6484      33.212703      4324.8012      297.73424      9509.3273      0.90601557     0.63788489   
     35700  -4113.8031     -4146.824       33.020907     -426.98751      296.01489      9513.5842      0.90561017     0.63788489   
     35800  -4113.9578     -4146.4692      32.511428     -342.1692       291.44769      9537.0266      0.90338414     0.63788489   
     35900  -4114.7701     -4147.1208      32.350718      1136.7048      290.00701      9578.5288      0.89946992     0.63788489   
     36000  -4113.7171     -4146.8501      33.133056      271.04239      297.02025      9630.5213      0.89461394     0.74689162   
     36100  -4113.6415     -4146.2851      32.643581      1048.0399      292.63237      9684.2083      0.88965441     0.74689162   
     36200  -4114.2613     -4145.7798      31.518412     -2156.0692      282.54583      9725.5413      0.88587343     0.74689162   
     36300  -4113.1809     -4146.2062      33.025315     -2204.6573      296.05441      9748.4225      0.88379414     0.74689162   
     36400  -4112.9249     -4146.6755      33.750571     -2287.7805      302.55594      9750.6252      0.88359448     0.74689162   
     36500  -4110.9948     -4144.2574      33.262583     -2019.6926      298.18139      9733.7196      0.88512911     0.74689162   
     36600  -4110.5476     -4144.7955      34.24787       951.43582      307.01397      9706.2451      0.88763456     0.74689162   
     36700  -4109.9518     -4143.8111      33.859297     -3084.6524      303.53062      9670.7311      0.89089424     0.74689162   
     36800  -4110.5465     -4145.6386      35.09214       1177.5551      314.5824       9630.5936      0.89460722     0.74689162   
     36900  -4111.3362     -4145.5699      34.233705      947.09684      306.88699      9595.5358      0.89787572     0.74689162   
     37000  -4111.2912     -4146.2738      34.982647      1415.1         313.60085      9569.1504      0.90035147     0.79080184   
     37100  -4110.5397     -4144.1615      33.621753      463.16412      301.40116      9556.8604      0.9015093      0.79080184   
     37200  -4111.0956     -4145.0826      33.987027      1988.1568      304.67565      9563.3473      0.90089781     0.79080184   
     37300  -4111.4436     -4144.3979      32.954256      1238.0645      295.4174       9583.5894      0.89899496     0.79080184   
     37400  -4112.0707     -4145.1549      33.08425       493.20346      296.58273      9617.8174      0.89579561     0.79080184   
     37500  -4111.5383     -4145.921       34.382718     -1294.4761      308.22281      9658.0684      0.89206228     0.79080184   
     37600  -4111.5937     -4147.0141      35.42039       1849.3576      317.52498      9698.2713      0.88836436     0.79080184   
     37700  -4111.6513     -4144.7246      33.073376     -1200.2407      296.48525      9731.3465      0.88534496     0.79080184   
     37800  -4108.6722     -4143.1382      34.466014      1853.2859      308.96951      9750.4179      0.88361327     0.79080184   
     37900  -4109.0479     -4144.1647      35.116745     -1199.2279      314.80297      9761.0168      0.88265381     0.79080184   
     38000  -4109.0349     -4145.0473      36.012439     -407.52963      322.83239      9759.6431      0.88277804     0.80468814   
     38100  -4109.8773     -4145.9536      36.076239      116.21749      323.40432      9745.4095      0.88406738     0.80468814   
     38200  -4110.9021     -4144.769       33.866881     -703.7953       303.59861      9721.6921      0.88622418     0.80468814   
     38300  -4111.1211     -4145.5209      34.399761      696.67833      308.37559      9695.4459      0.88862324     0.80468814   
     38400  -4110.2785     -4145.5052      35.2267        1035.402       315.78866      9665.9453      0.89133534     0.80468814   
     38500  -4110.4682     -4144.6546      34.186344      79.069443      306.46241      9640.5392      0.8936843      0.80468814   
     38600  -4110.1194     -4144.6146      34.495265      1838.7658      309.23173      9623.795       0.89523921     0.80468814   
     38700  -4109.507      -4143.9398      34.432854      950.26048      308.67225      9621.8374      0.89542135     0.80468814   
     38800  -4110.9408     -4145.5287      34.587826     -609.78792      310.06149      9634.9427      0.8942034      0.80468814   
     38900  -4109.9827     -4145.8426      35.859935      1734.7182      321.46527      9659.2599      0.89195224     0.80468814   
     39000  -4108.9636     -4143.9832      35.019538     -1156.2103      313.93156      9691.9405      0.88894464     0.72429358   
     39100  -4110.0387     -4144.6544      34.615762     -1430.2609      310.31192      9728.6363      0.8855916      0.72429358   
     39200  -4110.3851     -4144.0301      33.645045     -762.7243       301.60996      9760.2598      0.88272226     0.72429358   
     39300  -4111.154      -4145.3897      34.23577      -834.70403      306.90549      9774.3713      0.88144785     0.72429358   
     39400  -4110.9697     -4145.4528      34.483152     -2395.0379      309.12315      9769.9033      0.88185096     0.72429358   
     39500  -4110.2562     -4143.7008      33.44461      -626.9242       299.81317      9751.8961      0.88347932     0.72429358   
     39600  -4111.4682     -4144.4542      32.985984     -2359.5942      295.70183      9720.8438      0.88630152     0.72429358   
     39700  -4112.1567     -4145.7695      33.612874      480.48815      301.32156      9679.8408      0.89005581     0.72429358   
     39800  -4110.4956     -4145.9472      35.451602     -1506.555       317.80479      9639.1966      0.89380878     0.72429358   
     39900  -4111.7149     -4144.4638      32.748894     -205.46504      293.57644      9604.3361      0.89705301     0.72429358   
     40000  -4112.5159     -4146.4926      33.976682      573.37686      304.58291      9577.2167      0.89959315     0.68344049   
     40100  -4112.7313     -4146.033       33.301717      3075.486       298.53221      9561.7848      0.90104502     0.68344049   
     40200  -4111.2327     -4146.1079      34.875232      2634.6483      312.63793      9561.9613      0.90102839     0.68344049   
     40300  -4110.5753     -4145.2423      34.666933      2251.8187      310.77065      9582.9015      0.8990595      0.68344049   
     40400  -4111.5648     -4145.8666      34.301842      487.70228      307.4978       9621.5102      0.89545179     0.68344049   
     40500  -4111.0709     -4144.1232      33.052209     -2029.025       296.2955       9663.9589      0.89151855     0.68344049   
     40600  -4110.1149     -4144.5001      34.385219     -455.06159      308.24522      9702.3017      0.88799533     0.68344049   
     40700  -4110.7514     -4144.9135      34.162097     -1115.5045      306.24506      9729.9197      0.88547479     0.68344049   
     40800  -4111.3937     -4144.1353      32.741614      208.09982      293.51118      9739.3374      0.88461855     0.68344049   
     40900  -4112.0342     -4146.121       34.086836     -105.64392      305.57038      9728.7546      0.88558083     0.68344049   
     41000  -4111.1373     -4145.0799      33.942561     -1624.3801      304.27703      9699.2121      0.8882782      0.6617918    
     41100  -4111.2769     -4146.9725      35.695619     -1464.4797      319.99227      9661.7824      0.89171938     0.6617918    
     41200  -4110.9083     -4145.8521      34.943804      161.46975      313.25264      9620.492       0.89554657     0.6617918    
     41300  -4109.5091     -4144.8765      35.367381     -4.4343886      317.04978      9587.2352      0.8986531      0.6617918    
     41400  -4109.2495     -4145.0839      35.834414      1903.3442      321.23649      9565.5848      0.90068707     0.6617918    
     41500  -4108.0488     -4144.4164      36.367643      480.26         326.0166       9555.3541      0.90165142     0.6617918    
     41600  -4107.7258     -4142.4639      34.738074      2910.0867      311.40838      9563.4426      0.90088882     0.6617918    
     41700  -4107.4332     -4142.7552      35.321988      3241.359       316.64286      9588.5952      0.89852563     0.6617918    
     41800  -4107.0872     -4143.6103      36.523103     -1370.7069      327.41022      9628.5911      0.89479328     0.6617918    
     41900  -4108.6888     -4143.6368      34.948007     -1123.1778      313.29032      9672.979       0.8906872      0.6617918    
     42000  -4108.5414     -4144.2714      35.730008     -799.794        320.30055      9711.3837      0.88716489     0.86171679   
     42100  -4107.6558     -4142.4414      34.785517     -623.20297      311.83368      9737.7443      0.88476328     0.86171679   
     42200  -4107.3874     -4143.844       36.456689     -1180.7151      326.81485      9750.1176      0.88364048     0.86171679   
     42300  -4107.6111     -4141.6611      34.049997     -687.87163      305.24014      9743.7874      0.88421455     0.86171679   
     42400  -4107.7127     -4142.5976      34.884877     -1932.0939      312.7244       9724.6812      0.88595178     0.86171679   
     42500  -4107.1933     -4142.5156      35.322362     -1638.4378      316.64622      9697.2897      0.88845428     0.86171679   
     42600  -4105.7334     -4141.8413      36.107947      1264.1188      323.68857      9669.993       0.89096224     0.86171679   
     42700  -4106.2354     -4142.5327      36.297318      2259.1894      325.38618      9650.5952      0.89275308     0.86171679   
     42800  -4107.0367     -4142.4958      35.459179     -3473.8024      317.87271      9642.2525      0.89352551     0.86171679   
     42900  -4107.3056     -4142.7639      35.458262     -1924.2711      317.86448      9639.9756      0.89373655     0.86171679   
     43000  -4107.2235     -4142.4182      35.194685      218.10697      315.50166      9645.2736      0.89324564     0.88316759   
     43100  -4107.4991     -4142.6199      35.120784      428.40754      314.83918      9656.2484      0.89223042     0.88316759   
     43200  -4109.4662     -4143.8702      34.403997      192.21091      308.41356      9670.5074      0.89091485     0.88316759   
     43300  -4111.6657     -4145.1664      33.500713     -3459.4794      300.3161       9682.2062      0.88983837     0.88316759   
     43400  -4112.2403     -4145.0604      32.82014       906.69044      294.21512      9683.424       0.88972646     0.88316759   
     43500  -4111.4235     -4145.6314      34.207907      27.100135      306.65572      9682.6215      0.8898002      0.88316759   
     43600  -4111.1635     -4145.0253      33.861846      2871.6071      303.55347      9676.341       0.89037774     0.88316759   
     43700  -4111.5471     -4145.2031      33.655977     -317.65934      301.70796      9664.8901      0.89143265     0.88316759   
     43800  -4109.8872     -4144.6977      34.810493     -768.02772      312.05758      9648.4378      0.8929527      0.88316759   
     43900  -4110.8394     -4145.5294      34.69003      -1604.6874      310.97769      9632.7182      0.89440991     0.88316759   
     44000  -4109.5698     -4144.3188      34.749007      190.59266      311.50639      9619.6878      0.89562143     0.64653356   
     44100  -4109.9699     -4143.565       33.595077     -1166.2307      301.16202      9609.7329      0.89654923     0.64653356   
     44200  -4108.2536     -4143.5369      35.283271     -1113.9297      316.29579      9607.5425      0.89675362     0.64653356   
     44300  -4109.9072     -4142.8597      32.952539      1063.8834      295.40201      9612.5649      0.89628509     0.64653356   
     44400  -4111.007      -4145.0004      33.993391      1723.0868      304.73269      9626.9353      0.89494718     0.64653356   
     44500  -4111.9376     -4146.3862      34.448572      1329.3925      308.81316      9647.6632      0.8930244      0.64653356   
     44600  -4112.5722     -4146.8163      34.244096     -893.12702      306.98013      9671.5016      0.89082326     0.64653356   
     44700  -4111.8946     -4144.734       32.839338     -960.77085      294.38723      9691.5291      0.88898238     0.64653356   
     44800  -4111.7094     -4144.5505      32.84107      -3661.034       294.40275      9701.9159      0.88803064     0.64653356   
     44900  -4111.7103     -4145.1885      33.478243     -709.64116      300.11467      9698.1358      0.88837677     0.64653356   
     45000  -4112.4456     -4144.2576      31.811947     -2024.3933      285.17721      9676.7988      0.89033561     0.68255956   
     45100  -4114.4249     -4147.5983      33.173421     -1835.4378      297.3821       9641.5523      0.89359041     0.68255956   
     45200  -4115.0991     -4147.8519      32.752855     -442.02449      293.61195      9599.831       0.89747399     0.68255956   
     45300  -4113.0127     -4146.8673      33.854618      1803.8315      303.48867      9558.5112      0.90135361     0.68255956   
     45400  -4114.4593     -4147.9663      33.506958      2158.5438      300.37208      9529.9405      0.90405587     0.68255956   
     45500  -4115.3686     -4147.7436      32.375021      1271.0939      290.22487      9516.5285      0.90532998     0.68255956   
     45600  -4115.6978     -4148.1988      32.50098       1724.2052      291.35402      9519.8017      0.9050187      0.68255956   
     45700  -4113.4038     -4146.6068      33.203018     -758.31594      297.64742      9538.3674      0.90325716     0.68255956   
     45800  -4113.8064     -4146.5007      32.694303     -1059.444       293.08706      9568.8492      0.90037981     0.68255956   
     45900  -4113.3566     -4147.8745      34.517942      708.93406      309.43501      9606.7901      0.89682386     0.68255956   
     46000  -4113.5467     -4146.4398      32.8931        205.82461      294.86917      9645.0658      0.89326488     0.59676358   
     46100  -4113.1577     -4146.2864      33.128611      492.39894      296.9804       9678.6767      0.89016287     0.59676358   
     46200  -4112.5637     -4145.7624      33.198697     -1428.062       297.60869      9703.0959      0.88792265     0.59676358   
     46300  -4112.7753     -4144.8363      32.061028      3325.1231      287.41009      9717.6292      0.8865947      0.59676358   
     46400  -4111.6119     -4145.1417      33.529796      688.79888      300.57681      9723.7972      0.88603232     0.59676358   
     46500  -4110.732      -4144.28        33.547951     -1779.7812      300.73957      9725.3693      0.88588909     0.59676358   
     46600  -4111.0448     -4144.9063      33.861441     -2050.0467      303.54984      9719.1705      0.88645411     0.59676358   
     46700  -4112.6491     -4145.4011      32.751997     -2571.5053      293.60426      9705.3154      0.88771958     0.59676358   
     46800  -4111.714      -4145.73        34.015968      123.76868      304.93509      9683.5444      0.8897154      0.59676358   
     46900  -4110.4893     -4144.0277      33.538436     -2262.5091      300.65427      9661.0123      0.89179045     0.59676358   
     47000  -4110.2389     -4144.5401      34.301128      1156.7584      307.4914       9642.7312      0.89348115     0.77867441   
     47100  -4111.2249     -4145.1569      33.931983      1797.4752      304.18221      9630.5974      0.89460687     0.77867441   
     47200  -4111.7554     -4146.2429      34.487434      241.66403      309.16153      9623.9823      0.89522179     0.77867441   
     47300  -4114.1361     -4147.6099      33.473778     -1626.9922      300.07464      9627.3898      0.89490493     0.77867441   
     47400  -4112.7772     -4146.4594      33.682206      2728.6072      301.94309      9637.7796      0.8939402      0.77867441   
     47500  -4111.5254     -4145.9336      34.408169     -1157.5906      308.45096      9651.3599      0.89268235     0.77867441   
     47600  -4111.5073     -4145.1454      33.638014     -338.49968      301.54693      9668.86        0.89106664     0.77867441   
     47700  -4111.4212     -4145.5006      34.079488      308.2965       305.50451      9687.4604      0.88935575     0.77867441   
     47800  -4112.5862     -4146.4613      33.875113     -881.74793      303.6724       9703.4144      0.8878935      0.77867441   
     47900  -4112.8238     -4146.6432      33.819399     -558.70572      303.17295      9709.7072      0.88731806     0.77867441   
     48000  -4110.5621     -4144.0029      33.440797      1296.1811      299.77898      9707.9951      0.88747455     0.87388881   
     48100  -4112.64       -4144.6911      32.051141      1072.0253      287.32146      9700.0852      0.88819824     0.87388881   
     48200  -4112.4882     -4146.4794      33.991276     -2436.9189      304.71374      9685.6298      0.88952384     0.87388881   
     48300  -4113.3409     -4146.0957      32.75475      -441.40655      293.62894      9666.7675      0.89125953     0.87388881   
     48400  -4112.6476     -4145.3436      32.695984      1022.9552      293.10213      9647.2895      0.89305899     0.87388881   
     48500  -4111.7406     -4145.1088      33.368231     -1650.0249      299.12847      9625.9537      0.89503844     0.87388881   
     48600  -4111.5614     -4145.2055      33.64411      -277.36481      301.60158      9611.0704      0.89642446     0.87388881   
     48700  -4112.6655     -4146.1842      33.518627      167.6615       300.47669      9605.9018      0.8969068      0.87388881   
     48800  -4113.8042     -4145.9518      32.147562     -3460.8174      288.18582      9608.871       0.89662964     0.87388881   
     48900  -4111.3354     -4145.1466      33.811187      929.27615      303.09934      9621.2033      0.89548036     0.87388881   
     49000  -4112.3801     -4146.1717      33.79163      -333.42069      302.92402      9641.3239      0.89361157     0.66640986   
     49100  -4112.9385     -4145.5049      32.566422     -1354.77        291.94068      9662.9602      0.89161069     0.66640986   
     49200  -4111.5997     -4145.2234      33.623693     -657.2077       301.41855      9679.9877      0.89004231     0.66640986   
     49300  -4110.4729     -4145.2417      34.768849     -1044.8319      311.68427      9694.7145      0.88869028     0.66640986   
     49400  -4109.017      -4144.1937      35.176773     -209.35242      315.34109      9708.4695      0.88743118     0.66640986   
     49500  -4110.4049     -4144.718       34.313099      430.46975      307.59871      9722.7368      0.88612896     0.66640986   
     49600  -4110.8638     -4145.323       34.459253      1078.9244      308.9089       9731.3519      0.88534447     0.66640986   
     49700  -4111.2993     -4144.8661      33.56681       488.34605      300.90863      9731.5997      0.88532193     0.66640986   
     49800  -4110.8155     -4143.3275      32.512        -1995.9257      291.45281      9715.1898      0.88681732     0.66640986   
     49900  -4110.2623     -4143.8257      33.56336      -457.488        300.8777       9683.8535      0.889687       0.66640986   
     50000  -4110.9131     -4146.0576      35.144473     -839.52072      315.05154      9646.0582      0.89317298     0.69052982   
     50100  -4111.9136     -4146.3807      34.467098     -2016.4039      308.97923      9612.6698      0.89627531     0.69052982   
     50200  -4112.2746     -4146.4521      34.177595      2224.2715      306.38399      9588.281       0.89855507     0.69052982   
     50300  -4114.7563     -4148.4175      33.6612       -529.1524       301.75478      9570.798       0.90019647     0.69052982   
     50400  -4115.2974     -4147.081       31.783611      3420.654       284.92319      9555.3246      0.90165421     0.69052982   
     50500  -4115.4361     -4147.9087      32.472666     -267.02347      291.10021      9548.908       0.90226009     0.69052982   
     50600  -4113.8557     -4148.0799      34.224177      38.239684      306.80157      9552.2805      0.90194154     0.69052982   
     50700  -4111.7338     -4146.0845      34.350722     -1946.3267      307.93598      9572.2751      0.90005756     0.69052982   
     50800  -4112.7549     -4145.279       32.524072      331.33771      291.56104      9606.4735      0.89685342     0.69052982   
     50900  -4113.2455     -4146.6153      33.369848     -51.44943       299.14296      9645.2783      0.89324521     0.69052982   
     51000  -4114.2388     -4146.8201      32.581316     -1024.9738      292.0742       9679.3909      0.89009718     0.7344231    
     51100  -4113.0538     -4146.9645      33.910661     -777.64298      303.99106      9703.9168      0.88784753     0.7344231    
     51200  -4113.3553     -4145.5989      32.243554     -658.42762      289.04634      9715.0748      0.88682781     0.7344231    
     51300  -4112.8981     -4146.1449      33.246725     -1068.9122      298.03923      9707.1145      0.88755506     0.7344231    
     51400  -4113.4992     -4146.7319      33.232723      1269.8443      297.91371      9683.2912      0.88973867     0.7344231    
     51500  -4112.6341     -4145.191       32.556928     -2640.8002      291.85557      9648.3394      0.89296181     0.7344231    
     51600  -4111.0541     -4145.2789      34.224822     -521.95725      306.80735      9609.0921      0.89660902     0.7344231    
     51700  -4111.1801     -4145.2309      34.050859      472.90457      305.24786      9574.1147      0.89988462     0.7344231    
     51800  -4111.8791     -4146.2687      34.38957       2120.1368      308.28423      9550.5262      0.90210722     0.7344231    
     51900  -4111.5164     -4146.3963      34.879854     -1758.5024      312.67937      9547.5275      0.90239055     0.7344231    
     52000  -4112.5618     -4146.492       33.930212     -752.1219       304.16633      9571.9566      0.90008751     0.73734016   
     52100  -4110.4896     -4145.9548      35.465152     -713.55324      317.92625      9620.7339      0.89552405     0.73734016   
     52200  -4109.3443     -4144.449       35.104675      1663.0593      314.69477      9692.4628      0.88889674     0.73734016   
     52300  -4108.7265     -4141.6063      32.879891     -1408.4897      294.75076      9772.4742      0.88161897     0.73734016   
     52400  -4107.5357     -4142.5453      35.009638     -139.41464      313.84281      9843.5829      0.87525027     0.73734016   
     52500  -4108.3625     -4142.726       34.363489     -1006.0459      308.05043      9897.6391      0.87047007     0.73734016   
     52600  -4109.2703     -4143.5641      34.293794     -1551.4991      307.42565      9926.8153      0.86791164     0.73734016   
     52700  -4110.4332     -4144.5314      34.098131     -797.83922      305.67164      9921.2524      0.86839829     0.73734016   
     52800  -4110.3724     -4143.8205      33.448107     -2220.0896      299.84452      9877.582       0.87223762     0.73734016   
     52900  -4109.8642     -4144.3115      34.447297     -2570.2228      308.80173      9796.33        0.87947207     0.73734016   
     53000  -4110.3638     -4144.0247      33.66083      -322.01533      301.75146      9696.9784      0.8884828      0.66846631   
     53100  -4111.2769     -4145.5995      34.322624      111.74819      307.6841       9599.1819      0.89753467     0.66846631   
     53200  -4112.9014     -4147.058       34.156556      1674.3079      306.19538      9516.8563      0.9052988      0.66846631   
     53300  -4112.8362     -4146.4899      33.653628      3397.024       301.68691      9461.2768      0.9106169      0.66846631   
     53400  -4114.5087     -4146.8804      32.371677      3804.4844      290.19489      9443.5071      0.9123304      0.66846631   
     53500  -4112.7269     -4146.9974      34.270473      1843.8383      307.21659      9461.6092      0.91058491     0.66846631   
     53600  -4111.6057     -4146.3095      34.703806      874.23346      311.10119      9510.3269      0.90592034     0.66846631   
     53700  -4110.7257     -4145.4441      34.718406     -55.648087      311.23207      9579.2821      0.8993992      0.66846631   
     53800  -4109.6658     -4144.0824      34.41661      -3065.9092      308.52663      9656.8264      0.89217702     0.66846631   
     53900  -4109.3294     -4144.3067      34.977305     -568.85652      313.55296      9728.0928      0.88564107     0.66846631   
     54000  -4110.3661     -4145.6046      35.23847      -754.51644      315.89417      9783.2771      0.88064546     0.6915982    
     54100  -4109.6971     -4143.869       34.171822      306.73386      306.33224      9814.6435      0.87783103     0.6915982    
     54200  -4109.1862     -4144.1156      34.929411     -143.08419      313.12362      9818.6161      0.87747586     0.6915982    
     54300  -4110.4073     -4144.5435      34.13624       1284.2972      306.01327      9795.7654      0.87952276     0.6915982    
     54400  -4110.6607     -4142.7466      32.085867     -502.99154      287.63276      9755.7499      0.88313032     0.6915982    
     54500  -4111.2561     -4144.8882      33.632154     -1874.2835      301.49439      9705.4317      0.88770895     0.6915982    
     54600  -4112.1316     -4145.669       33.537478     -1273.4524      300.64568      9649.7338      0.89283278     0.6915982    
     54700  -4110.7515     -4144.2125      33.461031     -240.5082       299.96037      9598.0418      0.89764128     0.6915982    
     54800  -4110.8944     -4147.2904      36.39605       929.78366      326.27126      9563.0209      0.90092855     0.6915982    
     54900  -4109.8936     -4145.378       35.484345      1600.1385      318.09831      9548.6425      0.90228518     0.6915982    
     55000  -4109.8567     -4144.0659      34.209242      5.5035313      306.66769      9554.5383      0.9017284      0.69314362   
     55100  -4111.7344     -4144.9577      33.223318      3049.4218      297.8294       9578.5711      0.89946596     0.69314362   
     55200  -4112.4226     -4146.8877      34.465089      2146.013       308.96122      9617.3499      0.89583915     0.69314362   
     55300  -4111.9268     -4145.3024      33.375523      1399.2249      299.19384      9660.5377      0.89183427     0.69314362   
     55400  -4111.9428     -4146.4764      34.533585     -2199.6471      309.57525      9705.9459      0.88766192     0.69314362   
     55500  -4111.0422     -4144.4795      33.437374     -1722.8516      299.7483       9744.017       0.88419371     0.69314362   
     55600  -4110.4128     -4145.5537      35.140973      556.90797      315.02016      9764.867       0.88230578     0.69314362   
     55700  -4110.3269     -4144.2805      33.953575      566.17696      304.37577      9763.9431      0.88238927     0.69314362   
     55800  -4111.1181     -4145.7034      34.58527      -1106.6203      310.03858      9747.8521      0.88384585     0.69314362   
     55900  -4112.3565     -4144.9923      32.635828      2024.6182      292.56287      9713.3143      0.88698855     0.69314362   
     56000  -4113.0879     -4145.3368      32.248909      456.88445      289.09434      9662.915       0.89161486     0.70453683   
     56100  -4112.8217     -4146.6053      33.78357       745.62954      302.85176      9607.3963      0.89676727     0.70453683   
     56200  -4113.1445     -4146.3709      33.226421     -751.66069      297.85722      9558.62        0.90134335     0.70453683   
     56300  -4114.0979     -4146.5973      32.499453      17.94332       291.34034      9524.784       0.9045453      0.70453683   
     56400  -4113.4866     -4145.9005      32.413863      4202.3781      290.57307      9508.9164      0.90605472     0.70453683   
     56500  -4111.8317     -4145.7594      33.92769      -19.787917      304.14372      9513.5143      0.90561682     0.70453683   
     56600  -4112.6754     -4146.8108      34.135407     -1513.2751      306.00579      9538.3393      0.90325981     0.70453683   
     56700  -4111.8027     -4145.5633      33.760605      202.56863      302.64589      9580.8978      0.89924752     0.70453683   
     56800  -4110.6714     -4145.2708      34.599358      1577.6906      310.16487      9634.4558      0.8942486      0.70453683   
     56900  -4110.2832     -4144.1636      33.88043       149.80901      303.72006      9685.3512      0.88954943     0.70453683   
     57000  -4108.8831     -4144.1054      35.222295      50.092628      315.74917      9727.6043      0.88568555     0.73171006   
     57100  -4111.4249     -4144.9117      33.486864     -469.08567      300.19195      9756.0306      0.88310492     0.73171006   
     57200  -4111.6159     -4145.2659      33.650009     -918.71508      301.65446      9765.3784      0.88225957     0.73171006   
[...]
    386100  -4110.7938     -4146.7199      35.926095     -299.48916      322.05836      9647.1304      0.89307371     0.71174533   
    386200  -4111.8883     -4144.9354      33.047075     -34.906829      296.24948      9680.8668      0.88996148     0.71174533   
    386300  -4111.5836     -4144.7801      33.196542     -318.65911      297.58937      9713.4337      0.88697765     0.71174533   
    386400  -4112.4022     -4145.6327      33.230552     -148.43815      297.89425      9738.2238      0.88471972     0.71174533   
    386500  -4113.0335     -4146.1326      33.099101     -858.2174       296.71586      9748.1056      0.88382286     0.71174533   
    386600  -4112.4877     -4145.5104      33.022758     -3810.7707      296.03149      9738.0153      0.88473866     0.71174533   
    386700  -4110.5899     -4144.3595      33.769558      108.58049      302.72615      9710.1004      0.88728214     0.71174533   
    386800  -4112.2725     -4146.0045      33.731974      1023.195       302.38923      9676.8096      0.89033462     0.71174533   
    386900  -4110.271      -4145.2257      34.954728     -218.99443      313.35057      9641.604       0.89358561     0.71174533   
    387000  -4111.058      -4145.2294      34.171321      2182.407       306.32775      9611.9798      0.89633965     0.77053296   
    387100  -4111.0468     -4145.5832      34.536303      178.62442      309.59962      9592.2053      0.89818746     0.77053296   
    387200  -4112.2107     -4146.1985      33.987729     -1211.6429      304.68194      9587.6725      0.89861211     0.77053296   
    387300  -4111.0235     -4145.4774      34.453904      2541.8201      308.86096      9597.4154      0.89769987     0.77053296   
    387400  -4110.8472     -4144.243       33.395795      3966.2515      299.37557      9623.3783      0.89527797     0.77053296   
    387500  -4111.1278     -4145.7         34.572152      1881.5162      309.92098      9656.1844      0.89223634     0.77053296   
    387600  -4111.6729     -4146.6507      34.977812     -981.3495       313.5575       9686.7943      0.8894169      0.77053296   
    387700  -4112.2274     -4146.1213      33.893892      1789.7243      303.84074      9713.9719      0.8869285      0.77053296   
    387800  -4113.1375     -4145.5385      32.401053      1486.3699      290.45824      9730.841       0.88539095     0.77053296   
    387900  -4112.0271     -4145.1151      33.088019      2572.0558      296.61652      9733.7987      0.88512192     0.77053296   
    388000  -4111.8531     -4145.564       33.710884     -1160.7557      302.20017      9724.5633      0.88596251     0.67025262   
    388100  -4111.6912     -4146.1892      34.498052     -1767.7148      309.25671      9702.8615      0.88794409     0.67025262   
    388200  -4112.263      -4145.8233      33.560388      1624.1696      300.85106      9669.2001      0.8910353      0.67025262   
    388300  -4112.5095     -4145.9061      33.396563     -2539.5582      299.38245      9627.0033      0.89494086     0.67025262   
    388400  -4112.4132     -4145.8443      33.431138      2517.2454      299.6924       9583.9155      0.89896437     0.67025262   
    388500  -4111.5071     -4145.72        34.21294       307.09168      306.70083      9550.1761      0.90214029     0.67025262   
    388600  -4113.301      -4145.003       31.702022      2664.3075      284.19179      9531.4912      0.90390878     0.67025262   
    388700  -4112.5467     -4145.6715      33.124851      677.60637      296.9467       9529.32        0.90411473     0.67025262   
    388800  -4111.2451     -4145.658       34.412921      155.10587      308.49356      9544.2902      0.90269663     0.67025262   
    388900  -4110.6965     -4144.4776      33.781089      1611.0922      302.82952      9575.2903      0.89977414     0.67025262   
    389000  -4111.1583     -4145.4037      34.245439     -557.87171      306.99218      9619.564       0.89563296     0.78233335   
    389100  -4111.046      -4145.0824      34.036322     -136.48702      305.11755      9665.5844      0.89136861     0.78233335   
    389200  -4110.7395     -4144.8716      34.132093     -1688.0664      305.97608      9705.0181      0.88774678     0.78233335   
    389300  -4110.7823     -4145.5883      34.806043      340.69946      312.01769      9733.9294      0.88511003     0.78233335   
    389400  -4111.9909     -4145.4443      33.453422     -1103.292       299.89216      9745.7535      0.88403617     0.78233335   
    389500  -4111.9245     -4145.331       33.406552     -458.5969       299.472        9737.344       0.88479965     0.78233335   
    389600  -4111.138      -4145.4587      34.320665     -1177.5584      307.66653      9710.3736      0.88725717     0.78233335   
    389700  -4110.2865     -4144.7975      34.511025      2745.2019      309.37301      9677.2905      0.89029037     0.78233335   
    389800  -4109.7183     -4143.5798      33.861481      1565.3218      303.55019      9645.6847      0.89320757     0.78233335   
    389900  -4111.4208     -4145.1339      33.713056     -1529.0692      302.21965      9622.5807      0.89535218     0.78233335   
    390000  -4111.2444     -4146.2768      35.03237      -963.41591      314.04659      9608.047       0.89670654     0.73604607   
    390100  -4110.6704     -4145.4868      34.816367      1959.097       312.11024      9599.7383      0.89748265     0.73604607   
    390200  -4110.8099     -4145.7868      34.9769        6.4538043      313.54933      9600.8116      0.89738232     0.73604607   
    390300  -4112.8319     -4145.5649      32.732986     -55.876513      293.43383      9605.3331      0.8969599      0.73604607   
    390400  -4111.3989     -4144.3833      32.984392     -2177.8992      295.68756      9612.9506      0.89624912     0.73604607   
    390500  -4111.393      -4145.6172      34.224245     -329.40114      306.80218      9625.8043      0.89505233     0.73604607   
    390600  -4110.9121     -4146.3047      35.392596     -882.32848      317.27582      9642.0199      0.89354706     0.73604607   
    390700  -4111.337      -4145.7515      34.414495     -2018.5455      308.50767      9661.9613      0.89170287     0.73604607   
    390800  -4112.4575     -4146.228       33.770555      350.53009      302.73509      9683.182       0.8897487      0.73604607   
    390900  -4111.8188     -4145.9567      34.137887     -3148.9235      306.02803      9697.9666      0.88839227     0.73604607   
    391000  -4112.785      -4145.6141      32.829072      908.11233      294.2952       9703.317       0.88790241     0.7083067    
    391100  -4113.0844     -4145.0998      32.015412      722.94807      287.00116      9701.0733      0.88810778     0.7083067    
    391200  -4112.3349     -4145.6138      33.278923     -73.950147      298.32787      9687.953       0.88931053     0.7083067    
    391300  -4112.0013     -4146.1226      34.121274     -550.76947      305.8791       9670.7042      0.89089672     0.7083067    
    391400  -4112.4312     -4145.801       33.369815     -541.19271      299.14267      9656.2272      0.89223239     0.7083067    
    391500  -4112.7111     -4146.6737      33.962561      1451.3196      304.45632      9641.6855      0.89357805     0.7083067    
    391600  -4112.3248     -4147.2947      34.969874     -2332.4657      313.48635      9628.3081      0.89481958     0.7083067    
    391700  -4112.1314     -4147.1062      34.974741     -2275.8409      313.52998      9618.5522      0.89572718     0.7083067    
    391800  -4112.7242     -4147.0341      34.309998      1891.4693      307.57091      9615.7995      0.8959836      0.7083067    
    391900  -4112.2791     -4145.8221      33.543052      321.87246      300.69565      9622.3735      0.89537146     0.7083067    
    392000  -4113.347      -4144.3497      31.002689     -907.37379      277.92264      9635.2627      0.89417371     0.82539308   
    392100  -4112.6084     -4146.5687      33.960314     -2303.8651      304.43618      9648.7865      0.89292043     0.82539308   
    392200  -4112.1612     -4146.5503      34.389066     -1262.57        308.27971      9666.4643      0.89128748     0.82539308   
    392300  -4112.4112     -4145.3707      32.959425     -480.86037      295.46374      9685.8937      0.8894996      0.82539308   
    392400  -4111.9301     -4145.4526      33.5225       -724.06265      300.51141      9703.7881      0.88785931     0.82539308   
    392500  -4111.9197     -4145.4184      33.498685     -211.83182      300.29792      9711.6196      0.88714334     0.82539308   
    392600  -4111.4311     -4146.007       34.575948     -1441.7836      309.95501      9712.1123      0.88709833     0.82539308   
    392700  -4111.7701     -4145.0167      33.246591      810.16504      298.03803      9705.4794      0.88770459     0.82539308   
    392800  -4111.7562     -4145.1613      33.405139     -824.94109      299.45933      9692.8474      0.88886147     0.82539308   
    392900  -4111.7862     -4145.3969      33.610659     -135.25303      301.30171      9674.2832      0.89056713     0.82539308   
    393000  -4111.6014     -4145.1688      33.567367      1478.1921      300.91362      9649.7312      0.89283301     0.71168736   
    393100  -4111.8234     -4147.9155      36.092111     -2047.3058      323.54661      9625.0563      0.89512189     0.71168736   
    393200  -4112.1643     -4147.3751      35.210846      5444.611       315.64653      9605.9995      0.89689767     0.71168736   
    393300  -4112.32       -4146.8785      34.558569      3563.6595      309.79922      9597.942       0.89765062     0.71168736   
    393400  -4112.9975     -4146.4794      33.4819        4952.7015      300.14745      9601.1943      0.89734655     0.71168736   
    393500  -4112.606      -4146.2262      33.620147     -402.47266      301.38676      9616.144       0.89595149     0.71168736   
    393600  -4111.6955     -4144.8362      33.140783      850.33525      297.08952      9639.1416      0.89381388     0.71168736   
    393700  -4109.9824     -4144.1667      34.184298      742.59079      306.44408      9665.4537      0.89138067     0.71168736   
    393800  -4110.4246     -4144.3841      33.959493      510.75399      304.42882      9693.3167      0.88881844     0.71168736   
    393900  -4111.7534     -4145.1952      33.441845     -1309.3306      299.78838      9718.1879      0.88654373     0.71168736   
    394000  -4109.996      -4145.9032      35.907172     -1592.8224      321.88873      9738.8797      0.88466013     0.75571567   
    394100  -4109.6512     -4144.9179      35.266706      565.63811      316.14729      9751.5903      0.88350703     0.75571567   
    394200  -4109.3337     -4143.1927      33.858975      145.33838      303.52773      9757.0732      0.88301055     0.75571567   
    394300  -4109.1635     -4143.4682      34.304747      734.20576      307.52384      9754.7946      0.88321681     0.75571567   
    394400  -4109.7819     -4143.3922      33.610257     -3342.0737      301.2981       9743.5064      0.88424005     0.75571567   
    394500  -4109.4217     -4144.7598      35.338104     -3092.6687      316.78733      9726.3781      0.88579721     0.75571567   
    394600  -4110.1391     -4144.0243      33.885119      804.49582      303.7621       9703.6838      0.88786885     0.75571567   
    394700  -4108.6658     -4144.3768      35.710992      745.86854      320.13008      9678.0335      0.89022203     0.75571567   
    394800  -4108.8065     -4143.5468      34.740384      2203.8987      311.4291       9655.8095      0.89227098     0.75571567   
    394900  -4108.9705     -4143.2251      34.25454       2601.2246      307.07376      9642.9877      0.89345738     0.75571567   
    395000  -4110.6117     -4144.9693      34.35762      -2052.7987      307.99782      9632.3264      0.89444629     0.88288701   
    395100  -4110.1505     -4144.4443      34.293783      1079.3398      307.42555      9625.5598      0.89507507     0.88288701   
    395200  -4110.9838     -4146.0622      35.078435      704.68491      314.45954      9628.2647      0.89482361     0.88288701   
    395300  -4108.5559     -4144.2285      35.672548     -248.22184      319.78545      9637.6167      0.89395531     0.88288701   
    395400  -4109.6284     -4143.3346      33.706252      2116.7191      302.15864      9654.3443      0.89240639     0.88288701   
    395500  -4109.8457     -4142.8343      32.988645      280.36428      295.72568      9677.108       0.89030717     0.88288701   
    395600  -4109.3271     -4144.9421      35.614996      489.80432      319.26952      9701.0011      0.88811438     0.88288701   
    395700  -4108.8471     -4144.504       35.65685      -1096.444       319.64472      9720.9888      0.88628829     0.88288701   
    395800  -4108.0899     -4141.9294      33.839461     -1283.8596      303.3528       9735.6847      0.88495045     0.88288701   
    395900  -4107.6343     -4144.0938      36.459504     -1756.3794      326.84009      9745.2129      0.88408521     0.88288701   
    396000  -4108.6724     -4142.9442      34.271832      354.15096      307.22878      9743.9133      0.88420312     0.70754576   
    396100  -4108.9137     -4144.1968      35.283136     -1505.4737      316.29458      9733.8665      0.88511575     0.70754576   
    396200  -4109.0446     -4143.8256      34.780996      497.72278      311.79316      9714.5808      0.88687292     0.70754576   
    396300  -4107.7275     -4143.1895      35.462068      1165.8865      317.8986       9694.0734      0.88874906     0.70754576   
    396400  -4107.4417     -4144.1746      36.73286       295.11357      329.29058      9677.3612      0.89028387     0.70754576   
    396500  -4106.7774     -4142.717       35.939684     -1556.1285      322.18018      9667.8912      0.89115593     0.70754576   
    396600  -4108.725      -4142.7872      34.062235      1138.5379      305.34985      9664.8983      0.8914319      0.70754576   
    396700  -4108.1249     -4144.2722      36.147282     -598.13714      324.04118      9664.8063      0.89144038     0.70754576   
    396800  -4108.0907     -4142.7078      34.61714       1079.742       310.32428      9666.4612      0.89128776     0.70754576   
    396900  -4108.4545     -4142.2714      33.816901      259.67488      303.15056      9672.0546      0.89077233     0.70754576   
    397000  -4109.0317     -4142.7107      33.678953     -811.06561      301.91393      9674.201       0.89057469     0.82146808   
    397100  -4109.5377     -4145.1488      35.611031      1872.0275      319.23398      9672.6157      0.89072066     0.82146808   
    397200  -4110.3723     -4144.6529      34.280617      927.54018      307.30753      9670.3667      0.89092781     0.82146808   
    397300  -4110.8816     -4144.7681      33.886517      1111.9301      303.77463      9669.8845      0.89097223     0.82146808   
    397400  -4110.7753     -4145.1471      34.371776      415.81233      308.12472      9664.6866      0.89145142     0.82146808   
    397500  -4112.3125     -4146.6897      34.377186     -1008.0292      308.17322      9657.5491      0.89211025     0.82146808   
    397600  -4112.9883     -4146.1954      33.20708      -165.39975      297.68383      9650.4084      0.89277036     0.82146808   
    397700  -4113.5903     -4147.2184      33.628045      1277.6416      301.45757      9642.1823      0.89353201     0.82146808   
    397800  -4112.3794     -4145.9799      33.600521      379.24003      301.21083      9629.4513      0.89471334     0.82146808   
    397900  -4114.0756     -4147.085       33.009431     -2948.2582      295.91202      9618.4412      0.89573751     0.82146808   
    398000  -4115.1077     -4146.7661      31.658444      401.07189      283.80114      9605.8227      0.89691418     0.69890449   
    398100  -4113.1999     -4146.1851      32.985192     -168.38709      295.69473      9590.8637      0.89831311     0.69890449   
    398200  -4112.5075     -4147.2669      34.759366      2210.8711      311.59925      9581.444       0.89919626     0.69890449   
    398300  -4111.7446     -4145.4978      33.753232      1378.3571      302.5798       9581.0496      0.89923327     0.69890449   
    398400  -4112.397      -4146.6841      34.287113      321.19791      307.36575      9592.2746      0.89818097     0.69890449   
    398500  -4113.0027     -4145.756       32.753272      3313.2973      293.61569      9609.0791      0.89661022     0.69890449   
    398600  -4110.6667     -4145.6159      34.949269      2444.2256      313.30164      9629.3465      0.89472308     0.69890449   
    398700  -4110.3248     -4144.1981      33.873347     -233.49817      303.65657      9652.3533      0.89259047     0.69890449   
    398800  -4110.9705     -4145.4532      34.482724     -2254.4956      309.11931      9678.824       0.89014932     0.69890449   
    398900  -4110.4115     -4143.298       32.886587     -2502.6014      294.81078      9698.3088      0.88836093     0.69890449   
    399000  -4110.967      -4146.689       35.721999     -315.49631      320.22875      9709.3719      0.8873487      0.69883823   
    399100  -4110.9707     -4144.6188      33.64803       255.79783      301.63672      9709.4552      0.88734109     0.69883823   
    399200  -4112.2205     -4145.4888      33.268375     -2786.1032      298.23332      9702.3337      0.8879924      0.69883823   
    399300  -4113.201      -4145.4731      32.272188     -2356.1292      289.30302      9683.5419      0.88971563     0.69883823   
    399400  -4110.9944     -4144.2385      33.244118     -135.67636      298.01587      9653.317       0.89250137     0.69883823   
    399500  -4110.7399     -4144.9155      34.175538     -591.64589      306.36555      9624.2583      0.89519611     0.69883823   
    399600  -4111.7609     -4144.7068      32.945898     -973.595        295.34248      9602.2136      0.89725129     0.69883823   
    399700  -4112.7607     -4146.9346      34.173864      2351.8763      306.35054      9587.8387      0.89859653     0.69883823   
    399800  -4112.9318     -4145.6835      32.751695      876.82554      293.60155      9577.9512      0.89952417     0.69883823   
    399900  -4112.8788     -4146.5511      33.672334      2599.5529      301.85459      9575.5497      0.89974977     0.69883823   
    400000  -4113.4958     -4146.3769      32.881131      1494.2774      294.76187      9582.4325      0.8991035      0.73517353   
    400100  -4114.1815     -4146.6797      32.498234     -669.98858      291.32941      9598.2819      0.89761884     0.73517353   
    400191  -4114.6623     -4147.6687      33.006439     -605.77169      295.88519      9611.773       0.89635893     0.73517353   
Loop time of 502.509 on 2 procs for 200000 steps with 864 atoms

Performance: 17.194 ns/day, 1.396 hours/ns, 398.003 timesteps/s, 343.874 katom-step/s
99.6% CPU use with 2 MPI tasks x 1 OpenMP threads

MPI task timing breakdown:
Section |  min time  |  avg time  |  max time  |%varavg| %total
---------------------------------------------------------------
Pair    | 260.54     | 262.88     | 265.22     |  14.5 | 52.31
Neigh   | 7.5158     | 7.5338     | 7.5517     |   0.7 |  1.50
Comm    | 38.938     | 40.529     | 42.12      |  25.0 |  8.07
Output  | 0.29318    | 0.29627    | 0.29936    |   0.6 |  0.06
Modify  | 188.57     | 189.3      | 190.04     |   5.3 | 37.67
Other   |            | 1.967      |            |       |  0.39

Nlocal:            432 ave         435 max         429 min
Histogram: 1 0 0 0 0 0 0 0 0 1
Nghost:         2166.5 ave        2169 max        2164 min
Histogram: 1 0 0 0 0 0 0 0 0 1
Neighs:              0 ave           0 max           0 min
Histogram: 2 0 0 0 0 0 0 0 0 0
FullNghs:        44636 ave       45138 max       44134 min
Histogram: 1 0 0 0 0 0 0 0 0 1

Total # of neighbors = 89272
Ave neighs/atom = 103.32407
Neighbor list builds = 19960
Dangerous builds = 19760
Total wall time: 0:16:46
