LAMMPS (27 Jun 2024)
KOKKOS mode with Kokkos version 4.3.1 is enabled (src/KOKKOS/kokkos.cpp:72)
  will use up to 1 GPU(s) per node
WARNING: When using a single thread, the Kokkos Serial backend (i.e. Makefile.kokkos_mpi_only) gives better performance than the OpenMP backend (src/KOKKOS/kokkos.cpp:202)
  using 1 OpenMP thread(s) per MPI task
Reading data file ...
  orthogonal box = (0 0 0) to (13.110045 13.110044 13.093422)
  1 by 1 by 1 MPI processor grid
  reading atoms ...
  384 atoms
  read_data CPU = 0.026 seconds
ACE/AL version: 2023.11.25
Loading /pc2/users/a/acepdw01/work/phase_diagram/pot_dir/interim_potential_ladder_step_1.yaml
Total number of basis functions
	H: 23 (r=1) 664 (r>1)
	O: 23 (r=1) 664 (r>1)
Mapping LAMMPS atom type #1(H) -> ACE species type #0
Mapping LAMMPS atom type #2(O) -> ACE species type #1
Loading ASI /pc2/users/a/acepdw01/work/phase_diagram/pot_dir/interim_potential_ladder_step_1.asi
LINEAR ASI is loaded

CITE-CITE-CITE-CITE-CITE-CITE-CITE-CITE-CITE-CITE-CITE-CITE-CITE

Your simulation uses code contributions which should be cited:
- Type Label Framework: https://doi.org/10.1021/acs.jpcb.3c08419
The log file lists these citations in BibTeX format.

CITE-CITE-CITE-CITE-CITE-CITE-CITE-CITE-CITE-CITE-CITE-CITE-CITE

Switching to 'neigh_modify every 1 delay 0 check yes' setting during minimization
Neighbor list info ...
  update: every = 1 steps, delay = 0 steps, check = yes
  max neighbors/atom: 2000, page size: 100000
  master list distance cutoff = 6.5
  ghost atom cutoff = 6.5
  binsize = 6.5, bins = 3 3 3
  1 neighbor lists, perpetual/occasional/extra = 1 0 0
  (1) pair pace/extrapolation/kk, perpetual
      attributes: full, newton on, kokkos_device
      pair build: full/bin/kk/device
      stencil: full/bin/3d
      bin: kk/device
Setting up cg/kk style minimization ...
  Unit style    : metal
  Current step  : 0
WARNING: Fix with atom-based arrays not compatible with sending data in Kokkos communication, switching to classic exchange/border communication (src/KOKKOS/comm_kokkos.cpp:754)
WARNING: Fix with atom-based arrays not compatible with Kokkos sorting on device, switching to classic host sorting (src/KOKKOS/atom_kokkos.cpp:216)
Per MPI rank memory allocation (min/avg/max) = 366.7 | 366.7 | 366.7 Mbytes
   Step         TotEng         PotEng         KinEng         Press           Temp          Volume        Density     c_max_pace_gamma
         0  -1851.9992     -1851.9992      0              21939.986      0              2250.4092      1.7015372      0.62320148   
        31  -1852.043      -1852.043       0              22349.863      0              2250.4092      1.7015372      0.62320148   
Loop time of 0.140338 on 1 procs for 31 steps with 384 atoms

87.5% CPU use with 1 MPI tasks x 1 OpenMP threads

Minimization stats:
  Stopping criterion = force tolerance
  Energy initial, next-to-last, final = 
      -1851.9991628618  -1852.04303302333  -1852.04303302875
  Force two-norm initial, final = 0.44663683 0.00032721251
  Force max component initial, final = 0.040656412 3.262883e-05
  Final line search alpha, max atom move = 1 3.262883e-05
  Iterations, force evaluations = 31 62

MPI task timing breakdown:
Section |  min time  |  avg time  |  max time  |%varavg| %total
---------------------------------------------------------------
Pair    | 0.098943   | 0.098943   | 0.098943   |   0.0 | 70.50
Neigh   | 0          | 0          | 0          |   0.0 |  0.00
Comm    | 0.001667   | 0.001667   | 0.001667   |   0.0 |  1.19
Output  | 0          | 0          | 0          |   0.0 |  0.00
Modify  | 0.013566   | 0.013566   | 0.013566   |   0.0 |  9.67
Other   |            | 0.02616    |            |       | 18.64

Nlocal:            384 ave         384 max         384 min
Histogram: 1 0 0 0 0 0 0 0 0 0
Nghost:           2568 ave        2568 max        2568 min
Histogram: 1 0 0 0 0 0 0 0 0 0
Neighs:              0 ave           0 max           0 min
Histogram: 1 0 0 0 0 0 0 0 0 0
FullNghs:        74496 ave       74496 max       74496 min
Histogram: 1 0 0 0 0 0 0 0 0 0

Total # of neighbors = 74496
Ave neighs/atom = 194
Neighbor list builds = 0
Dangerous builds = 0
Setting up Verlet run ...
  Unit style    : metal
  Current step  : 31
  Time step     : 0.0005
WARNING: Fix with atom-based arrays not compatible with Kokkos sorting on device, switching to classic host sorting (src/KOKKOS/atom_kokkos.cpp:216)
Per MPI rank memory allocation (min/avg/max) = 365.8 | 365.8 | 365.8 Mbytes
   Step         TotEng         PotEng         KinEng         Press           Temp          Volume        Density     c_max_pace_gamma
        31  -1832.2404     -1852.043       19.802654      31748.849      400            2250.4092      1.7015372      0.62320148   
       100  -1829.3332     -1838.1833      8.8500643      33456.781      178.76521      2256.168       1.697194       0.62320148   
       200  -1826.4962     -1839.1761      12.679941      34524.371      256.1261       2291.9969      1.6706632      0.62320148   
       300  -1824.7268     -1838.9113      14.184514      30899.565      286.51744      2352.7222      1.6275423      0.62320148   
       400  -1823.7883     -1837.5004      13.712115      23877.917      276.97529      2421.7862      1.5811284      0.62320148   
       500  -1822.5648     -1837.9587      15.393913      14489.887      310.94645      2480.1517      1.5439197      0.62320148   
       600  -1821.4267     -1837.3013      15.874599      13255.097      320.65599      2517.8755      1.520788       0.62320148   
       700  -1819.748      -1835.8945      16.146505      17799.788      326.1483       2535.1377      1.5104327      0.62320148   
       800  -1819.0445     -1836.1786      17.134109      20777.156      346.09722      2534.6999      1.5106936      0.62320148   
       900  -1818.2716     -1834.536       16.264469      26690.522      328.5311       2520.0528      1.5194741      0.62320148   
      1000  -1816.0484     -1834.0776      18.029224      29039.732      364.17793      2496.2085      1.5339884      0.76529984   
      1100  -1814.8856     -1833.3318      18.446224      26440.707      372.60105      2471.856       1.5491011      0.76529984   
      1200  -1814.3195     -1833.0486      18.729087      28825.042      378.31467      2453.1198      1.5609327      0.76529984   
      1300  -1813.8464     -1834.088       20.241546      25848.008      408.8653       2443.3348      1.5671839      0.76529984   
      1400  -1813.8396     -1834.0884      20.248776      22949.207      409.01136      2442.4151      1.567774       0.76529984   
      1500  -1812.119      -1831.2172      19.098205      28080.105      385.77061      2451.1759      1.5621706      0.76529984   
      1600  -1812.465      -1833.7126      21.247621      25747.827      429.18733      2470.8364      1.5497404      0.76529984   
      1700  -1813.9013     -1832.7579      18.856537      19410.441      380.88909      2495.9696      1.5341352      0.76529984   
      1800  -1814.786      -1831.9584      17.17236       14942.786      346.86986      2520.754       1.5190514      0.76529984   
      1900  -1815.5842     -1833.908       18.323795      13328.579      370.12805      2540.8851      1.5070162      0.76529984   
      2000  -1815.0062     -1833.1311      18.124927      16920.033      366.11106      2551.009       1.5010354      0.79427054   
      2100  -1814.8343     -1832.5375      17.703199      16610.791      357.59245      2550.0092      1.5016239      0.79427054   
      2200  -1814.4482     -1834.4154      19.967198      12746.301      403.32367      2539.7766      1.5076739      0.79427054   
      2300  -1815.0033     -1833.4969      18.493575      17347.437      373.55751      2522.2602      1.5181443      0.79427054   
      2400  -1813.6683     -1831.3626      17.694303      21837.556      357.41276      2501.7944      1.5305634      0.79427054   
      2500  -1812.5724     -1833.038       20.465595      19049.281      413.39094      2483.9509      1.5415582      0.79427054   
      2600  -1811.4539     -1830.7512      19.297367      27272.089      389.79355      2471.1365      1.5495522      0.79427054   
      2700  -1811.7971     -1831.5489      19.751815      24393.803      398.97309      2468.6723      1.5510989      0.79427054   
      2800  -1811.6311     -1831.8171      20.185982      30004.77       407.74296      2476.4572      1.5462229      0.79427054   
      2900  -1812.6599     -1832.0584      19.398472      28034.732      391.8358       2494.9392      1.5347688      0.79427054   
      3000  -1813.232      -1833.3896      20.157555      24105.051      407.16875      2519.6128      1.5197394      0.8331511    
      3100  -1812.5535     -1831.6573      19.103836      23928.254      385.88435      2542.3952      1.506121       0.8331511    
      3200  -1813.3449     -1832.1513      18.806385      21318.73       379.87605      2562.216       1.49447        0.8331511    
      3300  -1814.3264     -1833.635       19.308564      20837.845      390.01971      2574.6658      1.4872435      0.8331511    
      3400  -1815.0365     -1833.2444      18.207913      16973.087      367.78732      2575.2502      1.486906       0.8331511    
      3500  -1815.6852     -1833.4854      17.800204      12627.047      359.55187      2564.3719      1.4932136      0.8331511    
      3600  -1814.9327     -1833.1814      18.248694      13100.319      368.61108      2545.1116      1.5045135      0.8331511    
      3700  -1813.2099     -1832.8478      19.637856      21909.519      396.67118      2520.1468      1.5194174      0.8331511    
      3800  -1811.5526     -1831.4485      19.895956      18826.229      401.88464      2496.4825      1.5338201      0.8331511    
      3900  -1809.9351     -1830.5548      20.619708      13936.859      416.50392      2481.2814      1.5432167      0.8331511    
      4000  -1809.7731     -1830.5776      20.80451       19044.654      420.2368       2477.9946      1.5452636      0.73241076   
      4100  -1810.275      -1830.5457      20.270688      11785.923      409.45395      2487.8331      1.5391526      0.73241076   
      4200  -1809.2378     -1829.4342      20.196448      18019.998      407.95436      2508.6957      1.5263529      0.73241076   
      4300  -1809.3324     -1830.6793      21.34685       25999.328      431.1917       2538.1551      1.5086371      0.73241076   
      4400  -1811.2832     -1832.0681      20.78492       14825.471      419.8411       2572.6973      1.4883815      0.73241076   
      4500  -1809.6698     -1830.1496      20.479852      14286.257      413.67894      2601.8835      1.4716858      0.73241076   
      4600  -1810.1989     -1830.1625      19.963664      17712.491      403.25229      2620.5258      1.4612163      0.73241076   
      4700  -1809.7575     -1829.6291      19.871546      18070.748      401.39157      2626.6641      1.4578015      0.73241076   
      4800  -1810.2471     -1830.9797      20.732566      19368.194      418.78358      2619.929       1.4615491      0.73241076   
      4900  -1810.469      -1831.803       21.334026      18453.728      430.93265      2601.3289      1.4719996      0.73241076   
      5000  -1810.7425     -1831.6717      20.929165      19052.089      422.75475      2572.4917      1.4885004      0.80757968   
      5100  -1809.9031     -1830.7508      20.847727      24964.254      421.10975      2541.6935      1.5065369      0.80757968   
      5200  -1810.4952     -1830.3185      19.823301      25852.364      400.41705      2514.9173      1.5225769      0.80757968   
      5300  -1809.9466     -1830.1127      20.166056      20829.905      407.34047      2496.1831      1.534004       0.80757968   
      5400  -1808.871      -1831.1791      22.308117      29074.542      450.60862      2488.5875      1.5386861      0.80757968   
      5500  -1807.8412     -1830.2241      22.382945      32329.172      452.12009      2493.4095      1.5357104      0.80757968   
      5600  -1808.9042     -1831.028       22.123839      22047.011      446.88633      2512.621       1.5239683      0.80757968   
      5700  -1810.6011     -1831.4446      20.843525      20154.493      421.02488      2540.1515      1.5074514      0.80757968   
      5800  -1809.0301     -1830.9355      21.905397      19237.88       442.47395      2568.4825      1.4908238      0.80757968   
      5900  -1808.4092     -1827.9508      19.54162       23821.666      394.72729      2593.6589      1.4763526      0.80757968   
      6000  -1809.3804     -1830.3492      20.968806      14741.539      423.55546      2612.1904      1.465879       0.79204325   
      6100  -1809.6829     -1831.0873      21.404443      8184.584       432.35503      2619.141       1.4619889      0.79204325   
      6200  -1809.7842     -1831.0464      21.262169      11555.955      429.4812       2611.8779      1.4660544      0.79204325   
      6300  -1809.2118     -1829.9091      20.697304      16941.317      418.07132      2593.9019      1.4762142      0.79204325   
      6400  -1810.4983     -1830.654       20.155681      11909.804      407.13091      2569.5505      1.4902042      0.79204325   
      6500  -1810.3864     -1830.922       20.535682      16383.887      414.80665      2543.1016      1.5057027      0.79204325   
      6600  -1809.688      -1831.2433      21.555257      14580.086      435.40137      2519.5217      1.5197944      0.79204325   
      6700  -1809.8242     -1830.822       20.997814      20186.923      424.14141      2502.2774      1.5302679      0.79204325   
      6800  -1809.5479     -1830.7336      21.185783      24205.491      427.93825      2495.0216      1.5347181      0.79204325   
      6900  -1809.9638     -1832.4683      22.504415      25651.305      454.57371      2498.0984      1.5328279      0.79204325   
      7000  -1811.2246     -1832.3563      21.13176       26683.548      426.84702      2509.182       1.526057       0.78559529   
      7100  -1812.4835     -1832.8112      20.327781      19640.922      410.60719      2525.5246      1.516182       0.78559529   
      7200  -1812.0194     -1831.2743      19.25483       26169.017      388.93433      2542.354       1.5061455      0.78559529   
      7300  -1812.5038     -1832.9484      20.444584      15089.826      412.96654      2557.9529      1.4969607      0.78559529   
      7400  -1812.0764     -1832.4295      20.353103      12770.036      411.11869      2569.0821      1.4904759      0.78559529   
      7500  -1812.3617     -1832.3423      19.980608      13540.98       403.59454      2574.1736      1.4875279      0.78559529   
      7600  -1812.42       -1831.7796      19.359627      20693.263      391.05116      2571.8538      1.4888696      0.78559529   
      7700  -1812.1366     -1830.8516      18.715036      20942.187      378.03087      2562.8756      1.4940854      0.78559529   
      7800  -1811.3518     -1832.1598      20.808025      17967.226      420.3078       2548.9842      1.5022278      0.78559529   
      7900  -1812.4222     -1831.1186      18.69646       22015.496      377.65565      2532.03        1.5122866      0.78559529   
      8000  -1811.6836     -1832.617       20.933368      26235.38       422.83963      2515.5111      1.5222175      0.71602035   
      8100  -1810.5765     -1830.2884      19.711831      23291.932      398.16543      2501.2337      1.5309065      0.71602035   
      8200  -1810.1241     -1831.1651      21.040954      28969.598      425.0128       2495.8351      1.5342179      0.71602035   
      8300  -1810.5146     -1831.1643      20.649648      26174.874      417.1087       2499.4124      1.532022       0.71602035   
      8400  -1811.0873     -1831.1539      20.066617      13411.813      405.33187      2510.2076      1.5254335      0.71602035   
      8500  -1811.774      -1831.9805      20.206474      19775.746      408.15687      2525.5313      1.516178       0.71602035   
      8600  -1812.4112     -1831.9374      19.526147      20342.967      394.41475      2541.8492      1.5064446      0.71602035   
      8700  -1812.2064     -1832.8161      20.609734      21548.129      416.30245      2556.4599      1.497835       0.71602035   
      8800  -1811.9803     -1831.3457      19.365339      20100.218      391.16653      2567.2109      1.4915623      0.71602035   
      8900  -1812.1221     -1831.3258      19.203729      14112.51       387.90213      2573.6246      1.4878452      0.71602035   
      9000  -1811.7911     -1832.1392      20.348098      12590.366      411.01759      2574.1505      1.4875412      0.77252057   
      9100  -1811.4362     -1831.0276      19.591404      15933.247      395.7329       2567.9806      1.4911152      0.77252057   
      9200  -1811.8782     -1830.5201      18.641979      15271.791      376.55515      2557.9466      1.4969644      0.77252057   
      9300  -1813.2563     -1833.5707      20.314477      16403.464      410.33848      2546.1613      1.5038933      0.77252057   
      9400  -1814.2782     -1832.991       18.712792      24037.452      377.98554      2530.4536      1.5132287      0.77252057   
      9500  -1813.6881     -1832.8254      19.137287      19815.381      386.56004      2512.0847      1.5242937      0.77252057   
      9600  -1814.1601     -1832.4754      18.315325      24069.505      369.95697      2493.7004      1.5355313      0.77252057   
      9700  -1813.7841     -1833.6224      19.838265      22614.045      400.7193       2479.4725      1.5443426      0.77252057   
      9800  -1814.3654     -1833.3309      18.965536      25825.073      383.09079      2472.6056      1.5486315      0.77252057   
      9900  -1814.6992     -1833.3698      18.670534      23131.502      377.13195      2476.036       1.546486       0.77252057   
     10000  -1813.6472     -1832.719       19.071797      18435.6        385.23719      2489.1578      1.5383335      0.71236666   
     10100  -1814.8883     -1832.7674      17.879118      16822.393      361.14589      2509.7253      1.5257267      0.71236666   
     10200  -1814.1556     -1833.3924      19.236761      20281.384      388.56936      2534.1514      1.5110206      0.71236666   
     10300  -1814.4305     -1832.7266      18.296077      26158.473      369.56818      2558.4459      1.4966722      0.71236666   
     10400  -1814.0492     -1833.4791      19.429871      15853.062      392.47003      2576.6512      1.4860975      0.71236666   
     10500  -1812.9294     -1832.1015      19.172043      15164.503      387.26208      2583.5024      1.4821565      0.71236666   
     10600  -1813.3596     -1833.3462      19.986649      20146.76       403.71657      2580.5704      1.4838405      0.71236666   
     10700  -1813.8275     -1832.7757      18.948184      14737.824      382.74029      2564.3118      1.4932486      0.71236666   
     10800  -1813.6497     -1831.9839      18.334219      18410.245      370.33861      2538.3628      1.5085137      0.71236666   
     10900  -1814.037      -1833.2034      19.166452      27490.98       387.14916      2507.8088      1.5268927      0.71236666   
     11000  -1813.8429     -1833.8074      19.964449      26222.102      403.26814      2477.9921      1.5452652      0.84657652   
     11100  -1811.9456     -1831.7859      19.840341      25963.191      400.76125      2454.8562      1.5598286      0.84657652   
     11200  -1811.5929     -1830.7807      19.187731      28120.324      387.57898      2444.7416      1.566282       0.84657652   
     11300  -1812.6173     -1831.6695      19.052254      22306.935      384.84242      2449.6853      1.5631212      0.84657652   
     11400  -1813.8283     -1834.0085      20.180203      13039.08       407.62624      2467.884       1.5515944      0.84657652   
     11500  -1814.1339     -1831.6842      17.550289      15038.469      354.50378      2493.4834      1.5356649      0.84657652   
     11600  -1814.4857     -1833.4128      18.927172      19594.909      382.31586      2524.3243      1.5169029      0.84657652   
     11700  -1814.9746     -1833.2639      18.289287      16841.544      369.43102      2551.8482      1.5005418      0.84657652   
     11800  -1814.1879     -1834.0501      19.862179      7563.841       401.20237      2570.6117      1.489589       0.84657652   
     11900  -1812.9982     -1832.3206      19.322402      14472.467      390.29923      2577.9782      1.4853326      0.84657652   
     12000  -1811.7963     -1832.4414      20.645146      16102.096      417.01776      2574.9725      1.4870663      0.75339994   
     12100  -1810.8122     -1830.9836      20.171478      16208.959      407.44999      2563.7265      1.4935895      0.75339994   
     12200  -1810.4818     -1831.3347      20.852813      18902.668      421.21249      2548.2554      1.5026574      0.75339994   
     12300  -1811.2426     -1831.7451      20.502546      17839.725      414.13734      2530.1802      1.5133922      0.75339994   
     12400  -1811.2731     -1831.7732      20.500091      23718.51       414.08774      2510.8198      1.5250616      0.75339994   
     12500  -1812.3941     -1831.3826      18.988437      28886.483      383.55338      2493.2719      1.5357952      0.75339994   
     12600  -1812.7432     -1832.1638      19.420678      24127.845      392.28434      2483.1578      1.5420506      0.75339994   
     12700  -1813.0602     -1832.7673      19.707103      24666.767      398.06993      2481.5213      1.5430675      0.75339994   
     12800  -1813.2429     -1832.8521      19.609235      24085.27       396.09306      2488.6305      1.5386595      0.75339994   
     12900  -1812.1779     -1831.5712      19.39327       28712.795      391.73072      2501.9707      1.5304556      0.75339994   
     13000  -1812.1257     -1832.3625      20.236782      20318.176      408.76909      2522.2838      1.5181301      0.77977926   
     13100  -1812.5395     -1831.8352      19.295667      15654.436      389.75921      2545.4468      1.5043155      0.77977926   
     13200  -1812.3985     -1832.045       19.646474      10160.012      396.84526      2567.2754      1.4915248      0.77977926   
     13300  -1812.663      -1832.2689      19.605866      9892.6181      396.02502      2583.8274      1.4819701      0.77977926   
     13400  -1813.0352     -1832.2571      19.221956      11996.116      388.27029      2592.0769      1.4772536      0.77977926   
     13500  -1814.0272     -1833.4343      19.407117      15820.406      392.01043      2588.4273      1.4793365      0.77977926   
     13600  -1813.4356     -1832.1741      18.738451      20376.313      378.50384      2572.5911      1.4884429      0.77977926   
     13700  -1813.4989     -1832.8777      19.3788        15049.426      391.43843      2547.945       1.5028405      0.77977926   
     13800  -1813.778      -1832.4736      18.695589      17145.569      377.63805      2519.1848      1.5199976      0.77977926   
     13900  -1812.7551     -1832.713       19.957933      18136.016      403.13653      2491.3959      1.5369516      0.77977926   
     14000  -1812.8818     -1832.9781      20.096333      28214.43       405.93211      2471.4503      1.5493554      0.76074862   
     14100  -1812.4591     -1831.6934      19.234285      17085.01       388.51933      2462.7551      1.5548257      0.76074862   
     14200  -1811.4994     -1831.0055      19.506171      17354.228      394.01125      2467.7436      1.5516827      0.76074862   
     14300  -1813.0634     -1832.3819      19.318529      18067.424      390.22099      2486.7069      1.5398497      0.76074862   
     14400  -1813.4692     -1833.224       19.754798      21867.443      399.03334      2513.8205      1.5232412      0.76074862   
     14500  -1813.8791     -1833.6409      19.761751      14888.623      399.17379      2543.9734      1.5051867      0.76074862   
     14600  -1815.3188     -1833.4666      18.147779      9442.7668      366.57266      2570.1817      1.4898382      0.76074862   
     14700  -1814.4805     -1833.1125      18.632036      14457.807      376.35432      2584.7846      1.4814213      0.76074862   
     14800  -1813.4137     -1832.7508      19.337198      17762.177      390.5981       2585.9183      1.4807718      0.76074862   
     14900  -1811.9509     -1831.8253      19.874448      16753.964      401.45018      2575.9761      1.486487       0.76074862   
     15000  -1811.8527     -1832.7456      20.892905      17861.601      422.02231      2558.1737      1.4968315      0.68389783   
     15100  -1811.0757     -1831.6256      20.549952      19506.697      415.09491      2536.2827      1.5097508      0.68389783   
     15200  -1810.938      -1831.7593      20.821237      18008.522      420.57467      2516.3872      1.5216875      0.68389783   
     15300  -1811.7812     -1831.1328      19.35157       17443.733      390.8884       2502.099       1.5303771      0.68389783   
     15400  -1811.9553     -1831.6537      19.698415      19383.717      397.89443      2495.6837      1.534311       0.68389783   
     15500  -1813.0838     -1833.1882      20.104335      16194.166      406.09374      2497.116       1.5334309      0.68389783   
     15600  -1811.9814     -1830.91        18.928636      15849.228      382.34544      2503.1739      1.5297199      0.68389783   
     15700  -1811.7519     -1831.3559      19.604001      20678.793      395.98735      2514.5547      1.5227964      0.68389783   
     15800  -1812.3598     -1833.0817      20.721916      21889.429      418.56846      2530.7008      1.5130809      0.68389783   
     15900  -1812.7252     -1831.3428      18.617617      19518.381      376.06306      2547.0112      1.5033915      0.68389783   
     16000  -1811.7643     -1832.1642      20.399965      23715.341      412.06527      2561.8452      1.4946863      0.72451002   
     16100  -1812.4011     -1831.9982      19.597184      19085.855      395.84965      2572.0983      1.4887281      0.72451002   
     16200  -1813.0949     -1831.9545      18.859585      16038.049      380.95065      2575.9201      1.4865193      0.72451002   
     16300  -1812.5764     -1832.5088      19.932436      13500.739      402.62151      2571.9357      1.4888222      0.72451002   
     16400  -1812.7112     -1832.0297      19.3185        20710.945      390.22042      2560.4788      1.4954839      0.72451002   
     16500  -1812.1165     -1832.2956      20.179152      23790.875      407.60499      2544.2707      1.5050108      0.72451002   
     16600  -1811.9425     -1831.6891      19.746598      25382.837      398.8677       2528.0283      1.5146804      0.72451002   
     16700  -1812.2354     -1830.8427      18.60729       24104.292      375.85447      2514.43        1.522872       0.72451002   
     16800  -1811.9282     -1831.9738      20.045614      23161.311      404.90762      2505.5018      1.5282986      0.72451002   
     16900  -1811.321      -1831.956       20.635029      25479.447      416.8134       2503.4002      1.5295816      0.72451002   
     17000  -1811.9206     -1833.1667      21.246129      25478.591      429.15719      2507.9916      1.5267814      0.79037977   
     17100  -1812.1987     -1832.3286      20.129941      27798.376      406.61097      2518.1531      1.5206204      0.79037977   
     17200  -1811.9965     -1831.6604      19.663901      24572.124      397.19727      2530.7328      1.5130617      0.79037977   
     17300  -1813.1601     -1831.3449      18.18475       26598.926      367.31945      2544.7994      1.5046981      0.79037977   
     17400  -1813.4277     -1832.6312      19.203531      18554.143      387.89813      2556.5486      1.497783       0.79037977   
     17500  -1813.0533     -1831.4798      18.426535      11503.099      372.20333      2563.1232      1.493941       0.79037977   
     17600  -1812.3251     -1832.0528      19.727685      14494.58       398.48568      2563.2534      1.4938652      0.79037977   
     17700  -1811.0485     -1833.1307      22.082266      19474.299      446.04659      2558.8354      1.4964444      0.79037977   
     17800  -1811.2517     -1831.1699      19.918207      19054.02       402.33408      2550.4984      1.5013359      0.79037977   
     17900  -1811.8058     -1832.0183      20.212433      14453.793      408.27724      2541.4821      1.5066622      0.79037977   
     18000  -1810.7425     -1830.9349      20.192415      27034.18       407.8729       2529.8828      1.5135701      0.76294338   
     18100  -1809.9794     -1831.0268      21.047395      26462.3        425.14291      2522.1339      1.5182203      0.76294338   
     18200  -1809.2875     -1830.6382      21.350734      23674.584      431.27015      2521.1834      1.5187927      0.76294338   
     18300  -1810.3166     -1830.883       20.566407      22591.514      415.42728      2526.481       1.515608       0.76294338   
     18400  -1812.0937     -1831.5844      19.49077       17983.982      393.70015      2535.1902      1.5104014      0.76294338   
     18500  -1812.7625     -1832.6513      19.888821      17070.459      401.74052      2543.9306      1.505212       0.76294338   
     18600  -1811.8277     -1832.2258      20.398038      4729.4387      412.02634      2552.16        1.5003585      0.76294338   
     18700  -1810.7881     -1830.8169      20.028796      15891.117      404.56792      2557.6279      1.4971509      0.76294338   
     18800  -1811.4155     -1832.2506      20.835059      19990.285      420.85387      2561.0675      1.4951402      0.76294338   
     18900  -1812.1238     -1831.8665      19.742641      17195.374      398.78777      2562.1656      1.4944994      0.76294338   
     19000  -1810.8783     -1831.1867      20.308401      13348.225      410.21574      2559.8695      1.4958399      0.78532026   
     19100  -1810.3567     -1831.048       20.691245      23623.762      417.94892      2554.8114      1.4988014      0.78532026   
     19200  -1808.9936     -1829.924       20.930464      22892.767      422.78097      2550.3194      1.5014413      0.78532026   
     19300  -1809.4309     -1829.6421      20.211159      22860.479      408.25153      2549.103       1.5021578      0.78532026   
     19400  -1810.0436     -1830.7397      20.696066      18423.891      418.04631      2550.0314      1.5016109      0.78532026   
     19500  -1811.529      -1831.7199      20.190951      23957.802      407.84334      2551.2915      1.5008692      0.78532026   
     19600  -1811.5742     -1830.7939      19.219659      21227.807      388.22389      2551.0096      1.5010351      0.78532026   
     19700  -1811.6003     -1831.4403      19.840029      18896.032      400.75495      2549.5305      1.5019059      0.78532026   
     19800  -1812.8386     -1832.2129      19.374268      18493.804      391.34688      2545.1483      1.5044919      0.78532026   
     19900  -1813.5982     -1833.5184      19.920225      13992.45       402.37485      2536.2856      1.5097491      0.78532026   
     20000  -1811.895      -1831.9221      20.02712       22333.66       404.53405      2524.4549      1.5168244      0.70818085   
     20031  -1811.8985     -1831.8086      19.910156      17402.438      402.17146      2520.946       1.5189357      0.70818085   
Loop time of 53.2101 on 1 procs for 20000 steps with 384 atoms

Performance: 16.238 ns/day, 1.478 hours/ns, 375.868 timesteps/s, 144.333 katom-step/s
99.8% CPU use with 1 MPI tasks x 1 OpenMP threads

MPI task timing breakdown:
Section |  min time  |  avg time  |  max time  |%varavg| %total
---------------------------------------------------------------
Pair    | 32.639     | 32.639     | 32.639     |   0.0 | 61.34
Neigh   | 0.86001    | 0.86001    | 0.86001    |   0.0 |  1.62
Comm    | 0.80537    | 0.80537    | 0.80537    |   0.0 |  1.51
Output  | 0.024817   | 0.024817   | 0.024817   |   0.0 |  0.05
Modify  | 18.431     | 18.431     | 18.431     |   0.0 | 34.64
Other   |            | 0.4502     |            |       |  0.85

Nlocal:            384 ave         384 max         384 min
Histogram: 1 0 0 0 0 0 0 0 0 0
Nghost:           2471 ave        2471 max        2471 min
Histogram: 1 0 0 0 0 0 0 0 0 0
Neighs:              0 ave           0 max           0 min
Histogram: 1 0 0 0 0 0 0 0 0 0
FullNghs:        67338 ave       67338 max       67338 min
Histogram: 1 0 0 0 0 0 0 0 0 0

Total # of neighbors = 67338
Ave neighs/atom = 175.35938
Neighbor list builds = 1996
Dangerous builds = 1981
Setting up Verlet run ...
  Unit style    : metal
  Current step  : 20031
  Time step     : 0.0005
WARNING: Fix with atom-based arrays not compatible with Kokkos sorting on device, switching to classic host sorting (src/KOKKOS/atom_kokkos.cpp:216)
Per MPI rank memory allocation (min/avg/max) = 370.6 | 370.6 | 370.6 Mbytes
   Step         TotEng         PotEng         KinEng         Press           Temp          Volume        Density     c_max_pace_gamma
     20031  -1812.006      -1831.8086      19.802654      17356.89       400            2520.946       1.5189357      0.70818085   
     20100  -1812.1769     -1833.2062      21.029328      26977.335      424.77797      2521.5282      1.518585       0.70818085   
     20200  -1812.7207     -1831.78        19.059239      32350.51       384.98353      2522.9267      1.5177432      0.70818085   
     20300  -1812.8295     -1832.0874      19.257918      27016.562      388.9967       2526.0699      1.5158547      0.70818085   
     20400  -1813.5207     -1831.9572      18.436532      20463.915      372.40527      2530.4066      1.5132568      0.70818085   
     20500  -1813.7452     -1832.6699      18.924709      16361.285      382.26611      2533.5668      1.5113692      0.70818085   
     20600  -1814.3168     -1833.2903      18.973534      21834.942      383.25234      2533.8126      1.5112226      0.70818085   
     20700  -1813.888      -1832.2467      18.358669      22266.925      370.8325       2532.773       1.5118429      0.70818085   
     20800  -1814.4512     -1833.2938      18.842636      23763.469      380.60829      2532.3029      1.5121236      0.70818085   
     20900  -1814.5225     -1833.6448      19.122278      22689.069      386.25687      2530.1247      1.5134254      0.70818085   
     21000  -1813.1074     -1832.4031      19.295685      21531.581      389.75957      2526.7752      1.5154316      0.85364693   
     21100  -1812.8084     -1831.6911      18.88271       24629.12       381.41776      2525.5803      1.5161486      0.85364693   
     21200  -1812.571      -1831.7813      19.210314      24602.717      388.03514      2528.0608      1.5146609      0.85364693   
     21300  -1812.6312     -1831.9169      19.285697      25552.1        389.55782      2532.1578      1.5122102      0.85364693   
     21400  -1812.6428     -1831.8234      19.180643      19690.107      387.43581      2537.5294      1.5090091      0.85364693   
     21500  -1811.0842     -1832.4699      21.385737      16543.645      431.97719      2544.1343      1.5050915      0.85364693   
     21600  -1811.5273     -1831.5727      20.045407      17092.309      404.90343      2550.1018      1.5015694      0.85364693   
     21700  -1812.6721     -1832.2432      19.571124      14235.07       395.32325      2556.3668      1.4978895      0.85364693   
     21800  -1813.6009     -1832.2736      18.672688      22199.814      377.17546      2558.9032      1.4964048      0.85364693   
     21900  -1814.4701     -1833.4626      18.992566      15495.537      383.63678      2555.4589      1.4984217      0.85364693   
     22000  -1813.7744     -1833.1629      19.388485      13402.073      391.63406      2546.134       1.5039094      0.8205835    
     22100  -1813.9463     -1833.7201      19.773849      13029.864      399.41815      2533.7243      1.5112753      0.8205835    
     22200  -1813.4454     -1832.1231      18.677679      22227.977      377.27627      2520.0086      1.5195008      0.8205835    
     22300  -1814.4758     -1832.9908      18.514918      22416.658      373.98862      2508.6508      1.5263802      0.8205835    
     22400  -1813.3891     -1832.6097      19.220568      26273.51       388.24226      2499.8968      1.5317252      0.8205835    
     22500  -1812.4555     -1833.5045      21.048972      25405.114      425.17476      2498.3603      1.5326672      0.8205835    
     22600  -1811.7184     -1832.1877      20.469349      24462.04       413.46679      2504.6429      1.5288227      0.8205835    
     22700  -1811.9973     -1832.0548      20.057505      20804.07       405.14782      2519.0348      1.5200882      0.8205835    
     22800  -1811.6717     -1832.7372      21.065502      15903.102      425.50866      2539.9156      1.5075914      0.8205835    
     22900  -1812.9888     -1832.5744      19.585607      16514.527      395.6158       2563.6896      1.493611       0.8205835    
     23000  -1813.1871     -1832.654       19.466846      12701.25       393.2169       2584.4676      1.481603       0.75453603   
     23100  -1812.3674     -1831.5661      19.198678      15212.572      387.80009      2599.316       1.4731394      0.75453603   
     23200  -1813.0711     -1831.7672      18.696091      6420.3164      377.64819      2604.5771      1.4701638      0.75453603   
     23300  -1813.8412     -1831.3445      17.503304      14203.412      353.5547       2598.4117      1.4736521      0.75453603   
     23400  -1814.4796     -1833.5971      19.117496      17057.381      386.16027      2583.1639      1.4823508      0.75453603   
     23500  -1815.0578     -1832.674       17.616263      23294.99       355.8364       2559.0696      1.4963075      0.75453603   
     23600  -1814.4178     -1833.5977      19.179975      20033.03       387.4223       2532.8957      1.5117697      0.75453603   
     23700  -1812.7013     -1832.2615      19.560183      25409.062      395.10226      2507.1145      1.5273155      0.75453603   
     23800  -1811.4216     -1831.7425      20.320888      32468.568      410.46797      2488.7605      1.5385791      0.75453603   
     23900  -1809.8278     -1831.0671      21.239326      27997.369      429.01978      2481.834       1.5428731      0.75453603   
     24000  -1809.9772     -1831.7034      21.726293      29764.02       438.85617      2489.4423      1.5381577      0.72069136   
     24100  -1810.612      -1830.4758      19.863833      25545.066      401.23577      2511.0371      1.5249297      0.72069136   
     24200  -1809.5703     -1829.5787      20.008357      29506.759      404.15504      2540.8667      1.5070271      0.72069136   
     24300  -1809.5848     -1831.0104      21.425568      19703.686      432.78175      2573.6112      1.4878529      0.72069136   
     24400  -1811.2715     -1832.2899      21.018392      16228.03       424.55706      2603.3131      1.4708776      0.72069136   
     24500  -1809.5227     -1830.4185      20.895796      10255.987      422.0807       2623.2118      1.4597201      0.72069136   
     24600  -1809.9194     -1830.2425      20.323098      10959.487      410.51261      2630.3944      1.4557341      0.72069136   
     24700  -1809.5903     -1831.6258      22.035476      11420.465      445.10146      2625.1581      1.4586378      0.72069136   
     24800  -1810.0286     -1831.4318      21.403241      12081.643      432.33076      2609.5828      1.4673437      0.72069136   
     24900  -1810.275      -1830.8079      20.532929      21179.085      414.75106      2585.878       1.4807949      0.72069136   
     25000  -1810.3922     -1830.8598      20.467637      33884.346      413.43219      2557.9519      1.4969613      0.8025839    
     25100  -1809.8893     -1830.1077      20.218399      38229.549      408.39775      2533.5402      1.5113851      0.8025839    
     25200  -1810.5661     -1831.3367      20.770667      27276.991      419.5532       2517.3699      1.5210935      0.8025839    
     25300  -1810.1446     -1831.4315      21.286933      29685.57       429.98141      2509.5487      1.5258341      0.8025839    
     25400  -1809.0167     -1830.8125      21.795783      17143.036      440.25984      2512.6907      1.5239261      0.8025839    
     25500  -1807.9661     -1830.1211      22.154989      23446.417      447.51555      2524.9942      1.5165005      0.8025839    
     25600  -1808.8685     -1831.5768      22.708377      14900.428      458.6936       2546.3717      1.503769       0.8025839    
     25700  -1810.4881     -1830.197       19.708899      20757.667      398.1062       2570.3685      1.4897299      0.8025839    
     25800  -1808.9834     -1830.1742      21.190779      14684.736      428.03917      2589.5521      1.4786939      0.8025839    
     25900  -1808.4491     -1829.6786      21.229519      10095.239      428.82169      2601.2558      1.4720409      0.8025839    
     26000  -1809.1185     -1829.0348      19.916331      9757.3846      402.29619      2605.3811      1.4697101      0.70095359   
     26100  -1809.2756     -1830.5414      21.265854      15507.651      429.55563      2602.8487      1.47114        0.70095359   
     26200  -1809.316      -1829.9573      20.64129       20075.672      416.93987      2593.0387      1.4767057      0.70095359   
     26300  -1809.0701     -1830.2459      21.175834      22322.67       427.73729      2577.1274      1.4858229      0.70095359   
     26400  -1810.2065     -1829.9918      19.785295      21695.752      399.64936      2559.9923      1.4957681      0.70095359   
     26500  -1810.2779     -1830.4798      20.201918      21100.978      408.06486      2544.5092      1.5048698      0.70095359   
     26600  -1809.7565     -1830.985       21.228532      21993.383      428.80175      2531.0476      1.5128735      0.70095359   
     26700  -1810.0402     -1829.6336      19.593389      28414.228      395.77298      2522.3426      1.5180947      0.70095359   
     26800  -1809.5608     -1830.6031      21.042246      24812.029      425.0389       2520.7635      1.5190457      0.70095359   
     26900  -1809.9665     -1830.2776      20.311114      15834.835      410.27054      2525.3947      1.51626        0.70095359   
     27000  -1811.1267     -1831.6704      20.543655      20400.497      414.9677       2535.8117      1.5100313      0.85041822   
     27100  -1812.3012     -1831.8975      19.59631       25303.55       395.83199      2548.0742      1.5027643      0.85041822   
     27200  -1811.7722     -1831.9285      20.156292      20581.34       407.14325      2559.4927      1.4960601      0.85041822   
     27300  -1812.0927     -1831.26        19.167249      12097.278      387.16526      2567.6436      1.4913109      0.85041822   
     27400  -1811.6523     -1831.9001      20.247833      17723.165      408.99231      2570.6065      1.489592       0.85041822   
     27500  -1812.0515     -1831.3379      19.286417      17450.673      389.57237      2568.2187      1.490977       0.85041822   
     27600  -1812.0151     -1831.8887      19.873579      15085.387      401.43263      2561.5461      1.4948608      0.85041822   
     27700  -1811.7748     -1832.1239      20.349119      17440.449      411.03821      2551.631       1.5006696      0.85041822   
     27800  -1811.0936     -1831.1562      20.062641      16514.716      405.25155      2539.0313      1.5081165      0.85041822   
     27900  -1812.2077     -1832.4295      20.221772      21258.312      408.46588      2525.9754      1.5159114      0.85041822   
     28000  -1811.5514     -1831.3726      19.821221      19077.438      400.37503      2513.5276      1.5234187      0.76585302   
     28100  -1810.6572     -1830.9349      20.277684      11638.035      409.59528      2504.3977      1.5289724      0.76585302   
     28200  -1810.2567     -1829.2202      18.963532      21683.568      383.05031      2504.3251      1.5290167      0.76585302   
     28300  -1810.7172     -1831.9438      21.226552      19493.288      428.76176      2515.5341      1.5222035      0.76585302   
     28400  -1811.4816     -1832.291       20.809354      14215.477      420.33464      2532.0624      1.5122672      0.76585302   
     28500  -1812.0198     -1831.4603      19.440483      22463.608      392.68439      2548.862       1.5022998      0.76585302   
     28600  -1812.3293     -1831.8441      19.514803      20078.387      394.18559      2564.9849      1.4928567      0.76585302   
     28700  -1812.0886     -1832.4178      20.329192      13758.847      410.63571      2576.9216      1.4859416      0.76585302   
     28800  -1812.0622     -1831.2845      19.22233       12465.589      388.27785      2582.0009      1.4830184      0.76585302   
     28900  -1812.0397     -1832.9156      20.875841      14629.096      421.67764      2580.224       1.4840397      0.76585302   
     29000  -1811.5955     -1831.4395      19.844005      20822.444      400.83526      2569.652       1.4901453      0.86788992   
     29100  -1811.2561     -1831.0089      19.752826      28166.734      398.9935       2552.4255      1.5002024      0.86788992   
     29200  -1811.501      -1832.403       20.901932      21564.453      422.20465      2534.4154      1.5108632      0.86788992   
     29300  -1813.2465     -1833.6194      20.372864      20557.454      411.51785      2515.9379      1.5219593      0.86788992   
     29400  -1813.9335     -1832.9871      19.053549      19948.081      384.86859      2498.8152      1.5323882      0.86788992   
     29500  -1813.5704     -1833.4014      19.831034      17623.494      400.57326      2487.1825      1.5395552      0.86788992   
     29600  -1814.1382     -1832.7035      18.565273      20393.947      375.00575      2480.5497      1.5436719      0.86788992   
     29700  -1814.1046     -1833.2759      19.171329      23083.309      387.24766      2480.3892      1.5437718      0.86788992   
     29800  -1814.5403     -1832.1894      17.649079      24651.332      356.49927      2487.6933      1.5392392      0.86788992   
     29900  -1815.1298     -1833.3826      18.252793      19628.471      368.69386      2503.1545      1.5297318      0.86788992   
     30000  -1813.9143     -1833.2804      19.366107      20587.051      391.18204      2522.0265      1.5182849      0.75829029   
     30100  -1814.8956     -1833.5938      18.698212      17447.558      377.69102      2541.5895      1.5065985      0.75829029   
     30200  -1814.1537     -1832.8372      18.683485      18598.752      377.39354      2557.3358      1.4973219      0.75829029   
     30300  -1814.0061     -1831.981       17.974854      15297.344      363.07969      2567.0314      1.4916666      0.75829029   
     30400  -1813.5197     -1833.1351      19.615323      16139.979      396.21603      2569.5574      1.4902002      0.75829029   
     30500  -1812.4765     -1832.59        20.113586      23729.884      406.28062      2563.737       1.4935834      0.75829029   
     30600  -1812.9589     -1832.4134      19.454506      20509.309      392.96764      2552.4443      1.5001914      0.75829029   
     30700  -1813.2533     -1833.1766      19.923308      21015.946      402.43712      2537.2582      1.5091704      0.75829029   
     30800  -1813.3997     -1833.1636      19.763881      14462.353      399.2168       2520.3512      1.5192942      0.75829029   
     30900  -1814.0034     -1833.4233      19.419911      21231.673      392.26885      2504.5107      1.5289034      0.75829029   
     31000  -1813.9072     -1832.9931      19.085889      23173.665      385.52184      2492.4971      1.5362726      0.80288041   
     31100  -1812.3959     -1832.3074      19.911457      21260.924      402.19774      2488.5383      1.5387165      0.80288041   
     31200  -1812.0183     -1832.2575      20.239215      35478.186      408.81822      2493.3994      1.5357167      0.80288041   
     31300  -1813.1711     -1832.7809      19.609785      28079.458      396.10418      2506.8564      1.5274728      0.80288041   
     31400  -1813.8835     -1833.3306      19.447047      17729.2        392.81698      2524.7813      1.5166284      0.80288041   
     31500  -1814.1637     -1833.244       19.080257      15861.826      385.40807      2542.2496      1.5062073      0.80288041   
     31600  -1814.2492     -1833.0979      18.848636      18875.013      380.7295       2555.2983      1.4985158      0.80288041   
     31700  -1814.4551     -1833.5978      19.142708      19368.922      386.66953      2563.6998      1.493605       0.80288041   
     31800  -1813.7063     -1832.7752      19.068989      22231.416      385.18046      2564.3266      1.49324        0.80288041   
     31900  -1812.443      -1831.5898      19.146809      19900.184      386.75238      2559.1151      1.4962808      0.80288041   
     32000  -1811.2399     -1831.4606      20.22072       15893.496      408.44463      2551.0197      1.5010292      0.72944851   
     32100  -1810.485      -1830.4595      19.974451      18541.449      403.47017      2542.6116      1.5059929      0.72944851   
     32200  -1810.3615     -1831.7068      21.345346      16285.385      431.16131      2537.4596      1.5090506      0.72944851   
     32300  -1811.2272     -1830.8958      19.668666      20729.713      397.29353      2535.6134      1.5101494      0.72944851   
     32400  -1811.5296     -1833.0832      21.553544      21624.888      435.36678      2535.0501      1.5104849      0.72944851   
     32500  -1812.7899     -1831.4042      18.614388      19317.766      375.99784      2534.0062      1.5111072      0.72944851   
     32600  -1813.0667     -1832.6691      19.602472      17274.737      395.95646      2534.3352      1.510911       0.72944851   
     32700  -1813.3606     -1831.8503      18.48968       16786.379      373.47883      2533.7607      1.5112536      0.72944851   
     32800  -1813.2437     -1833.122       19.878251      21440.02       401.527        2532.9742      1.5117228      0.72944851   
     32900  -1812.0633     -1831.9602      19.89692       17483.541      401.9041       2532.3689      1.5120842      0.72944851   
     33000  -1811.6241     -1832.2724      20.648355      16409.139      417.08257      2535.14        1.5104313      0.81134652   
     33100  -1812.0015     -1832.2314      20.2299        22456.476      408.63008      2540.7579      1.5070916      0.81134652   
     33200  -1811.8378     -1832.7773      20.939482      21615.776      422.96315      2547.1494      1.5033099      0.81134652   
     33300  -1812.0493     -1833.0049      20.955638      23058.968      423.28949      2553.7885      1.4994017      0.81134652   
     33400  -1812.5867     -1832.8503      20.263599      22188.63       409.31076      2560.1128      1.4956978      0.81134652   
     33500  -1813.7943     -1832.561       18.76671       17841.329      379.07464      2562.7255      1.4941729      0.81134652   
     33600  -1813.4382     -1832.7292      19.290946      14211.119      389.66385      2559.1918      1.496236       0.81134652   
     33700  -1813.7668     -1831.3135      17.546723      18019.742      354.43175      2550.1484      1.501542       0.81134652   
     33800  -1814.0655     -1832.4709      18.405383      15076.461      371.77608      2539.1301      1.5080578      0.81134652   
     33900  -1813.1996     -1831.4972      18.297588      21082.339      369.59869      2527.9049      1.5147543      0.81134652   
     34000  -1813.3293     -1833.0451      19.715774      12493.96       398.24507      2518.7804      1.5202417      0.78167838   
     34100  -1812.9631     -1831.5443      18.581185      11572.056      375.32716      2512.1397      1.5242603      0.78167838   
     34200  -1811.8403     -1830.8324      18.992107      19723.477      383.62751      2509.5156      1.5258542      0.78167838   
     34300  -1812.9481     -1832.5111      19.562965      19780.873      395.15845      2513.3092      1.5235511      0.78167838   
     34400  -1813.0084     -1832.425       19.416641      24960.419      392.2028       2520.9059      1.5189599      0.78167838   
     34500  -1813.4918     -1832.3601      18.868345      27343.493      381.1276       2529.879       1.5135724      0.78167838   
     34600  -1814.7909     -1832.8591      18.068221      21349.141      364.96565      2538.9432      1.5081688      0.78167838   
     34700  -1814.0739     -1832.6321      18.558227      17654.419      374.86342      2545.1402      1.5044966      0.78167838   
     34800  -1813.2256     -1833.1113      19.885703      22719.85       401.67753      2546.8601      1.5034807      0.78167838   
     34900  -1811.8713     -1832.074       20.202712      20554.492      408.0809       2545.3102      1.5043962      0.78167838   
     35000  -1811.9137     -1831.7293      19.815653      22194.348      400.26257      2544.7892      1.5047042      0.73788416   
     35100  -1811.23       -1831.5959      20.365893      19752.034      411.37705      2545.0331      1.50456        0.73788416   
     35200  -1811.5251     -1832.6491      21.123963      20282.32       426.68953      2543.4791      1.5054792      0.73788416   
     35300  -1812.1        -1831.1093      19.009304      27531.752      383.97486      2541.019       1.5069367      0.73788416   
     35400  -1812.2731     -1832.1092      19.836053      25824.99       400.67464      2538.596       1.5083751      0.73788416   
     35500  -1813.2523     -1832.6519      19.399621      20178.403      391.85901      2535.3074      1.5103316      0.73788416   
     35600  -1811.7765     -1831.8384      20.061921      17005.009      405.23702      2532.0009      1.512304       0.73788416   
     35700  -1811.5317     -1831.0513      19.51963       14018.563      394.2831       2529.4417      1.513834       0.73788416   
     35800  -1811.7872     -1832.3262      20.538941      14676.037      414.87248      2527.056       1.5152632      0.73788416   
     35900  -1812.186      -1832.568       20.38197       19958.891      411.70177      2527.735       1.5148562      0.73788416   
     36000  -1811.1612     -1830.9889      19.827647      14351.335      400.50484      2530.9715      1.512919       0.85164934   
     36100  -1811.8548     -1832.2442      20.389471      19738.185      411.85329      2536.663       1.5095245      0.85164934   
     36200  -1812.8559     -1832.4092      19.553296      19934.368      394.96313      2542.0865      1.506304       0.85164934   
     36300  -1812.497      -1831.9673      19.470236      16616.799      393.28538      2543.5558      1.5054338      0.85164934   
     36400  -1812.5368     -1831.9216      19.384744      15768.899      391.5585       2542.0298      1.5063375      0.85164934   
     36500  -1812.1214     -1831.9694      19.847983      11589.656      400.91561      2537.9323      1.5087695      0.85164934   
     36600  -1812.1587     -1831.6681      19.509426      19903.296      394.07699      2532.7153      1.5118774      0.85164934   
     36700  -1812.37       -1831.4533      19.083236      30355.758      385.46824      2529.4152      1.5138499      0.85164934   
     36800  -1812.1946     -1832.6505      20.455949      26970.995      413.19611      2528.292       1.5145224      0.85164934   
     36900  -1811.4089     -1831.2644      19.855568      26532.857      401.06883      2529.0932      1.5140426      0.85164934   
     37000  -1811.9186     -1831.1887      19.270053      17497.527      389.24181      2532.39        1.5120716      0.76170902   
     37100  -1812.0124     -1831.6622      19.64979       20844.178      396.91224      2536.1019      1.5098585      0.76170902   
     37200  -1811.7017     -1831.5352      19.833526      24180.959      400.6236       2539.9108      1.5075943      0.76170902   
     37300  -1812.9116     -1832.6189      19.707215      17610.467      398.0722       2544.4873      1.5048827      0.76170902   
     37400  -1812.9749     -1831.923       18.948152      17869.826      382.73963      2547.5928      1.5030483      0.76170902   
     37500  -1812.7248     -1831.5408      18.815958      15626.274      380.06941      2549.3627      1.5020047      0.76170902   
     37600  -1812.0653     -1831.3512      19.28588       20561.193      389.56153      2548.09        1.502755       0.76170902   
     37700  -1810.9348     -1831.3623      20.427583      27214.87       412.62314      2546.2396      1.503847       0.76170902   
     37800  -1811.2785     -1831.5628      20.284324      29647.149      409.7294       2544.7258      1.5047416      0.76170902   
     37900  -1811.9904     -1832.365       20.374525      23856.076      411.55139      2544.0711      1.5051289      0.76170902   
     38000  -1810.8349     -1832.9241      22.089173      22089.523      446.18611      2542.4686      1.5060776      0.80741412   
     38100  -1810.4621     -1830.9911      20.529007      27295.173      414.67182      2541.8204      1.5064616      0.80741412   
     38200  -1809.5637     -1829.7396      20.17592       27269.324      407.53971      2544.0114      1.5051642      0.80741412   
     38300  -1810.4788     -1831.1918      20.71299       17709.043      418.38816      2549.8092      1.5017417      0.80741412   
     38400  -1812.108      -1831.9173      19.809331      13914.492      400.13487      2556.002       1.4981033      0.80741412   
     38500  -1812.8766     -1832.791       19.914343      17669.028      402.25603      2559.5661      1.4960172      0.80741412   
     38600  -1811.7572     -1831.3109      19.553719      20240.658      394.97168      2559.2275      1.4962151      0.80741412   
     38700  -1810.5702     -1831.6933      21.123073      14805.697      426.67155      2555.4585      1.4984219      0.80741412   
     38800  -1811.3052     -1831.8568      20.551608      19111.11       415.12835      2551.3968      1.5008073      0.80741412   
     38900  -1812.1053     -1831.5669      19.461606      22543.935      393.11106      2546.3701      1.50377        0.80741412   
     39000  -1811.1314     -1830.5325      19.401068      16276.691      391.88823      2539.9464      1.5075731      0.83140857   
     39100  -1810.3741     -1829.7437      19.369634      13703.707      391.2533       2536.6376      1.5095396      0.83140857   
     39200  -1809.0666     -1831.1538      22.087133      23157.627      446.1449       2540.1265      1.5074663      0.83140857   
     39300  -1809.8741     -1830.6966      20.822463      19774.644      420.59944      2549.5344      1.5019036      0.83140857   
     39400  -1810.571      -1830.8955      20.324497      21845.243      410.54087      2561.6367      1.494808       0.83140857   
     39500  -1811.8388     -1832.1055      20.266714      17136.259      409.37368      2574.8945      1.4871114      0.83140857   
     39600  -1811.8251     -1830.9889      19.16379       18709.196      387.09537      2584.2561      1.4817242      0.83140857   
     39700  -1811.8279     -1830.6578      18.829916      14463.413      380.35136      2587.6635      1.4797731      0.83140857   
     39800  -1812.8953     -1832.3764      19.481155      14785.013      393.50594      2583.8513      1.4819564      0.83140857   
     39900  -1813.7031     -1833.6051      19.901988      12173.75       402.00647      2572.3044      1.4886088      0.83140857   
     40000  -1811.8882     -1831.7955      19.907277      21308.866      402.1133       2555.2366      1.498552       0.72207142   
     40100  -1811.3007     -1831.514       20.213272      27484.161      408.29421      2537.6338      1.508947       0.72207142   
     40200  -1809.9439     -1830.5405      20.596552      25337.713      416.03619      2524.1274      1.5170213      0.72207142   
     40300  -1809.7316     -1831.1092      21.377564      26596.965      431.8121       2517.4873      1.5210225      0.72207142   
     40400  -1809.0936     -1830.4631      21.369518      15879.72       431.64957      2519.1406      1.5200243      0.72207142   
     40500  -1809.6938     -1829.5857      19.891948      22110.568      401.80367      2526.5298      1.5155788      0.72207142   
     40600  -1810.5419     -1830.7795      20.237582      18530.706      408.78525      2538.7615      1.5082768      0.72207142   
     40700  -1812.4511     -1832.0695      19.618456      12782.704      396.27932      2553.9483      1.4993079      0.72207142   
     40800  -1812.0474     -1830.7856      18.738237      21471.947      378.49951      2567.2382      1.4915464      0.72207142   
     40900  -1812.1242     -1831.8952      19.771006      17230.691      399.36073      2576.5579      1.4861513      0.72207142   
     41000  -1812.8675     -1832.8235      19.956045      17176.485      403.09839      2578.9771      1.4847572      0.76052106   
     41100  -1813.2355     -1831.7927      18.557142      17101.353      374.8415       2573.9664      1.4876476      0.76052106   
     41200  -1812.3125     -1832.9391      20.626611      24604.393      416.64337      2563.6066      1.4936593      0.76052106   
     41300  -1812.3908     -1833.1388      20.748037      22389.025      419.09608      2550.7129      1.5012097      0.76052106   
     41400  -1810.5219     -1830.4476      19.925688      14652.048      402.4852       2536.6012      1.5095613      0.76052106   
     41500  -1811.7296     -1830.8009      19.071301      15779.172      385.22716      2525.9587      1.5159214      0.76052106   
     41600  -1811.564      -1832.0038      20.439811      18579.127      412.87012      2520.4492      1.5192351      0.76052106   
     41700  -1810.6061     -1831.1654      20.559266      24587.99       415.28305      2520.4481      1.5192358      0.76052106   
     41800  -1811.9462     -1832.7955      20.849348      23109.234      421.14249      2526.458       1.5156218      0.76052106   
     41900  -1811.2413     -1832.313       21.071697      21636.035      425.63378      2534.8339      1.5106137      0.76052106   
     42000  -1812.0905     -1830.8301      18.739623      22105.937      378.52751      2544.3414      1.504969       0.71566507   
     42100  -1813.9876     -1833.2742      19.286599      24725.985      389.57604      2553.6846      1.4994627      0.71566507   
     42200  -1812.6143     -1832.3865      19.772281      15957.381      399.38648      2558.4482      1.4966709      0.71566507   
     42300  -1812.4705     -1831.7333      19.262817      16417.065      389.09566      2558.4739      1.4966558      0.71566507   
     42400  -1813.4048     -1834.2383      20.833456      14197.454      420.82149      2555.0574      1.4986571      0.71566507   
     42500  -1813.0232     -1832.6673      19.644061      19111.179      396.79652      2546.2707      1.5038287      0.71566507   
     42600  -1812.923      -1830.911       17.988         14946.942      363.34524      2535.692       1.5101025      0.71566507   
     42700  -1812.9184     -1833.3722      20.453745      21560.449      413.15159      2525.5544      1.5161641      0.71566507   
     42800  -1811.6684     -1830.9356      19.267104      26408.686      389.18225      2517.0112      1.5213103      0.71566507   
     42900  -1811.5077     -1831.7365      20.228809      22527.676      408.60803      2515.3739      1.5223005      0.71566507   
     43000  -1811.5805     -1831.0668      19.486284      24765.216      393.60954      2519.2218      1.5199753      0.72879041   
     43100  -1810.0912     -1830.6834      20.592224      27440.198      415.94877      2527.8194      1.5148056      0.72879041   
     43200  -1811.4267     -1832.5594      21.132707      19330.803      426.86614      2540.7049      1.5071231      0.72879041   
     43300  -1811.2784     -1832.0001      20.721716      16218.129      418.56442      2552.7368      1.5000195      0.72879041   
     43400  -1811.3868     -1831.8161      20.429361      15590.9        412.65905      2560.4909      1.4954769      0.72879041   
     43500  -1811.9965     -1832.9023      20.905771      16155.346      422.28219      2564.402       1.493196       0.72879041   
     43600  -1811.5617     -1831.5004      19.938716      19144.891      402.74836      2561.6771      1.4947844      0.72879041   
     43700  -1810.278      -1831.1259      20.84792       22387.163      421.11365      2553.9526      1.4993054      0.72879041   
     43800  -1810.2898     -1830.0264      19.736542      20833.742      398.66457      2543.8314      1.5052707      0.72879041   
     43900  -1810.8229     -1831.7069      20.884015      22707.901      421.84274      2534.1209      1.5110388      0.72879041   
     44000  -1810.5351     -1832.2939      21.758801      22704.533      439.51282      2526.4609      1.5156201      0.75236527   
     44100  -1811.0267     -1830.0383      19.011625      24160.216      384.02175      2520.272       1.5193419      0.75236527   
     44200  -1812.3908     -1831.5423      19.151501      21258.47       386.84714      2516.6185      1.5215476      0.75236527   
     44300  -1811.8114     -1831.9055      20.094066      27564.167      405.88632      2514.2527      1.5229794      0.75236527   
     44400  -1811.8077     -1831.924       20.116315      26704.591      406.33574      2513.4174      1.5234855      0.75236527   
     44500  -1812.5464     -1831.9972      19.450818      21916.051      392.89315      2516.1335      1.5218409      0.75236527   
     44600  -1813.8992     -1833.0262      19.127022      16572.495      386.3527       2520.3747      1.51928        0.75236527   
     44700  -1814.3284     -1832.2389      17.91055       8681.6052      361.7808       2522.8246      1.5178047      0.75236527   
     44800  -1814.1976     -1832.8789      18.681325      22832.624      377.34992      2523.8727      1.5171744      0.75236527   
     44900  -1814.5458     -1833.5815      19.035686      21393.458      384.50777      2522.8527      1.5177878      0.75236527   
     45000  -1813.1684     -1831.9041      18.735737      21857.431      378.449        2518.5811      1.520362       0.80741039   
     45100  -1811.5346     -1832.4764      20.941835      29729.807      423.01067      2514.6776      1.522722       0.80741039   
     45200  -1813.1163     -1834.0219      20.905548      25745.027      422.27769      2513.5595      1.5233994      0.80741039   
     45300  -1812.7108     -1832.4617      19.750838      26480.853      398.95335      2512.1794      1.5242362      0.80741039   
     45400  -1812.3965     -1831.903       19.506554      21134.289      394.01898      2512.1191      1.5242729      0.80741039   
     45500  -1813.6875     -1833.0218      19.334241      18331.2        390.53837      2514.122       1.5230585      0.80741039   
     45600  -1814.4578     -1832.9655      18.507726      18405.734      373.84335      2515.7356      1.5220816      0.80741039   
     45700  -1813.7253     -1833.6588      19.933514      27092.647      402.64328      2514.7044      1.5227058      0.80741039   
     45800  -1813.2558     -1833.5362      20.280453      26170.387      409.65122      2513.763       1.523276       0.80741039   
     45900  -1812.7886     -1832.6879      19.899326      27155.505      401.9527       2511.8871      1.5244136      0.80741039   
     46000  -1813.9823     -1833.6414      19.659144      18254.249      397.1012       2510.442       1.5252911      0.71176052   
     46100  -1814.4619     -1833.2239      18.762021      17598.671      378.97992      2509.3087      1.52598        0.71176052   
     46200  -1812.5917     -1832.5951      20.003363      23778.219      404.05417      2507.2071      1.5272591      0.71176052   
     46300  -1812.954      -1832.6065      19.652448      25712.091      396.96593      2507.7611      1.5269217      0.71176052   
     46400  -1812.6701     -1831.2878      18.61771       26206.287      376.06494      2511.9827      1.5243556      0.71176052   
     46500  -1811.3656     -1832.2549      20.88929       22451.862      421.9493       2518.8826      1.52018        0.71176052   
     46600  -1810.1207     -1832.0301      21.9094        22839.958      442.55481      2527.7584      1.5148421      0.71176052   
     46700  -1810.1911     -1830.7386      20.547462      26285.672      415.04461      2539.8208      1.5076477      0.71176052   
     46800  -1811.2773     -1831.6547      20.377477      24454.974      411.61103      2552.8328      1.4999631      0.71176052   
     46900  -1811.1676     -1831.015       19.847387      21552.922      400.90357      2563.3213      1.4938256      0.71176052   
     47000  -1810.7012     -1829.5261      18.82497       21687.751      380.25144      2570.5088      1.4896486      0.67993252   
     47100  -1811.1151     -1832.1333      21.018179      14166.593      424.55277      2572.5225      1.4884826      0.67993252   
     47200  -1812.0039     -1831.5457      19.541743      14503.329      394.72976      2563.3169      1.4938282      0.67993252   
     47300  -1811.2847     -1831.2465      19.961853      21339.042      403.21571      2545.8325      1.5040875      0.67993252   
     47400  -1810.9002     -1830.4372      19.536996      25547.151      394.63389      2526.2197      1.5157648      0.67993252   
     47500  -1810.4795     -1831.9879      21.508351      25256.188      434.45391      2507.633       1.5269997      0.67993252   
     47600  -1811.6981     -1832.4035      20.705337      25386.772      418.23357      2491.5139      1.5368788      0.67993252   
     47700  -1811.318      -1831.9486      20.630581      25284.268      416.72355      2481.8385      1.5428703      0.67993252   
     47800  -1811.4959     -1831.9906      20.494742      18890.479      413.97971      2478.2244      1.5451203      0.67993252   
     47900  -1812.5563     -1832.4572      19.900855      19307.318      401.98358      2482.4746      1.542475       0.67993252   
     48000  -1812.9984     -1832.6955      19.697112      21977.038      397.86811      2494.8173      1.5348438      0.82332798   
     48100  -1813.977      -1832.1178      18.140808      20438.123      366.43185      2510.2616      1.5254008      0.82332798   
     48200  -1814.6775     -1833.4326      18.755124      13408.547      378.8406       2526.0148      1.5158877      0.82332798   
     48300  -1814.1191     -1833.4832      19.364029      19036.547      391.14007      2537.8437      1.5088222      0.82332798   
     48400  -1813.1787     -1831.9402      18.761478      18168.197      378.96895      2544.7269      1.504741       0.82332798   
     48500  -1811.6904     -1832.0196      20.329181      21128.06       410.63548      2547.8543      1.502894       0.82332798   
     48600  -1811.9104     -1831.5625      19.652176      26522.379      396.96044      2547.6602      1.5030085      0.82332798   
     48700  -1813.4997     -1834.0053      20.505547      20743.331      414.19796      2542.9009      1.5058215      0.82332798   
     48800  -1813.3087     -1833.1991      19.890394      20285.042      401.77229      2532.2464      1.5121573      0.82332798   
     48900  -1813.4633     -1832.4389      18.97557       22249.803      383.29348      2520.4332      1.5192447      0.82332798   
     49000  -1814.2813     -1833.1742      18.892893      24283.846      381.62345      2508.5249      1.5264568      0.76233326   
     49100  -1813.6589     -1832.8164      19.157488      28921.653      386.96809      2497.1189      1.5334291      0.76233326   
     49200  -1813.0355     -1832.8766      19.841092      31999.164      400.77642      2491.8051      1.5366992      0.76233326   
     49300  -1813.4328     -1832.5968      19.163988      23654.215      387.09938      2491.8908      1.5366463      0.76233326   
     49400  -1813.2493     -1833.207       19.957706      28730.002      403.13193      2494.0588      1.5353106      0.76233326   
     49500  -1812.217      -1832.234       20.016987      24186.87       404.32937      2500.9988      1.5310503      0.76233326   
     49600  -1812.9751     -1833.2636      20.288493      16926.329      409.8136       2513.3631      1.5235184      0.76233326   
     49700  -1812.6509     -1832.1993      19.548449      11108.607      394.86523      2527.1127      1.5152292      0.76233326   
     49800  -1813.6648     -1833.1042      19.439448      13689.431      392.66349      2541.1892      1.5068358      0.76233326   
     49900  -1812.64       -1831.7061      19.066146      16048.25       385.12303      2551.5597      1.5007115      0.76233326   
     50000  -1811.7016     -1831.9964      20.294818      18317.035      409.94137      2556.9479      1.4975491      0.70225286   
     50100  -1810.7427     -1831.693       20.950316      28155.91       423.18199      2557.6694      1.4971266      0.70225286   
     50200  -1810.21       -1829.9323      19.722343      23961.377      398.37776      2556.4329      1.4978508      0.70225286   
     50300  -1810.1909     -1831.7384      21.547568      18713.878      435.24606      2553.549       1.4995424      0.70225286   
     50400  -1809.3346     -1830.8489      21.514378      23185.039      434.57564      2550.5841      1.5012855      0.70225286   
     50500  -1809.7197     -1831.1164      21.396648      24034.765      432.19758      2547.9087      1.5028619      0.70225286   
     50600  -1811.15       -1832.0828      20.932815      7975.0221      422.82847      2545.4543      1.504311       0.70225286   
     50700  -1811.0616     -1831.4629      20.401295      12563.457      412.09214      2540.6768      1.5071397      0.70225286   
     50800  -1810.8315     -1832.6879      21.856419      24484.516      441.48463      2533.6268      1.5113335      0.70225286   
     50900  -1811.9943     -1831.6284      19.634048      22703.639      396.59426      2526.5194      1.515585       0.70225286   
     51000  -1811.2941     -1831.4478      20.153701      22991.257      407.09091      2520.5304      1.5191862      0.88933823   
     51100  -1811.567      -1831.0134      19.44637       31915.238      392.80331      2516.0535      1.5218893      0.88933823   
     51200  -1812.1306     -1832.3767      20.246154      23645.262      408.95839      2514.2117      1.5230042      0.88933823   
     51300  -1812.8999     -1832.0389      19.138932      19361.027      386.59327      2513.234       1.5235967      0.88933823   
     51400  -1813.5529     -1833.4923      19.939423      14890.056      402.76264      2513.2288      1.5235998      0.88933823   
     51500  -1814.0511     -1833.0876      19.036562      17620.48       384.52546      2513.3868      1.523504       0.88933823   
     51600  -1813.598      -1831.5726      17.97464       26048.664      363.07537      2513.6743      1.5233298      0.88933823   
     51700  -1814.6111     -1834.1164      19.505331      25291.217      393.99427      2516.0046      1.5219189      0.88933823   
     51800  -1813.9963     -1833.2566      19.260305      21926.315      389.04492      2517.5848      1.5209637      0.88933823   
     51900  -1812.7426     -1832.9713      20.228625      19382.545      408.60432      2519.1259      1.5200331      0.88933823   
     52000  -1811.6018     -1832.42        20.818134      21939.877      420.512        2520.9837      1.518913       0.67041054   
     52100  -1812.5095     -1831.9645      19.454958      14029.941      392.97677      2523.6824      1.5172888      0.67041054   
     52200  -1813.2488     -1832.1673      18.918486      25281.953      382.14041      2525.8842      1.5159661      0.67041054   
     52300  -1812.6712     -1832.9916      20.320439      14728.032      410.4589       2527.8394      1.5147936      0.67041054   
     52400  -1813.6788     -1832.2695      18.590711      18651.564      375.51958      2527.3057      1.5151135      0.67041054   
     52500  -1812.9808     -1832.7014      19.720524      21331.967      398.34103      2525.3005      1.5163165      0.67041054   
     52600  -1813.9116     -1831.0799      17.168279      21310.342      346.78744      2522.6229      1.517926       0.67041054   
     52700  -1814.4407     -1834.2215      19.780865      12471.442      399.55988      2518.5944      1.5203539      0.67041054   
     52800  -1814.0121     -1833.3237      19.311645      22170.595      390.08196      2512.6947      1.5239237      0.67041054   
     52900  -1813.0022     -1832.6952      19.692998      24905.153      397.78503      2509.1159      1.5260973      0.67041054   
     53000  -1811.9315     -1831.842       19.910439      25039.933      402.17718      2510.8649      1.5250342      0.78404508   
     53100  -1812.4419     -1833.0245      20.58258       22753.015      415.75397      2517.3276      1.5211191      0.78404508   
     53200  -1810.7667     -1831.4484      20.681747      26855.192      417.75706      2526.511       1.51559        0.78404508   
     53300  -1811.7803     -1830.5986      18.8183        24700.825      380.11671      2538.4954      1.5084348      0.78404508   
     53400  -1813.1158     -1834.0422      20.926425      22826.928      422.69939      2550.9532      1.5010683      0.78404508   
     53500  -1813.3796     -1832.0632      18.683618      23745.072      377.39625      2559.0281      1.4963317      0.78404508   
     53600  -1812.2852     -1832.4145      20.129219      19831.727      406.59638      2561.8206      1.4947007      0.78404508   
     53700  -1812.7572     -1831.5039      18.746727      20996.327      378.67099      2558.8624      1.4964286      0.78404508   
     53800  -1812.6654     -1831.8122      19.146751      19493.85       386.7512       2551.216       1.5009137      0.78404508   
     53900  -1812.3388     -1832.3952      20.05638       14563.042      405.1251       2541.3751      1.5067256      0.78404508   
     54000  -1811.6705     -1831.5862      19.915708      25617.507      402.28361      2531.0717      1.5128591      0.76443245   
     54100  -1811.8741     -1831.5691      19.694973      22286.636      397.82491      2524.6149      1.5167283      0.76443245   
     54200  -1811.413      -1832.3723      20.959204      19383.919      423.36151      2522.9095      1.5177536      0.76443245   
     54300  -1811.9902     -1831.5265      19.536235      16043.309      394.61851      2525.124       1.5164225      0.76443245   
     54400  -1813.3803     -1832.7161      19.335895      14566.54       390.57178      2531.3153      1.5127135      0.76443245   
     54500  -1812.7248     -1832.4061      19.681376      15995.679      397.55026      2537.7941      1.5088517      0.76443245   
     54600  -1812.9249     -1832.0613      19.136387      11411.783      386.54186      2544.0492      1.5051419      0.76443245   
     54700  -1813.7839     -1833.1825      19.398608      11598.239      391.83854      2549.2758      1.5020559      0.76443245   
     54800  -1813.5289     -1833.2149      19.686001      12864.111      397.64369      2552.8482      1.499954       0.76443245   
     54900  -1813.3439     -1832.6566      19.312608      30312.83       390.10139      2553.1441      1.4997802      0.76443245   
     55000  -1812.3311     -1832.5756      20.24454       19650.98       408.92578      2551.2428      1.5008979      0.80978123   
     55100  -1812.3767     -1832.3449      19.968215      22815.368      403.34421      2548.1498      1.5027197      0.80978123   
     55200  -1813.0384     -1832.042       19.003559      19289.218      383.85883      2544.8706      1.5046561      0.80978123   
     55300  -1811.4176     -1832.9916      21.573968      20579.149      435.77933      2540.9608      1.5069713      0.80978123   
     55400  -1811.0241     -1831.3341      20.309994      21020.582      410.24791      2537.6226      1.5089537      0.80978123   
     55500  -1811.6927     -1831.0085      19.31581       21506.835      390.16607      2537.172       1.5092216      0.80978123   
[...]
    206000  -1812.5999     -1832.5596      19.959701      12402.751      403.17224      2544.6895      1.5047631      0.81271528   
    206100  -1811.038      -1830.4138      19.375783      18184.294      391.3775       2550.0183      1.5016186      0.81271528   
    206200  -1810.195      -1831.6312      21.436243      16526.847      432.99737      2554.0095      1.499272       0.81271528   
    206300  -1810.989      -1831.4137      20.4247        18815.845      412.56489      2554.6584      1.4988912      0.81271528   
    206400  -1810.4894     -1829.8899      19.400448      21259.145      391.87571      2552.3876      1.5002247      0.81271528   
    206500  -1812.1825     -1832.578       20.395466      15202.583      411.97439      2549.5684      1.5018836      0.81271528   
    206600  -1810.8088     -1832.5753      21.766462      14384.176      439.66756      2543.1137      1.5056955      0.81271528   
    206700  -1809.5764     -1829.5204      19.944048      22719.436      402.85606      2534.6667      1.5107134      0.81271528   
    206800  -1809.9669     -1831.2108      21.243918      25369.36       429.11254      2530.9812      1.5129132      0.81271528   
    206900  -1808.545      -1829.3287      20.783738      22632.522      419.81722      2529.6043      1.5137367      0.81271528   
    207000  -1808.7238     -1830.2234      21.49962       21870.473      434.27754      2531.8692      1.5123826      0.81020977   
    207100  -1808.5484     -1831.1363      22.587825      20217.445      456.25853      2538.0468      1.5087014      0.81020977   
    207200  -1807.9026     -1830.1038      22.201125      20932.326      448.44746      2546.918       1.5034465      0.81020977   
    207300  -1808.7877     -1829.4694      20.681708      23933.656      417.75628      2557.6693      1.4971266      0.81020977   
    207400  -1809.6276     -1830.608       20.98036       20876.958      423.78884      2568.937       1.4905601      0.81020977   
    207500  -1810.1748     -1831.614       21.439159      22879.468      433.05627      2576.6927      1.4860736      0.81020977   
    207600  -1811.3128     -1830.6326      19.319862      17890.332      390.24793      2577.7761      1.485449       0.81020977   
    207700  -1812.1119     -1831.9846      19.872703      15035.49       401.41494      2573.0245      1.4881922      0.81020977   
    207800  -1811.7465     -1831.2119      19.465446      13512.019      393.18862      2561.6067      1.4948255      0.81020977   
    207900  -1812.0751     -1830.3358      18.260748      13945.604      368.85455      2544.3669      1.5049539      0.81020977   
    208000  -1812.7206     -1832.233       19.51245       14901.078      394.13807      2525.6303      1.5161185      0.92291498   
    208100  -1812.0793     -1831.7179      19.638556      20230.468      396.68533      2507.4475      1.5271127      0.92291498   
    208200  -1812.6319     -1832.0312      19.399277      22343.201      391.85205      2493.1989      1.5358401      0.92291498   
    208300  -1812.9105     -1831.6109      18.700411      27186.423      377.73545      2484.4835      1.5412278      0.92291498   
    208400  -1813.0583     -1833.9594      20.901095      22092.254      422.18775      2483.0674      1.5421067      0.92291498   
    208500  -1813.0057     -1832.7855      19.77978       21349.368      399.53795      2489.2539      1.5382741      0.92291498   
    208600  -1812.6653     -1832.2589      19.593611      16490.604      395.77747      2502.446       1.5301648      0.92291498   
    208700  -1812.7201     -1832.249       19.528848      19331.218      394.4693       2520.1513      1.5194147      0.92291498   
    208800  -1813.557      -1833.486       19.928973      20803.339      402.55154      2539.1114      1.5080689      0.92291498   
    208900  -1814.4049     -1832.5635      18.158594      13123.06       366.79111      2554.9348      1.498729       0.92291498   
    209000  -1814.1328     -1832.7218      18.589007      11851.723      375.48517      2562.5041      1.494302       0.79365919   
    209100  -1813.7704     -1833.3857      19.615286      13311.84       396.21529      2560.0829      1.4957152      0.79365919   
    209200  -1812.8691     -1832.355       19.485884      21685.956      393.60147      2549.6362      1.5018437      0.79365919   
    209300  -1812.8275     -1833.8287      21.001192      25499.792      424.20965      2536.8399      1.5094192      0.79365919   
    209400  -1813.2207     -1831.7031      18.482445      23851.218      373.33268      2522.3612      1.5180835      0.79365919   
    209500  -1812.2778     -1832.2051      19.927278      17760.247      402.51731      2509.1686      1.5260652      0.79365919   
    209600  -1812.5096     -1832.2976      19.787958      23817.163      399.70314      2500.089       1.5316074      0.79365919   
    209700  -1812.5334     -1832.1863      19.652847      22522.721      396.97399      2497.4956      1.5331979      0.79365919   
    209800  -1812.4904     -1832.9501      20.459711      15635.556      413.27209      2500.4193      1.5314051      0.79365919   
    209900  -1811.3875     -1830.4862      19.098698      26116.309      385.78057      2507.7001      1.5269589      0.79365919   
    210000  -1811.5406     -1830.4934      18.952802      26679.987      382.83356      2520.7071      1.5190797      0.75072965   
    210100  -1812.3292     -1833.4258      21.096557      22885.59       426.13595      2535.5338      1.5101968      0.75072965   
    210200  -1812.4372     -1832.3176      19.880376      16980.713      401.56993      2547.9015      1.5028662      0.75072965   
    210300  -1810.9141     -1832.7059      21.79182       19879.716      440.17978      2554.7347      1.4988464      0.75072965   
    210400  -1810.6949     -1830.2275      19.532555      11269.515      394.54419      2556.5522      1.4977809      0.75072965   
    210500  -1810.9315     -1830.9041      19.972596      13637.316      403.43271      2557.1929      1.4974056      0.75072965   
    210600  -1810.3741     -1830.8148      20.440675      24642.844      412.88758      2558.0665      1.4968942      0.75072965   
    210700  -1812.4866     -1832.4093      19.922679      18252.794      402.42442      2559.3034      1.4961708      0.75072965   
    210800  -1813.9584     -1832.907       18.948616      15446.615      382.74901      2555.9268      1.4981474      0.75072965   
    210900  -1813.449      -1832.8488      19.399844      24199.92       391.8635       2547.472       1.5031196      0.75072965   
    211000  -1812.8987     -1833.4203      20.521534      23570.966      414.52087      2536.6185      1.509551       0.80230278   
    211100  -1813.7404     -1833.005       19.264603      15437.258      389.13174      2524.9102      1.5165509      0.80230278   
    211200  -1813.6778     -1832.8622      19.184346      16601.816      387.51059      2514.641       1.5227442      0.80230278   
    211300  -1813.9524     -1833.371       19.418613      20579.06       392.24263      2506.1769      1.527887       0.80230278   
    211400  -1813.9165     -1833.3498      19.433279      28516.957      392.53887      2499.9272      1.5317066      0.80230278   
    211500  -1813.4856     -1832.67        19.184368      14480.175      387.51105      2497.4598      1.5332198      0.80230278   
    211600  -1813.0118     -1832.7615      19.749634      13402.214      398.92903      2498.9023      1.5323348      0.80230278   
    211700  -1812.894      -1832.3425      19.448506      20316.398      392.84645      2503.9315      1.529257       0.80230278   
    211800  -1812.4496     -1832.9836      20.534082      19055.651      414.77434      2514.6868      1.5227165      0.80230278   
    211900  -1812.8583     -1832.3122      19.45392       21649.069      392.95581      2528.3337      1.5144974      0.80230278   
    212000  -1813.0234     -1832.0022      18.978824      18792.892      383.3592       2541.5421      1.5066266      0.82853287   
    212100  -1813.5997     -1832.7671      19.167485      14444.389      387.17001      2551.4095      1.5007998      0.82853287   
    212200  -1812.0489     -1832.0178      19.968942      25546.206      403.35889      2557.6353      1.4971466      0.82853287   
    212300  -1812.7119     -1832.1473      19.435389      20013.078      392.58149      2559.7453      1.4959125      0.82853287   
    212400  -1811.9466     -1832.5615      20.614948      19369.514      416.40777      2557.8553      1.4970178      0.82853287   
    212500  -1813.117      -1832.662       19.545014      11985.885      394.79585      2552.2766      1.50029        0.82853287   
    212600  -1812.6782     -1833.3086      20.630429      20522.466      416.72048      2543.8228      1.5052758      0.82853287   
    212700  -1812.0749     -1832.8443      20.769396      16277.654      419.52751      2532.8159      1.5118173      0.82853287   
    212800  -1811.4991     -1833.1076      21.608557      17232.484      436.47799      2523.4895      1.5174047      0.82853287   
    212900  -1810.8222     -1831.2918      20.469592      24414.736      413.47169      2516.8867      1.5213855      0.82853287   
    213000  -1811.5347     -1832.4812      20.946413      22023.46       423.10314      2516.4257      1.5216642      0.81843203   
    213100  -1810.4467     -1830.459       20.012343      19450.273      404.23557      2521.4156      1.5186528      0.81843203   
    213200  -1811.2831     -1830.7972      19.514115      20453.933      394.17171      2530.5634      1.513163       0.81843203   
    213300  -1811.2492     -1830.8162      19.566963      17931.779      395.23919      2541.2681      1.506789       0.81843203   
    213400  -1811.7014     -1832.1694      20.467936      17469.899      413.43824      2552.09        1.5003996      0.81843203   
    213500  -1810.5442     -1830.4647      19.920494      15754.148      402.38029      2562.1138      1.4945296      0.81843203   
    213600  -1811.0446     -1831.1156      20.071028      17640.809      405.42097      2569.4156      1.4902824      0.81843203   
    213700  -1812.0762     -1830.7234      18.64721       17515.323      376.66082      2571.3512      1.4891606      0.81843203   
    213800  -1810.8013     -1831.2992      20.497879      12825.239      414.04307      2566.7341      1.4918393      0.81843203   
    213900  -1810.6729     -1831.2196      20.546723      18223.322      415.02969      2556.4901      1.4978172      0.81843203   
    214000  -1811.1891     -1831.5074      20.318307      21579.385      410.41583      2541.4066      1.5067069      0.742737     
    214100  -1810.022      -1830.8688      20.846828      26724.989      421.0916       2526.0323      1.5158773      0.742737     
    214200  -1809.9237     -1831.0605      21.136773      33703.828      426.94829      2514.558       1.5227944      0.742737     
    214300  -1810.3696     -1831.1387      20.769027      26285.461      419.52007      2508.6723      1.5263671      0.742737     
    214400  -1811.499      -1832.1796      20.680528      23716.488      417.73244      2508.8508      1.5262586      0.742737     
    214500  -1811.9747     -1831.9474      19.972651      26489.952      403.43381      2513.2779      1.5235701      0.742737     
    214600  -1813.7532     -1833.6372      19.883999      31256.091      401.6431       2521.6136      1.5185336      0.742737     
    214700  -1814.233      -1833.0551      18.822041      20856.187      380.19228      2528.9222      1.514145       0.742737     
    214800  -1813.3821     -1832.316       18.93386       18082.049      382.45096      2534.8006      1.5106336      0.742737     
    214900  -1813.0349     -1833.1156      20.080721      19387.053      405.61676      2538.9601      1.5081588      0.742737     
    215000  -1812.232      -1832.9818      20.749795      16420.407      419.13159      2541.2275      1.5068131      0.71516299   
    215100  -1812.1556     -1832.6224      20.466819      17711.518      413.41568      2540.7753      1.5070813      0.71516299   
    215200  -1811.6968     -1831.1586      19.461824      11750.12       393.11547      2537.7551      1.5088749      0.71516299   
    215300  -1812.4037     -1831.6274      19.223713      17642.85       388.30578      2532.8774      1.5117806      0.71516299   
    215400  -1813.0696     -1832.4013      19.331743      18653.133      390.48792      2527.5849      1.5149461      0.71516299   
    215500  -1813.5212     -1833.1389      19.617697      25135.216      396.26399      2522.5718      1.5179568      0.71516299   
    215600  -1813.1685     -1832.4855      19.316954      22528.146      390.18918      2516.5482      1.5215902      0.71516299   
    215700  -1813.7843     -1832.0316      18.247295      21047.707      368.58281      2510.6739      1.5251502      0.71516299   
    215800  -1814.0708     -1834.3245      20.253673      21491.44       409.11027      2507.1991      1.527264       0.71516299   
    215900  -1813.6897     -1832.6786      18.988866      29044.812      383.56203      2505.2606      1.5284457      0.71516299   
    216000  -1813.2181     -1833.1171      19.898974      20611.369      401.9456       2507.6445      1.5269927      0.7910953    
    216100  -1812.0252     -1831.8807      19.855559      17218.967      401.06865      2513.3383      1.5235334      0.7910953    
    216200  -1811.8179     -1831.4244      19.606449      20134.227      396.03679      2522.8405      1.5177951      0.7910953    
    216300  -1812.696      -1832.7394      20.043463      15890.954      404.86416      2535.4113      1.5102697      0.7910953    
    216400  -1812.8907     -1832.1805      19.289831      12055.307      389.64132      2546.7954      1.5035188      0.7910953    
    216500  -1812.5722     -1832.5174      19.945174      10184.599      402.8788       2554.9511      1.4987195      0.7910953    
    216600  -1813.1804     -1832.3885      19.208065      14681.129      387.9897       2556.2828      1.4979387      0.7910953    
    216700  -1812.5941     -1831.8395      19.245453      22666.886      388.74492      2551.9332      1.5004918      0.7910953    
    216800  -1813.5559     -1832.4966      18.940653      23998.484      382.58816      2542.6053      1.5059966      0.7910953    
    216900  -1812.4084     -1831.7567      19.348238      20537.172      390.82111      2528.8564      1.5141844      0.7910953    
    217000  -1811.9086     -1831.1822      19.273594      14079.355      389.31334      2516.1733      1.5218169      0.81417383   
    217100  -1811.7609     -1832.3831      20.622204      18146.334      416.55434      2507.3042      1.5272         0.81417383   
    217200  -1811.609      -1832.4679      20.858869      22870.276      421.33482      2504.3649      1.5289924      0.81417383   
    217300  -1812.4464     -1831.1228      18.676325      20600.575      377.24892      2507.8037      1.5268958      0.81417383   
    217400  -1813.0905     -1831.3266      18.236161      23903.324      368.35791      2515.0044      1.5225242      0.81417383   
    217500  -1812.2053     -1832.5058      20.300524      14828.988      410.05662      2524.0246      1.5170831      0.81417383   
    217600  -1812.9154     -1831.816       18.900636      18304.335      381.77985      2531.9105      1.5123579      0.81417383   
    217700  -1813.0779     -1831.7664      18.688558      15968.494      377.49602      2539.8629      1.5076227      0.81417383   
    217800  -1813.3607     -1833.1845      19.823817      14843.261      400.42748      2546.1572      1.5038957      0.81417383   
    217900  -1814.4247     -1833.2134      18.788757      20105.268      379.51997      2547.1368      1.5033174      0.81417383   
    218000  -1815.1243     -1833.6582      18.533937      15714.612      374.37278      2541.2046      1.5068267      0.80540469   
    218100  -1814.412      -1833.1203      18.708324      18456.093      377.89528      2528.8246      1.5142034      0.80540469   
    218200  -1813.6296     -1833.3997      19.770097      23426.139      399.34238      2513.1558      1.523644       0.80540469   
    218300  -1814.2984     -1833.0838      18.78531       21566.355      379.45035      2496.8163      1.533615       0.80540469   
    218400  -1813.4671     -1833.4805      20.013389      14657.407      404.25671      2485.1003      1.5408452      0.80540469   
    218500  -1813.4743     -1833.5145      20.040218      17913.784      404.79863      2478.4704      1.544967       0.80540469   
    218600  -1813.111      -1832.3918      19.280805      22114.76       389.45901      2477.1416      1.5457957      0.80540469   
    218700  -1813.0404     -1833.1846      20.144202      16966.742      406.89903      2482.3005      1.5425831      0.80540469   
    218800  -1811.9428     -1831.8691      19.926316      22768.188      402.49789      2491.6068      1.5368215      0.80540469   
    218900  -1811.294      -1831.4364      20.142367      20084.201      406.86196      2505.6822      1.5281886      0.80540469   
    219000  -1811.6626     -1831.9474      20.284798      26270.314      409.73897      2523.6909      1.5172836      0.74558267   
    219100  -1813.1617     -1832.1801      19.018351      30244.269      384.15761      2541.9389      1.5063914      0.74558267   
    219200  -1813.2997     -1833.4159      20.116127      15662.896      406.33194      2555.8845      1.4981722      0.74558267   
    219300  -1812.2183     -1832.14        19.921719      13921.661      402.40502      2563.0629      1.4939762      0.74558267   
    219400  -1813.0624     -1831.8108      18.748372      16996.855      378.70422      2563.4211      1.4937674      0.74558267   
    219500  -1812.2054     -1831.5412      19.335741      25163.188      390.56868      2556.3247      1.4979141      0.74558267   
    219600  -1812.7703     -1831.6772      18.906887      20322.178      381.90613      2544.0331      1.5051514      0.74558267   
    219700  -1813.6404     -1832.4303      18.789848      20695.383      379.54201      2528.7447      1.5142513      0.74558267   
    219800  -1814.4932     -1832.8256      18.332399      18498.124      370.30185      2510.6609      1.5251582      0.74558267   
    219900  -1813.5284     -1832.1341      18.605678      18413.695      375.8219       2492.8495      1.5360554      0.74558267   
    220000  -1813.2276     -1833.8843      20.656733      22509.091      417.25181      2480.9362      1.5434314      0.76133597   
    220031  -1812.6039     -1831.9579      19.353931      25040.594      390.9361       2478.8377      1.5447381      0.76133597   
Loop time of 531.688 on 1 procs for 200000 steps with 384 atoms

Performance: 16.250 ns/day, 1.477 hours/ns, 376.161 timesteps/s, 144.446 katom-step/s
99.7% CPU use with 1 MPI tasks x 1 OpenMP threads

MPI task timing breakdown:
Section |  min time  |  avg time  |  max time  |%varavg| %total
---------------------------------------------------------------
Pair    | 326.7      | 326.7      | 326.7      |   0.0 | 61.45
Neigh   | 8.5987     | 8.5987     | 8.5987     |   0.0 |  1.62
Comm    | 8.0186     | 8.0186     | 8.0186     |   0.0 |  1.51
Output  | 0.79179    | 0.79179    | 0.79179    |   0.0 |  0.15
Modify  | 183.1      | 183.1      | 183.1      |   0.0 | 34.44
Other   |            | 4.476      |            |       |  0.84

Nlocal:            384 ave         384 max         384 min
Histogram: 1 0 0 0 0 0 0 0 0 0
Nghost:           2497 ave        2497 max        2497 min
Histogram: 1 0 0 0 0 0 0 0 0 0
Neighs:              0 ave           0 max           0 min
Histogram: 1 0 0 0 0 0 0 0 0 0
FullNghs:        68424 ave       68424 max       68424 min
Histogram: 1 0 0 0 0 0 0 0 0 0

Total # of neighbors = 68424
Ave neighs/atom = 178.1875
Neighbor list builds = 19996
Dangerous builds = 19977
Total wall time: 0:09:46
