ITEM: TIMESTEP
21000
ITEM: NUMBER OF ATOMS
384
ITEM: BOX BOUNDS pp pp pp
-2.7828085905931527e-01 1.3388325399059239e+01
-2.3379615790593170e-01 1.3343840657905959e+01
-2.6179358163044192e-01 1.3355215561630509e+01
ITEM: ATOMS id type element x y z
2 1 H 0.109855 0.343556 0.133782
3 1 H 2.4851 2.5869 0.392995
9 1 H 0.843333 2.07322 2.21625
10 1 H 2.02923 1.07316 1.76154
261 2 O 1.44019 1.78601 1.47714
274 2 O 3.16323 2.84372 13.2498
17 1 H 3.46325 0.187424 0.378847
20 1 H 6.07508 2.51578 0.148508
25 1 H 4.24775 1.69421 1.91616
26 1 H 5.60579 0.884903 1.70512
269 2 O 4.86854 1.38318 1.25615
305 2 O 6.58303 13.3311 -0.259625
331 2 O 6.74594 13.3183 2.96454
130 1 H 7.37084 0.319806 -0.0122425
131 1 H 9.51074 2.74449 0.101374
137 1 H 7.52337 1.94853 1.90957
138 1 H 8.57212 0.925079 1.8622
325 2 O 8.22924 1.55851 1.20386
323 2 O 9.84547 -0.0217642 2.92639
148 1 H 12.8711 2.58276 0.121248
145 1 H 10.2992 0.372601 0.0750218
153 1 H 11.25 2.25058 1.83025
154 1 H 12.2503 0.958768 2.05106
333 2 O 11.9327 1.67898 1.4361
332 2 O 9.79485 3.11077 3.1421
24 1 H 2.52629 3.6583 2.61571
27 1 H 1.47312 5.63404 0.836542
28 1 H 0.51678 4.36019 0.673028
270 2 O 0.993402 4.94972 1.32284
22 1 H 0.240681 5.8716 2.53176
265 2 O 3.01238 6.75596 0.00931258
291 2 O 2.94269 6.61764 3.2903
5 1 H 3.53481 6.12404 2.63834
7 1 H 5.70673 3.46126 2.41925
11 1 H 5.25884 5.07038 0.563385
12 1 H 4.18425 3.99046 0.581796
262 2 O 4.72329 4.5632 1.17974
150 1 H 7.11736 5.60654 2.35224
152 1 H 9.16671 3.75347 2.68982
155 1 H 8.90252 5.49981 0.801557
156 1 H 7.86298 4.38756 0.583692
334 2 O 8.31939 4.84721 1.29841
133 1 H 10.5803 5.91543 2.9956
135 1 H 13.0679 3.91527 2.94263
139 1 H 12.3585 5.57829 0.927839
140 1 H 11.2883 4.41276 0.843353
326 2 O 11.8659 4.93949 1.46775
330 2 O -0.241686 3.21064 13.117
66 1 H 0.0998522 7.22642 0.355013
67 1 H 2.68575 9.24652 0.345459
73 1 H 0.793212 9.11085 2.23366
74 1 H 1.88842 7.94998 2.38197
293 2 O 1.40554 8.498 1.74802
81 1 H 3.45634 7.31927 0.650236
84 1 H 5.71148 9.55971 0.436878
89 1 H 4.22348 8.98793 2.2798
90 1 H 5.48533 7.89064 2.01593
301 2 O 4.70741 8.39874 1.59297
300 2 O 3.25076 10.0051 3.18817
273 2 O 6.36608 6.40961 13.3478
363 2 O 6.63105 6.3402 2.91446
194 1 H 6.84706 6.85823 0.441811
195 1 H 9.48805 9.28146 0.302403
201 1 H 7.40849 8.94287 1.89834
202 1 H 8.40237 7.63516 2.01822
357 2 O 8.15437 8.41924 1.43732
356 2 O 6.62401 10.0809 3.16957
337 2 O 13.2936 6.83561 13.2525
209 1 H 10.3018 7.21446 0.460295
212 1 H 12.6164 9.17168 0.23127
217 1 H 11.1429 8.75579 2.22764
218 1 H 11.9876 7.60489 2.03481
365 2 O 11.5616 8.25944 1.50826
292 2 O -0.223238 9.83041 3.40395
362 2 O 13.2484 9.86236 -0.0350219
297 2 O 2.84948 -0.208914 -0.167461
86 1 H 0.337143 13.0127 2.63615
88 1 H 2.74446 10.4953 2.52148
91 1 H 1.76594 12.1848 1.01226
92 1 H 0.617401 11.002 1.26998
302 2 O 1.34334 11.5947 1.63192
69 1 H 3.82322 12.6233 2.58507
71 1 H 5.99656 10.6078 2.59647
75 1 H 5.46822 12.1824 0.85478
76 1 H 4.40439 11.0457 1.04753
294 2 O 5.03811 11.7106 1.50081
214 1 H 7.39573 12.6387 2.54921
216 1 H 9.50526 10.2509 2.4995
219 1 H 8.75529 12.2512 0.854111
220 1 H 7.83307 11.0249 1.05052
366 2 O 8.48231 11.6027 1.53621
197 1 H 10.5167 12.7818 2.63456
199 1 H 13.0054 10.5765 2.93649
203 1 H 12.3972 12.354 0.939298
204 1 H 11.297 11.2596 1.06608
358 2 O 11.8881 11.7975 1.6322
361 2 O 9.65109 13.2762 -0.24536
19 1 H -0.0255577 2.67169 6.09166
29 1 H 1.80771 2.11062 4.38179
30 1 H 0.684973 0.934342 4.61049
271 2 O 1.49605 1.3918 4.92376
18 1 H 2.66276 0.403231 6.11721
8 1 H 6.1001 2.44181 3.60963
6 1 H 3.59399 -0.0101982 3.77703
13 1 H 4.22491 2.04095 5.08214
14 1 H 5.15115 0.784116 5.20027
263 2 O 4.8358 1.43666 4.52228
258 2 O 3.29232 2.95779 6.2419
146 1 H 9.68081 0.211825 6.19688
157 1 H 8.9177 2.28362 4.35217
158 1 H 8.0421 1.11221 4.05667
335 2 O 8.37556 1.61638 4.84844
260 2 O -0.13106 3.20837 3.38186
267 2 O -0.1513 0.0511976 3.30673
134 1 H 10.3236 0.520027 3.56689
136 1 H 12.9203 2.6951 3.95952
141 1 H 11.0216 2.1777 5.30862
142 1 H 12.1388 1.10285 5.51348
327 2 O 11.5088 1.41914 4.82965
1 1 H -0.00509227 5.84909 6.18158
15 1 H 1.14208 4.36075 4.39928
16 1 H 2.02958 5.60847 4.40132
264 2 O 1.58908 4.94926 4.99904
4 1 H 2.92682 3.69663 5.76063
268 2 O 3.29977 3.17779 2.95518
23 1 H 3.82065 3.86576 3.38216
31 1 H 4.5797 5.26947 5.56425
32 1 H 5.60785 4.17904 5.23054
272 2 O 4.99302 4.80878 4.80548
324 2 O 6.47825 3.03486 2.95914
129 1 H 7.05422 5.84928 5.91575
132 1 H 9.40843 3.89545 5.91465
143 1 H 7.7601 4.60626 4.23483
144 1 H 8.75465 5.7468 4.23048
328 2 O 8.21797 5.19765 4.84956
299 2 O -0.135767 6.52482 3.11298
149 1 H 12.9179 5.93889 3.58696
151 1 H 10.3908 3.6297 3.73947
159 1 H 11.1495 5.39317 5.32843
160 1 H 12.2766 4.35328 5.46948
336 2 O 11.6385 4.75553 4.80135
82 1 H 2.71908 6.85661 5.88318
93 1 H 1.89376 8.88404 4.35851
94 1 H 0.807219 7.77562 4.33347
303 2 O 1.40182 8.32647 4.93036
83 1 H 0.316113 9.56703 5.90954
281 2 O 3.39496 6.49408 6.47233
21 1 H 5.99132 5.79548 3.49084
70 1 H 3.56469 7.29227 3.78942
72 1 H 6.19469 9.41835 3.62578
77 1 H 4.65973 8.59861 5.19474
78 1 H 5.55463 7.30859 5.0715
295 2 O 5.08847 7.98226 4.55884
290 2 O 3.53951 9.81866 6.37635
210 1 H 9.50153 7.16348 6.30765
211 1 H 7.07533 9.3152 6.27201
221 1 H 8.7982 8.9663 4.37821
222 1 H 7.64101 8.03007 4.64532
367 2 O 8.37175 8.41987 5.0712
364 2 O 9.97861 9.86377 3.23656
355 2 O 9.81819 6.53436 3.11576
198 1 H 10.2901 7.24721 3.58019
200 1 H 12.7562 9.2926 3.95544
205 1 H 11.153 8.75536 5.3706
206 1 H 12.1788 7.6494 5.38003
359 2 O 11.6638 8.18238 4.70291
65 1 H 0.148925 12.7939 5.90201
68 1 H 3.17156 10.4763 5.75051
79 1 H 1.15589 11.0443 4.27123
80 1 H 2.17312 12.2046 4.218
296 2 O 1.72038 11.5783 4.85567
378 2 O -0.26134 10.1998 6.45477
259 2 O 3.11106 13.0674 3.09912
313 2 O 3.36871 -0.201063 6.39555
289 2 O 6.27768 -0.173683 6.53665
85 1 H 6.10627 12.7916 3.49189
87 1 H 3.66372 10.782 3.78529
95 1 H 4.25491 12.489 5.43418
96 1 H 5.25791 11.2236 5.36202
304 2 O 4.75494 11.8844 4.75864
193 1 H 7.03103 12.9585 6.00548
196 1 H 9.88222 10.5791 5.9994
207 1 H 7.62986 11.7709 4.78054
208 1 H 8.80139 12.684 4.43954
360 2 O 8.5302 11.9334 4.98519
377 2 O 10.1638 13.1592 6.72049
213 1 H 12.852 13.0532 3.71772
215 1 H 10.5305 10.5211 3.73803
223 1 H 11.1692 12.4798 5.01863
224 1 H 12.1967 11.2699 5.22218
368 2 O 11.6331 11.776 4.59199
34 1 H 0.510558 0.112235 7.16299
35 1 H 2.55563 2.51808 6.8164
41 1 H 0.782497 1.93516 8.4927
42 1 H 2.08019 0.925416 8.68377
277 2 O 1.42483 1.36735 8.04594
283 2 O 13.4073 -0.142087 10.0825
275 2 O 3.12496 -0.213927 10.0185
52 1 H 5.68497 2.51766 6.78739
57 1 H 4.07844 1.90906 8.75086
58 1 H 5.32261 0.998225 8.76567
285 2 O 4.66595 1.43946 8.14381
49 1 H 3.86264 0.301696 7.13758
147 1 H 6.98571 2.43703 5.95347
162 1 H 6.85225 0.487224 7.05258
163 1 H 9.21441 2.75218 7.07675
169 1 H 7.54277 1.86235 8.43009
170 1 H 8.86022 0.930466 8.83973
341 2 O 8.21012 1.26316 8.11114
180 1 H 12.5039 2.82134 7.04816
177 1 H 10.9754 -0.0318851 7.14923
185 1 H 10.9078 1.72804 8.37141
186 1 H 12.3239 0.956885 8.36935
349 2 O 11.7024 1.49855 7.82616
54 1 H 0.592454 6.18407 9.61441
56 1 H 2.45354 3.52653 9.44775
59 1 H 2.12161 5.44166 7.6122
60 1 H 1.03429 4.32413 7.45792
286 2 O 1.54044 4.84024 8.13895
321 2 O 13.0456 6.31998 6.72653
257 2 O 6.49071 6.37053 6.61425
37 1 H 3.96616 5.98766 9.66704
39 1 H 5.6145 3.72831 9.57331
43 1 H 5.53026 5.58011 8.09113
44 1 H 4.43349 4.48693 7.79167
278 2 O 4.94067 4.84931 8.50864
282 2 O 6.45953 3.0139 6.4991
345 2 O 10.1559 6.56602 6.77765
182 1 H 7.0817 6.01278 9.38296
184 1 H 8.71373 3.56663 9.34596
187 1 H 8.83705 5.3623 7.94495
188 1 H 7.43507 4.49816 7.63069
350 2 O 8.07652 4.85794 8.36493
322 2 O 9.81222 3.38524 6.65304
346 2 O 13.2071 3.3222 6.67076
165 1 H 10.2778 6.13798 9.46144
167 1 H 13.2449 3.67825 9.13062
171 1 H 12.2748 5.38709 8.25692
172 1 H 11.1131 4.38455 7.90902
342 2 O 11.6923 4.69187 8.62946
98 1 H -0.0532177 6.78355 7.37654
99 1 H 2.76181 9.60559 6.9422
105 1 H 0.919501 8.62373 8.8569
106 1 H 1.88403 7.4614 8.41489
309 2 O 1.43849 8.25957 8.11567
315 2 O -0.113608 6.62036 10.1424
308 2 O -0.127172 9.88523 9.99353
113 1 H 3.83658 7.15622 7.06153
116 1 H 5.84809 9.35847 7.0179
121 1 H 4.34808 8.66148 8.79828
122 1 H 5.52915 7.58083 8.61688
317 2 O 4.72835 8.05422 8.14668
316 2 O 3.12222 9.91391 9.95634
226 1 H 7.16213 7.05055 6.85811
233 1 H 7.69237 8.78636 8.5442
234 1 H 8.81577 7.65272 8.26252
373 2 O 8.25779 8.37077 7.85026
227 1 H 9.5127 9.38677 6.98625
380 2 O 10.1535 9.88101 9.87615
241 1 H 10.7541 7.22895 7.26723
244 1 H 12.7446 9.69996 6.97846
249 1 H 11.0092 8.73128 8.63695
250 1 H 11.9192 7.69803 9.08986
381 2 O 11.6756 8.14782 8.27015
118 1 H 0.36724 12.8698 9.57319
120 1 H 2.60148 10.5591 9.45638
123 1 H 2.24311 11.9652 7.56274
124 1 H 1.00082 10.9776 7.69115
318 2 O 1.67131 11.4955 8.16705
101 1 H 3.85942 -0.0925077 9.33977
103 1 H 5.89068 10.4756 9.48443
107 1 H 5.43574 11.9903 7.5825
108 1 H 4.27541 10.9472 7.76433
310 2 O 4.81188 11.6003 8.24821
314 2 O 6.44097 10.0222 6.61047
354 2 O 10.2935 9.79637 6.40581
248 1 H 9.52864 10.5741 9.53766
246 1 H 7.00255 12.8779 9.37858
251 1 H 8.83301 12.4203 8.09557
252 1 H 7.67891 11.3215 8.01503
382 2 O 8.24023 11.8103 8.63181
353 2 O -0.279829 13.3001 6.62769
229 1 H 10.9179 13.2057 9.41589
231 1 H 12.946 10.5959 9.60652
235 1 H 12.589 12.1387 7.89059
236 1 H 11.4203 11.0761 7.75356
374 2 O 11.954 11.5756 8.41283
50 1 H 2.31866 0.542073 13.0829
51 1 H 0.284408 2.48702 12.6157
61 1 H 1.86669 1.86241 11.2825
62 1 H 0.744362 0.770286 11.2358
287 2 O 1.2288 1.36512 11.8383
369 2 O 13.2152 13.2282 -0.16962
347 2 O 6.36251 -0.108304 9.87388
38 1 H 3.50363 0.303898 10.7636
40 1 H 6.1714 2.43501 10.4091
45 1 H 4.41164 1.89856 12.3237
46 1 H 5.35727 0.630469 12.2336
279 2 O 4.93498 1.29819 11.625
284 2 O 3.00738 2.89006 9.94473
340 2 O 6.42483 3.27106 10.0201
178 1 H 9.16528 0.197124 12.6567
179 1 H 7.14842 2.39589 12.6901
189 1 H 8.55175 2.07578 11.1578
190 1 H 7.68622 0.745865 10.9033
351 2 O 8.18413 1.25014 11.621
168 1 H 13.1163 2.65376 10.3453
166 1 H 10.6305 0.831445 10.4167
173 1 H 10.9911 2.21409 11.992
174 1 H 11.9697 0.972516 12.1688
343 2 O 11.4655 1.54765 11.5213
33 1 H 0.169733 5.99529 13.0407
36 1 H 2.73357 3.72909 12.8794
47 1 H 0.778034 4.40603 11.3877
48 1 H 2.17049 5.1916 11.209
280 2 O 1.55936 4.82867 11.9209
276 2 O 0.122605 3.13206 9.7786
266 2 O 6.66678 3.02044 13.2101
55 1 H 3.61822 3.44471 10.4325
53 1 H 6.03197 6.11841 10.6099
63 1 H 4.30435 5.39064 12.2171
64 1 H 5.65514 4.44241 12.068
288 2 O 4.88298 4.80969 11.5457
348 2 O 9.38388 3.05639 9.82222
161 1 H 7.05121 5.96503 12.7859
164 1 H 9.67936 3.73337 12.6534
175 1 H 7.73491 4.50327 10.7021
176 1 H 8.82695 5.56544 11.0508
344 2 O 8.3363 4.80211 11.5042
371 2 O 9.84246 6.86383 9.92303
329 2 O 9.73931 6.55619 -0.0239738
338 2 O 10.2338 3.2532 13.2948
181 1 H 13.1283 5.83447 10.5457
183 1 H 10.0437 3.69673 10.1
191 1 H 12.4048 4.07704 11.912
192 1 H 11.7462 4.43887 10.608
352 2 O 12.1284 4.8296 11.378
307 2 O 3.09147 6.30106 10.0524
114 1 H 2.60458 7.31572 12.9193
115 1 H 0.301973 9.38717 13.1344
125 1 H 1.87107 8.79654 10.899
126 1 H 0.892792 7.63766 11.1174
319 2 O 1.469 8.22321 11.6246
379 2 O 6.57576 6.59854 9.94015
102 1 H 3.45544 7.13573 10.4163
104 1 H 5.9914 9.226 10.5144
109 1 H 4.06156 9.18347 12.3091
110 1 H 5.01651 8.00024 12.5263
311 2 O 4.62367 8.48895 11.7809
242 1 H 9.00023 7.00628 13.1478
243 1 H 6.82188 9.04502 13.1675
253 1 H 8.66483 8.94002 11.2017
254 1 H 7.64814 7.82846 11.085
383 2 O 8.04243 8.45922 11.7434
372 2 O 6.48004 9.96468 10.0219
230 1 H 10.5662 7.29835 10.5623
232 1 H 12.969 9.14004 10.3879
237 1 H 11.0864 8.78113 11.8686
238 1 H 12.2044 7.50298 12.0906
375 2 O 11.6895 8.09145 11.4346
306 2 O 3.1458 10.0294 -0.106935
100 1 H 2.43627 10.442 12.9101
97 1 H 0.063543 12.5374 12.9987
111 1 H 0.718462 10.8531 11.4916
112 1 H 1.7786 12.011 11.7234
312 2 O 1.22899 11.3826 12.1985
117 1 H 5.7807 12.8156 10.2805
119 1 H 3.67273 10.2843 10.5825
127 1 H 4.2041 12.075 12.105
128 1 H 5.4624 10.9491 11.971
320 2 O 4.80655 11.5651 11.5348
298 2 O 6.49783 9.87424 -0.0566039
225 1 H 6.92571 12.5768 12.8876
228 1 H 9.46058 10.5568 13.0778
239 1 H 7.56429 10.9154 11.2384
240 1 H 8.66775 12.1742 11.0974
376 2 O 8.09336 11.6508 11.7129
370 2 O 10.0652 9.81988 13.2643
339 2 O 10.1936 0.188703 9.79285
245 1 H 12.9424 12.834 10.7407
247 1 H 10.8273 10.5378 10.1832
255 1 H 10.9338 12.0374 12.2143
256 1 H 12.191 11.0373 12.0819
384 2 O 11.6238 11.7321 11.6746
ITEM: TIMESTEP
22000
ITEM: NUMBER OF ATOMS
384
ITEM: BOX BOUNDS pp pp pp
-3.1161078514150953e-01 1.3421655325141435e+01
-2.8220920487384876e-01 1.3392253704873838e+01
-2.3231255698373834e-01 1.3325734536983836e+01
ITEM: ATOMS id type element x y z
2 1 H 0.26757 0.182035 0.33044
3 1 H 2.56967 2.58623 0.395203
9 1 H 1.0086 2.14947 2.10979
10 1 H 1.93615 0.902236 2.33336
261 2 O 1.52858 1.45351 1.62173
297 2 O 2.9409 13.1215 -0.179492
17 1 H 3.55474 -0.230376 0.420755
20 1 H 5.9584 2.50241 0.0688303
25 1 H 4.23647 2.04417 1.93502
26 1 H 5.07818 0.840376 2.00921
269 2 O 4.63266 1.33469 1.31929
324 2 O 6.55891 3.04189 3.2186
130 1 H 7.07059 0.111079 0.498788
131 1 H 9.23033 2.64711 0.229832
137 1 H 7.75771 1.83181 2.0657
138 1 H 9.06649 1.01953 1.81235
325 2 O 8.1724 1.21469 1.41375
323 2 O 9.92303 -0.0183972 3.53975
332 2 O 9.99223 3.08781 3.20793
148 1 H 12.8643 2.65938 0.500867
145 1 H 10.5939 0.331211 0.207408
153 1 H 10.9617 2.05902 2.00241
154 1 H 12.2598 1.09104 1.79862
333 2 O 11.4423 1.47994 1.38958
24 1 H 3.00569 3.89539 2.49432
27 1 H 1.83684 5.49049 0.741477
28 1 H 0.642497 4.46621 0.658312
270 2 O 1.26803 4.95587 1.3222
22 1 H 0.103269 5.77634 2.88217
299 2 O -0.225777 6.66428 3.27571
5 1 H 3.67646 6.07981 2.37841
7 1 H 6.1843 3.74852 2.66509
11 1 H 5.52385 5.51318 0.646771
12 1 H 4.55933 4.27579 0.844294
262 2 O 5.08414 4.93216 1.34975
268 2 O 3.47992 3.30971 3.17047
150 1 H 7.12658 5.78858 2.51635
152 1 H 9.35067 3.7147 2.78962
155 1 H 8.77525 5.17328 0.973921
156 1 H 7.6891 4.13249 1.09467
334 2 O 8.378 4.58889 1.63417
363 2 O 6.67678 6.3801 3.1484
355 2 O 9.88288 6.39643 3.05857
133 1 H 10.5955 6.0392 2.45498
135 1 H 12.909 3.77413 2.82051
139 1 H 12.1622 5.57628 0.900863
140 1 H 10.9287 4.46167 1.05134
326 2 O 11.5975 5.01454 1.5864
265 2 O 3.0066 6.57238 13.2901
66 1 H 0.112506 7.13382 0.231112
67 1 H 2.39961 9.41844 0.157088
73 1 H 1.04103 9.10909 1.95294
74 1 H 1.76284 7.78599 1.93542
293 2 O 1.44416 8.43195 1.34021
81 1 H 3.62238 7.10984 0.282683
84 1 H 5.86617 9.22155 0.148716
89 1 H 4.0161 8.612 2.10965
90 1 H 5.28135 7.7403 2.04648
301 2 O 4.5955 8.15964 1.50097
298 2 O 6.338 9.81804 13.1354
194 1 H 7.1557 7.21237 0.325136
195 1 H 9.21205 9.48815 0.071057
201 1 H 7.85766 8.91097 1.84272
202 1 H 8.84017 7.84661 1.90416
357 2 O 8.36679 8.27797 1.24298
329 2 O 9.9644 6.43265 13.1321
209 1 H 10.101 6.95584 0.376561
212 1 H 12.8637 9.22219 0.397875
217 1 H 11.2874 9.12841 1.99271
218 1 H 12.3397 7.91052 2.24221
365 2 O 11.8005 8.39349 1.55627
362 2 O 13.3204 9.6692 13.1825
86 1 H 0.0874849 12.8787 2.80321
88 1 H 2.51761 10.8738 2.63063
91 1 H 1.75775 12.1113 0.826161
92 1 H 0.813939 10.8586 0.815567
302 2 O 1.27302 11.4591 1.40053
259 2 O 3.10668 13.3524 3.34144
69 1 H 3.66025 12.9922 2.57004
71 1 H 6.45207 10.5331 2.32274
75 1 H 5.42979 12.3652 0.737151
76 1 H 4.54367 11.0869 0.897111
294 2 O 5.09022 11.7309 1.45325
306 2 O 3.03675 9.7651 13.042
305 2 O 6.54966 13.327 -0.168268
331 2 O 6.63549 -0.209699 3.21221
214 1 H 7.14382 12.9701 2.52289
216 1 H 9.45115 10.3632 2.54708
219 1 H 9.0727 12.1663 0.893868
220 1 H 7.57081 11.5917 0.668092
366 2 O 8.31157 11.7271 1.32524
361 2 O 10.0821 -0.28425 13.2002
197 1 H 10.1956 13.049 2.78733
199 1 H 12.7257 10.7336 2.62664
203 1 H 12.2404 12.3745 0.785365
204 1 H 11.2168 11.1472 0.478699
358 2 O 11.5923 11.7852 1.23552
369 2 O 13.1459 -0.249931 -0.00343798
19 1 H 0.274047 2.67104 6.22194
29 1 H 2.06183 2.14313 4.26094
30 1 H 1.02238 0.971322 4.58311
271 2 O 1.64238 1.56744 4.9371
18 1 H 2.98584 0.64826 6.14318
267 2 O -0.298918 -0.0658533 3.32704
8 1 H 5.81445 2.5695 3.69594
6 1 H 3.61509 0.430511 3.7261
13 1 H 4.53099 2.16644 5.29385
14 1 H 5.48281 1.00892 4.99068
263 2 O 4.8577 1.57933 4.57572
258 2 O 3.10653 3.20166 6.68119
313 2 O 3.31771 -0.142275 6.6272
289 2 O 6.56847 -0.120189 6.36965
282 2 O 6.54939 3.23374 6.51835
146 1 H 9.46907 0.537992 5.87033
157 1 H 8.99839 2.10816 4.44599
158 1 H 7.71711 1.12698 4.48468
335 2 O 8.2737 1.68206 5.02836
147 1 H 7.05443 2.59425 5.88355
134 1 H 10.6745 0.589122 3.6152
136 1 H 12.8016 2.4773 3.82594
141 1 H 11.2614 2.30183 5.61122
142 1 H 12.4073 1.18384 5.65475
327 2 O 11.7232 1.61336 5.02065
260 2 O 13.406 2.95955 3.14654
1 1 H 0.286916 6.1711 5.82994
15 1 H 1.20009 4.14195 4.60122
16 1 H 2.20842 5.36991 4.22653
264 2 O 1.64343 4.95095 4.98425
4 1 H 2.6404 3.93121 6.17259
23 1 H 4.07901 3.98482 3.61221
31 1 H 4.73682 5.4322 5.36527
32 1 H 5.7285 4.29344 5.26953
272 2 O 5.04335 4.71833 4.73189
281 2 O 3.27773 6.72597 6.85498
21 1 H 5.99558 5.7407 3.61564
129 1 H 6.98579 6.07505 5.84995
132 1 H 9.54023 3.69772 6.12248
143 1 H 7.69008 4.17161 4.28082
144 1 H 8.72935 5.40424 4.23171
328 2 O 8.3386 4.66783 4.79626
149 1 H 12.7394 6.20788 3.77632
151 1 H 10.6247 3.64719 3.69591
159 1 H 10.8833 5.68948 5.32545
160 1 H 12.1418 4.77789 5.67646
336 2 O 11.5928 5.02563 4.92154
291 2 O 3.0714 6.34384 3.14546
292 2 O 13.3456 10.2075 3.13133
82 1 H 2.75372 7.13416 6.1703
93 1 H 2.1983 8.96449 4.14754
94 1 H 1.0898 7.69523 4.0054
303 2 O 1.70383 8.20067 4.64148
83 1 H 0.130597 9.54262 6.54899
70 1 H 3.55618 6.97688 3.75657
72 1 H 6.15686 9.44632 3.43951
77 1 H 4.391 8.67981 5.06134
78 1 H 5.52324 7.55018 5.08114
295 2 O 5.10166 8.28978 4.56629
290 2 O 3.0043 10.1459 6.64578
210 1 H 9.2688 6.97217 6.11886
211 1 H 7.10281 9.33971 6.28983
221 1 H 8.78433 8.51297 4.36039
222 1 H 7.56574 7.53302 4.17318
367 2 O 8.18567 7.894 4.88447
364 2 O 9.92512 9.68064 3.07871
198 1 H 10.4572 7.00011 3.5831
200 1 H 12.8962 9.4986 3.619
205 1 H 11.2189 8.87994 5.26246
206 1 H 12.3485 7.91213 5.2716
359 2 O 11.7668 8.41936 4.63148
354 2 O 10.0615 10.0083 6.60697
65 1 H 0.510739 12.9117 6.07552
79 1 H 0.635543 11.3989 4.39929
80 1 H 1.86122 12.362 4.44005
296 2 O 1.31601 11.7852 5.01182
378 2 O 13.0248 10.049 6.66002
300 2 O 3.02929 10.3378 3.25604
68 1 H 2.50137 10.7047 6.03281
85 1 H 6.13892 12.6433 3.60056
87 1 H 3.51718 11.0526 3.73734
95 1 H 4.60798 12.1919 5.22098
96 1 H 5.36643 10.8824 5.4325
304 2 O 4.9623 11.4304 4.74732
356 2 O 6.8588 10.1023 3.13498
193 1 H 7.18862 12.99 5.89157
196 1 H 9.40489 10.5342 6.07801
207 1 H 7.86391 11.1612 4.28301
208 1 H 8.97029 12.2691 4.46835
360 2 O 8.51534 11.5637 4.93764
213 1 H 12.7639 13.1507 4.00117
215 1 H 10.2845 10.2878 3.76174
223 1 H 11.0447 12.455 5.30983
224 1 H 12.1924 11.3892 5.31497
368 2 O 11.6093 11.9037 4.73868
34 1 H 0.28989 0.363313 7.23557
35 1 H 2.43584 2.63806 7.20841
41 1 H 0.910125 2.06202 8.85327
42 1 H 1.9126 0.923724 8.84397
277 2 O 1.6015 1.64786 8.27738
284 2 O 3.06861 2.94633 10.3197
276 2 O -0.0559612 3.02571 10.066
52 1 H 6.0142 2.73158 7.17404
57 1 H 4.48261 1.81678 8.61335
58 1 H 5.45809 0.657193 8.80493
285 2 O 4.93374 1.12469 8.09768
49 1 H 4.03909 0.110064 7.21033
101 1 H 3.604 12.8764 9.47101
347 2 O 6.57608 13.3876 9.79594
162 1 H 7.15355 0.172727 7.11782
163 1 H 9.55013 2.62616 7.07933
169 1 H 8.27972 2.00261 8.68394
170 1 H 9.1236 0.880751 8.4726
341 2 O 8.32056 1.28281 8.07503
348 2 O 9.99907 2.7036 9.8081
180 1 H 13.0254 2.77598 7.53589
177 1 H 10.7206 0.4158 6.86889
185 1 H 11.4669 2.00983 8.71195
186 1 H 12.2363 0.634485 8.92739
349 2 O 11.8577 1.21597 8.22138
339 2 O 9.86704 -0.294249 10.0554
54 1 H 0.328843 6.30336 9.37805
56 1 H 2.34778 3.43887 9.84114
59 1 H 1.81014 5.74609 7.83425
60 1 H 0.714985 4.60627 7.9852
286 2 O 1.28043 5.1966 8.47635
257 2 O 6.35281 6.43926 6.50985
37 1 H 3.47425 5.93357 9.59075
39 1 H 5.76224 3.59048 9.44133
43 1 H 5.29466 5.20577 8.04424
44 1 H 4.16995 4.12245 7.88449
278 2 O 4.67169 4.59737 8.54584
182 1 H 7.01051 5.73882 9.41005
184 1 H 9.52036 3.42982 9.36613
187 1 H 8.77316 5.25656 7.56721
188 1 H 7.72349 4.15572 7.54375
350 2 O 8.22696 4.716 8.23515
322 2 O 10.202 3.1725 6.60592
321 2 O -0.254247 6.75767 6.40524
346 2 O -0.161708 3.31054 6.88372
165 1 H 10.6063 6.44519 9.40941
167 1 H 13.0959 3.67365 9.64624
171 1 H 12.3675 5.64659 8.06313
172 1 H 11.4663 4.37298 7.92677
342 2 O 11.826 4.9491 8.59034
98 1 H 0.373428 7.20513 6.98684
99 1 H 2.36161 9.41593 7.07338
105 1 H 0.938082 9.0843 8.75038
106 1 H 1.87021 7.79623 8.81067
309 2 O 1.48312 8.41483 8.12865
113 1 H 3.87787 7.47721 7.13144
116 1 H 5.99631 9.72629 7.29714
121 1 H 4.00243 8.70982 9.04004
122 1 H 5.2464 7.63465 8.74186
317 2 O 4.78454 8.3982 8.34222
226 1 H 6.98585 6.96271 7.04316
233 1 H 7.70486 8.72456 8.66516
234 1 H 8.78858 7.62577 8.54544
373 2 O 8.13554 8.15639 7.98281
227 1 H 9.58664 9.30516 7.19814
371 2 O 9.89006 6.87237 9.83423
379 2 O 6.50291 6.46893 9.78807
345 2 O 9.99784 6.47545 6.49628
380 2 O 9.79684 9.87852 9.6342
241 1 H 10.7437 7.06609 6.84259
244 1 H 12.4606 9.3719 7.1842
249 1 H 11.0621 8.6921 8.72945
250 1 H 12.164 7.65635 8.46499
381 2 O 11.5439 8.26078 8.02254
118 1 H 0.367192 12.9301 9.52177
120 1 H 2.36248 10.6022 9.6436
123 1 H 2.16929 12.6308 7.79035
124 1 H 1.13856 11.4451 7.69221
318 2 O 1.50212 12.0523 8.37331
103 1 H 5.9423 10.6958 9.21201
107 1 H 5.34337 12.1314 7.78129
108 1 H 4.09402 11.1585 8.02506
310 2 O 4.85654 11.6219 8.50249
314 2 O 6.59924 10.1078 6.62827
248 1 H 9.03748 10.4974 9.37703
246 1 H 7.19421 12.9112 9.14853
251 1 H 8.70867 12.248 7.73442
252 1 H 7.69094 11.2039 7.65973
382 2 O 8.07216 11.7897 8.30685
377 2 O 10.0486 -0.107376 6.27161
353 2 O -0.164592 -0.169874 6.52892
229 1 H 10.5902 12.7677 9.6197
231 1 H 12.8569 10.4589 9.23612
235 1 H 12.1577 11.915 7.61934
236 1 H 10.9272 11.0424 7.86551
374 2 O 11.6342 11.4928 8.3702
283 2 O -0.279588 -0.216727 10.0638
275 2 O 3.05464 -0.301891 10.1484
50 1 H 2.65515 0.198418 12.8312
51 1 H 0.220871 2.37838 13.0542
61 1 H 1.99203 1.94521 11.4682
62 1 H 0.85713 0.908657 11.3369
287 2 O 1.41798 1.38189 11.9503
274 2 O 3.28432 3.05002 -0.0778167
38 1 H 3.6952 0.260527 10.7156
40 1 H 6.04941 2.29906 10.1917
45 1 H 4.43717 1.67407 12.0814
46 1 H 5.28009 0.523107 12.3385
279 2 O 4.93354 1.08969 11.6158
178 1 H 9.40867 0.296156 12.747
179 1 H 7.10774 2.44207 12.5682
189 1 H 8.44421 2.07814 11.1421
190 1 H 7.4139 0.902837 10.9283
351 2 O 7.9852 1.39559 11.6852
266 2 O 6.66026 3.07596 13.2089
168 1 H 13.0276 2.53732 10.7232
166 1 H 10.3334 0.37139 10.5527
173 1 H 11.533 2.18873 12.2154
174 1 H 12.397 1.07034 12.2355
343 2 O 12.0196 1.61209 11.5424
330 2 O 13.406 3.12595 -0.188413
33 1 H -0.0875321 5.87111 12.9952
36 1 H 2.80123 3.84631 13.1325
47 1 H 0.843283 4.0372 11.4603
48 1 H 1.70034 5.28189 11.1433
280 2 O 1.27896 4.83078 11.9186
307 2 O 2.84226 6.49677 10.091
273 2 O 6.71213 6.45697 -0.157213
340 2 O 6.51432 2.97274 9.69287
55 1 H 3.58186 3.68396 10.7631
53 1 H 6.01991 6.03216 10.4982
63 1 H 4.37454 5.14834 12.3371
64 1 H 5.5068 4.08494 12.0628
288 2 O 4.90297 4.71321 11.5806
161 1 H 7.2836 6.01952 12.7319
164 1 H 9.21338 3.69527 12.6284
175 1 H 7.71011 4.375 10.845
176 1 H 9.07528 5.3013 10.986
344 2 O 8.3508 4.81936 11.5047
338 2 O 9.82476 3.20214 13.2316
181 1 H 12.9285 6.10151 10.4984
183 1 H 10.5181 3.22552 10.4082
191 1 H 10.9644 5.13694 11.9451
192 1 H 12.2789 4.26529 11.7603
352 2 O 11.7126 4.97115 11.373
315 2 O -0.287054 6.83369 9.99742
308 2 O -0.145331 9.87604 9.597
316 2 O 2.98409 9.99191 10.102
114 1 H 2.40343 7.22258 12.8738
115 1 H 0.358065 9.04463 12.9672
125 1 H 1.8243 8.85642 11.2384
126 1 H 0.771969 7.61218 11.0824
319 2 O 1.23511 8.27602 11.7628
102 1 H 3.40791 7.08797 10.588
104 1 H 6.15249 9.40456 10.1415
109 1 H 3.90896 8.54282 12.0437
110 1 H 5.10212 7.47063 12.0048
311 2 O 4.59003 8.08883 11.4473
242 1 H 9.28074 6.87264 12.6092
243 1 H 6.91861 9.21454 12.6488
253 1 H 8.59944 8.79386 11.1624
254 1 H 7.47041 7.72006 10.9864
383 2 O 8.10407 8.16335 11.7255
337 2 O 13.1275 6.54038 -0.0881756
230 1 H 10.2589 7.5954 10.2627
232 1 H 13.113 9.27244 10.2303
237 1 H 10.9907 8.98817 11.7331
238 1 H 11.8609 7.77778 11.939
375 2 O 11.5476 8.37905 11.2031
370 2 O 10.0198 9.91881 13.2752
100 1 H 2.58722 10.3465 12.4597
97 1 H -0.188647 12.7962 12.9264
111 1 H 0.584361 11.2137 11.238
112 1 H 1.7802 12.2301 11.1206
312 2 O 1.22358 11.7718 11.7538
372 2 O 6.67338 10.0562 9.61536
117 1 H 6.04454 12.6321 10.1606
119 1 H 3.61676 10.5392 10.6364
127 1 H 4.28655 12.2813 11.723
128 1 H 5.39472 11.1137 12.3685
320 2 O 4.9188 11.496 11.6027
225 1 H 7.29859 12.7838 12.8854
228 1 H 9.66418 10.681 12.6647
239 1 H 7.80288 11.3968 11.1686
240 1 H 8.77268 12.5042 11.1572
376 2 O 8.37284 11.8501 11.8132
245 1 H 12.7972 12.736 10.3094
247 1 H 10.4135 10.4171 10.2339
255 1 H 11.6156 12.0354 12.0372
256 1 H 12.3258 10.5976 12.1852
384 2 O 11.8499 11.1978 11.5448
ITEM: TIMESTEP
23000
ITEM: NUMBER OF ATOMS
384
ITEM: BOX BOUNDS pp pp pp
-1.8385343043291369e-01 1.3293897970432797e+01
-3.2715364523746376e-01 1.3437198145237462e+01
-4.1903911453153048e-01 1.3512461094531600e+01
ITEM: ATOMS id type element x y z
2 1 H 0.201499 0.273886 0.196708
3 1 H 2.67501 2.66888 0.158141
9 1 H 0.914714 2.28389 1.90101
10 1 H 1.9072 1.20881 1.99095
261 2 O 1.41207 1.68034 1.28829
17 1 H 3.71132 0.384451 0.116763
20 1 H 6.13058 2.52318 0.00254355
25 1 H 4.32367 1.69886 1.82548
26 1 H 5.48031 0.72878 1.4355
269 2 O 4.86634 1.39445 1.09852
274 2 O 3.32897 3.15988 -0.396024
130 1 H 7.00203 0.447651 0.0378501
131 1 H 9.54937 2.58031 0.365742
137 1 H 7.84485 2.21237 2.07366
138 1 H 9.23313 1.62491 2.26522
325 2 O 8.51333 1.68978 1.58551
148 1 H 12.8226 2.87881 -0.180627
145 1 H 10.2635 0.154125 0.160668
153 1 H 11.0696 2.09239 1.59691
154 1 H 12.1369 1.04671 1.78054
333 2 O 11.5358 1.38054 1.07353
369 2 O 13.1292 -0.26715 13.518
260 2 O 13.3045 3.12327 3.04436
330 2 O -0.023685 3.40936 13.2331
24 1 H 2.65296 3.8333 2.19219
27 1 H 2.09204 5.39106 0.561116
28 1 H 1.13821 4.09401 0.564248
270 2 O 1.65734 4.68867 1.2003
22 1 H 0.567715 5.8705 2.67132
291 2 O 3.06293 6.57813 3.08539
5 1 H 3.6105 6.02 2.50837
7 1 H 6.08943 3.89544 2.54704
11 1 H 5.59057 5.26091 0.758608
12 1 H 4.55675 4.0361 0.835245
262 2 O 5.02788 4.78764 1.3698
150 1 H 7.38982 5.99418 2.75055
152 1 H 9.37909 4.05023 2.61071
155 1 H 8.56258 5.50466 0.824489
156 1 H 7.402 4.43975 0.69856
334 2 O 7.98056 4.87588 1.3644
363 2 O 6.76627 6.60529 3.18941
355 2 O 9.90643 6.68185 2.82013
273 2 O 6.48181 6.43623 13.43
133 1 H 10.3326 6.06655 2.14928
135 1 H 12.6234 3.446 2.38994
139 1 H 12.5043 5.10578 0.482882
140 1 H 11.1279 4.24938 0.496876
326 2 O 11.7951 4.6555 1.0257
337 2 O -0.0678482 6.48528 -0.120134
66 1 H 0.539988 7.07546 0.435989
67 1 H 2.68624 9.5924 0.263513
73 1 H 1.31445 9.02476 1.92062
74 1 H 2.19647 7.69106 1.62029
293 2 O 1.65522 8.4558 1.1966
81 1 H 3.63907 7.33269 0.0965068
84 1 H 5.87949 9.45683 0.509329
89 1 H 4.55407 8.77953 2.1479
90 1 H 5.50846 7.55278 1.83325
301 2 O 4.91644 8.2155 1.40089
194 1 H 7.19326 7.09383 13.4424
195 1 H 9.344 9.42705 0.0471214
201 1 H 7.6764 8.53668 1.83299
202 1 H 8.95146 7.61168 1.67633
357 2 O 8.31109 8.13152 1.19101
364 2 O 10.1524 9.90513 3.06701
209 1 H 10.533 6.94956 0.226678
212 1 H 12.8209 9.57114 0.140336
217 1 H 11.0643 8.89962 1.99455
218 1 H 12.2574 7.843 1.64014
365 2 O 11.5255 8.353 1.30986
297 2 O 3.2369 13.4119 -0.329265
86 1 H 0.29281 12.7561 2.42364
88 1 H 2.42692 10.6108 3.06587
91 1 H 2.17028 12.3299 0.889943
92 1 H 0.987524 11.2199 0.85034
302 2 O 1.52018 11.7867 1.4997
69 1 H 3.57855 12.7766 2.69444
71 1 H 5.75227 10.8098 2.8282
75 1 H 5.43186 12.1972 0.961488
76 1 H 4.42244 10.997 0.840791
294 2 O 4.83861 11.6339 1.46573
305 2 O 6.49053 -0.216143 -0.402766
214 1 H 7.50534 13.1597 2.39816
216 1 H 9.671 10.5983 2.58533
219 1 H 8.64494 12.195 0.517986
220 1 H 7.4664 11.169 0.91751
366 2 O 8.10279 11.7965 1.25276
356 2 O 6.58556 10.2937 2.9287
197 1 H 10.7768 13.0154 2.81112
199 1 H 12.6531 10.6278 2.52415
203 1 H 12.1414 12.3939 0.707278
204 1 H 11.176 11.1894 0.722152
358 2 O 11.6054 11.86 1.34117
292 2 O -0.130612 10.1644 3.00838
19 1 H 0.0429002 2.74896 6.0297
29 1 H 1.82997 1.82618 4.29383
30 1 H 0.929914 0.594934 3.85758
271 2 O 1.16593 1.21983 4.61407
18 1 H 2.43829 0.0457325 6.42713
267 2 O 13.2218 13.4713 2.92132
353 2 O 12.9682 -0.328975 6.72809
8 1 H 5.99016 2.89523 3.67668
6 1 H 3.79628 0.17169 3.77279
13 1 H 4.09766 1.66906 5.3996
14 1 H 5.38947 0.765867 5.22075
263 2 O 4.76442 1.36922 4.72467
324 2 O 6.67375 3.36602 3.16001
323 2 O 10.1259 -0.274047 3.37406
331 2 O 6.67063 -0.262963 2.8628
289 2 O 6.38195 13.2348 6.09372
146 1 H 9.44959 0.363861 6.18891
157 1 H 8.40437 2.16102 4.17342
158 1 H 7.80829 0.72224 4.26262
335 2 O 7.92268 1.59396 4.80849
147 1 H 6.7079 2.70291 6.01796
332 2 O 9.85998 3.34531 3.05609
134 1 H 10.5785 0.230042 4.13356
136 1 H 12.7786 2.73598 3.761
141 1 H 11.3331 2.29562 5.33463
142 1 H 12.2676 1.02009 5.40392
327 2 O 11.8693 1.63932 4.75881
377 2 O 10.061 -0.268807 6.54182
1 1 H 0.384309 5.92233 6.2246
15 1 H 1.09374 4.04839 4.21836
16 1 H 2.22125 5.00607 4.60738
264 2 O 1.49746 4.49669 4.98774
4 1 H 2.64573 3.27267 5.87456
268 2 O 3.16197 3.1871 2.83469
282 2 O 6.12359 3.31674 6.59658
23 1 H 3.66135 3.83882 3.3986
31 1 H 4.09143 5.51701 5.34552
32 1 H 5.15817 4.30874 5.48129
272 2 O 4.54064 4.8003 4.83227
21 1 H 6.16475 6.10202 3.75157
257 2 O 6.58585 6.61123 6.70035
129 1 H 7.13571 5.93568 6.313
132 1 H 9.41974 3.89796 5.8683
143 1 H 7.74683 4.35482 4.35909
144 1 H 8.88365 5.23641 4.39604
328 2 O 8.24951 4.84475 5.0495
149 1 H 12.9239 6.08925 3.67346
151 1 H 10.4749 3.67905 3.70656
159 1 H 10.7385 5.53411 5.28273
160 1 H 11.9111 4.53246 5.31519
336 2 O 11.3361 4.9979 4.70009
345 2 O 9.9348 6.49067 6.67767
299 2 O 0.0178197 6.5672 3.02165
82 1 H 2.47264 7.06247 6.26077
93 1 H 2.16932 8.64044 4.61962
94 1 H 0.98595 7.57323 4.41479
303 2 O 1.45631 8.1271 5.13997
321 2 O 13.1175 6.44432 6.67617
70 1 H 3.6251 7.24535 3.57843