LAMMPS (29 Aug 2024 - Update 1)
OMP_NUM_THREADS environment is not set. Defaulting to 1 thread. (src/comm.cpp:98)
  using 1 OpenMP thread(s) per MPI task
Reading data file ...
  triclinic box = (0 0 0) to (18.047441 22.912981 19.549222) with tilt (-0.10697296 -6.2467562 -0.022549581)
  2 by 7 by 2 MPI processor grid
  reading atoms ...
  1008 atoms
  read_data CPU = 0.020 seconds
ACE/AL version: 2023.11.25
Loading /home/users/saadie5f/phase_diagram/pot_dir/interim_potential_ladder_step_1.yaml
Total number of basis functions
	H: 23 (r=1) 664 (r>1)
	O: 23 (r=1) 664 (r>1)
Mapping LAMMPS atom type #1(H) -> ACE species type #0
Mapping LAMMPS atom type #2(O) -> ACE species type #1
Loading ASI /home/users/saadie5f/phase_diagram/pot_dir/interim_potential_ladder_step_1.asi
LINEAR ASI is loaded

CITE-CITE-CITE-CITE-CITE-CITE-CITE-CITE-CITE-CITE-CITE-CITE-CITE

Your simulation uses code contributions which should be cited:
- Type Label Framework: https://doi.org/10.1021/acs.jpcb.3c08419
The log file lists these citations in BibTeX format.

CITE-CITE-CITE-CITE-CITE-CITE-CITE-CITE-CITE-CITE-CITE-CITE-CITE

Switching to 'neigh_modify every 1 delay 0 check yes' setting during minimization
Neighbor list info ...
  update: every = 1 steps, delay = 0 steps, check = yes
  max neighbors/atom: 2000, page size: 100000
  master list distance cutoff = 6.5
  ghost atom cutoff = 6.5
  binsize = 3.25, bins = 8 8 7
  1 neighbor lists, perpetual/occasional/extra = 1 0 0
  (1) pair pace/extrapolation, perpetual
      attributes: full, newton on
      pair build: full/bin/atomonly
      stencil: full/bin/3d
      bin: standard
Setting up cg style minimization ...
  Unit style    : metal
  Current step  : 0
Per MPI rank memory allocation (min/avg/max) = 4.348 | 4.35 | 4.351 Mbytes
   Step         TotEng         PotEng         KinEng         Press           Temp          Volume        Density     c_max_pace_gamma
         0  -4859.3795     -4859.3795      0             -15249.985      0              8084.0073      1.2433848      0.6550148    
       100  -4870.181      -4870.181       0             -8271.4786      0              8084.0073      1.2433848      0.6550148    
       200  -4870.1941     -4870.1941      0             -8252.9859      0              8084.0073      1.2433848      0.6550148    
       300  -4870.1942     -4870.1942      0             -8253.5114      0              8084.0073      1.2433848      0.6550148    
       340  -4870.1942     -4870.1942      0             -8253.6325      0              8084.0073      1.2433848      0.6550148    
Loop time of 6.79969 on 28 procs for 340 steps with 1008 atoms

99.5% CPU use with 28 MPI tasks x 1 OpenMP threads

Minimization stats:
  Stopping criterion = force tolerance
  Energy initial, next-to-last, final = 
     -4859.37950969087  -4870.19417354635  -4870.19417355022
  Force two-norm initial, final = 9.3928037 0.00045185036
  Force max component initial, final = 0.67588365 4.4621563e-05
  Final line search alpha, max atom move = 1 4.4621563e-05
  Iterations, force evaluations = 340 680

MPI task timing breakdown:
Section |  min time  |  avg time  |  max time  |%varavg| %total
---------------------------------------------------------------
Pair    | 5.4962     | 6.0267     | 6.6759     |  12.4 | 88.63
Neigh   | 0.00072065 | 0.00078259 | 0.00086245 |   0.0 |  0.01
Comm    | 0.090025   | 0.71893    | 1.2738     |  37.0 | 10.57
Output  | 0.00020721 | 0.00021219 | 0.00029014 |   0.0 |  0.00
Modify  | 0.00083253 | 0.0010591  | 0.0013324  |   0.4 |  0.02
Other   |            | 0.05197    |            |       |  0.76

Nlocal:             36 ave          40 max          33 min
Histogram: 2 3 9 0 4 4 0 2 3 1
Nghost:           1014 ave        1031 max        1000 min
Histogram: 4 5 4 1 3 1 0 4 4 2
Neighs:              0 ave           0 max           0 min
Histogram: 28 0 0 0 0 0 0 0 0 0
FullNghs:      5234.93 ave        5831 max        4785 min
Histogram: 2 3 6 3 4 3 1 2 3 1

Total # of neighbors = 146578
Ave neighs/atom = 145.41468
Neighbor list builds = 5
Dangerous builds = 0
Setting up Verlet run ...
  Unit style    : metal
  Current step  : 340
  Time step     : 0.0005
Per MPI rank memory allocation (min/avg/max) = 3.489 | 3.491 | 3.492 Mbytes
   Step         TotEng         PotEng         KinEng         Press           Temp          Volume        Density     c_max_pace_gamma
       340  -4834.3988     -4870.1942      35.795366     -3524.0893      275            8084.0073      1.2433848      0.6550148    
       400  -4830.7335     -4853.4973      22.76379       4717.1927      174.88415      8064.1606      1.2464449      0.6550148    
       500  -4823.1486     -4844.5071      21.358565      4060.3207      164.08843      7973.8628      1.2605599      0.6550148    
       600  -4815.9489     -4841.1509      25.202063      4716.9767      193.61633      7844.0946      1.2814139      0.6550148    
       700  -4810.2038     -4840.5264      30.322611      5267.0982      232.95524      7728.5427      1.3005727      0.6550148    
       800  -4807.4184     -4838.9833      31.564869      10111.422      242.49896      7661.6011      1.3119362      0.6550148    
       900  -4805.4762     -4837.898       32.421718      8974.1526      249.08175      7656.2463      1.3128538      0.6550148    
      1000  -4804.3889     -4837.6723      33.283425      9257.3216      255.70187      7703.8274      1.3047452      0.67752725   
      1100  -4802.8814     -4835.9104      33.029012      4653.9391      253.74733      7786.7918      1.2908438      0.67752725   
      1200  -4800.5667     -4833.6671      33.100343      5214.7401      254.29533      7882.915       1.2751034      0.67752725   
      1300  -4800.2494     -4834.1593      33.909954      4266.5838      260.51521      7973.5409      1.2606108      0.67752725   
      1400  -4799.9398     -4834.6499      34.710105      1967.6282      266.66242      8040.5036      1.2501122      0.67752725   
      1500  -4799.525      -4833.7197      34.194651      2421.8423      262.70242      8077.5066      1.2443855      0.67752725   
      1600  -4799.66       -4833.8569      34.19687      -101.97317      262.71946      8080.4485      1.2439324      0.67752725   
      1700  -4800.197      -4834.8357      34.638741      2125.5912      266.11416      8053.8253      1.2480444      0.67752725   
      1800  -4798.1065     -4833.0993      34.992757      1163.1147      268.83391      8008.9468      1.2550379      0.67752725   
      1900  -4798.1251     -4833.7121      35.587046      4359.62        273.39957      7956.7152      1.2632765      0.67752725   
      2000  -4798.2793     -4833.2892      35.009894      7375.9719      268.96557      7905.7271      1.2714241      0.67798419   
      2100  -4798.6668     -4833.5146      34.84778       5135.7515      267.72012      7868.9358      1.2773686      0.67798419   
      2200  -4799.6654     -4834.8883      35.222859      2850.5205      270.60169      7857.716       1.2791925      0.67798419   
      2300  -4799.1977     -4833.0999      33.902163      3990.8158      260.45536      7873.7315      1.2765906      0.67798419   
      2400  -4799.016      -4833.4825      34.466445      2950.3383      264.79049      7910.2213      1.2707017      0.67798419   
      2500  -4799.6755     -4834.4834      34.80787      -397.11345      267.41351      7957.5239      1.2631482      0.67798419   
      2600  -4799.4798     -4833.4009      33.92106       1681.1025      260.60053      8002.3546      1.2560718      0.67798419   
      2700  -4798.0521     -4833.8637      35.811544      3106.3459      275.12429      8029.1986      1.2518723      0.67798419   
      2800  -4797.0927     -4832.406       35.313297      2245.3546      271.29648      8038.9578      1.2503526      0.67798419   
      2900  -4797.5442     -4831.8756      34.331417      2218.1614      263.75313      8032.8824      1.2512982      0.67798419   
      3000  -4798.3716     -4832.4319      34.0603        2518.8484      261.67026      8014.4285      1.2541795      0.63079154   
      3100  -4799.8834     -4833.9726      34.089222      4961.3558      261.89245      7987.1839      1.2584575      0.63079154   
      3200  -4797.9473     -4833.4455      35.498229      4358.9334      272.71723      7951.8266      1.2640532      0.63079154   
      3300  -4798.9092     -4833.5022      34.593043      4717.2742      265.76308      7917.5675      1.2695227      0.63079154   
      3400  -4798.1071     -4833.2114      35.104369      7778.2547      269.69137      7891.6557      1.2736911      0.63079154   
      3500  -4797.4923     -4833.2014      35.709169      5434.8144      274.33779      7883.1069      1.2750724      0.63079154   
      3600  -4796.866      -4832.3621      35.496112      4656.9587      272.70097      7892.4461      1.2735636      0.63079154   
      3700  -4797.4015     -4832.5528      35.151293      4621.2391      270.05188      7920.426       1.2690645      0.63079154   
      3800  -4798.4182     -4832.9358      34.517506      5326.5522      265.18277      7966.7703      1.2616821      0.63079154   
      3900  -4798.1668     -4834.3205      36.153651      2459.1021      277.75255      8018.8813      1.253483       0.63079154   
      4000  -4797.4557     -4831.9972      34.541578      6340.5376      265.3677       8062.634       1.2466809      0.65467644   
      4100  -4797.969      -4833.1369      35.167815      1523.9085      270.17881      8090.3863      1.2424044      0.65467644   
      4200  -4797.3051     -4832.0994      34.794293      614.2573       267.3092       8087.9062      1.2427854      0.65467644   
      4300  -4797.209      -4832.6954      35.486424      2423.6225      272.62653      8049.9125      1.248651       0.65467644   
      4400  -4796.2155     -4832.1814      35.965881      1825.1621      276.30999      7988.4804      1.2582533      0.65467644   
      4500  -4795.9671     -4832.0663      36.099204      3966.5059      277.33425      7925.761       1.2682103      0.65467644   
      4600  -4795.5934     -4832.2038      36.610387      8952.1403      281.26145      7877.6224      1.2759601      0.65467644   
      4700  -4796.5542     -4833.2175      36.663377      6539.0544      281.66855      7854.9674      1.2796401      0.65467644   
      4800  -4798.5775     -4834.2938      35.716266      5863.0014      274.39231      7866.2945      1.2777975      0.65467644   
      4900  -4796.8825     -4833.7569      36.874463      5779.5813      283.29023      7905.9576      1.271387       0.65467644   
      5000  -4798.4376     -4833.8142      35.376527      6947.0073      271.78225      7963.5137      1.2621981      0.70464396   
      5100  -4797.9208     -4831.9359      34.015112      5157.484       261.3231       8026.2056      1.2523392      0.70464396   
      5200  -4798.7513     -4832.6721      33.920777      3255.3819      260.59836      8076.708       1.2445085      0.70464396   
      5300  -4798.9772     -4833.9356      34.958423      3030.7523      268.57014      8100.2505      1.2408915      0.70464396   
      5400  -4798.5308     -4832.3375      33.806699      3835.0479      259.72195      8093.0327      1.2419981      0.70464396   
      5500  -4797.715      -4833.0993      35.384302      2457.9136      271.84198      8061.8667      1.2467995      0.70464396   
      5600  -4797.9532     -4832.3477      34.394471      5548.3446      264.23754      8012.2137      1.2545262      0.70464396   
      5700  -4798.2297     -4832.6116      34.381914      2779.0475      264.14107      7953.1036      1.2638502      0.70464396   
      5800  -4797.2299     -4833.2581      36.028161      898.58355      276.78846      7896.5946      1.2728945      0.70464396   
      5900  -4796.5312     -4833.4565      36.925313      7485.8378      283.68089      7857.5542      1.2792189      0.70464396   
      6000  -4796.091      -4832.1415      36.050418      9456.4996      276.95945      7846.9429      1.2809488      0.77046502   
      6100  -4794.8722     -4830.6452      35.772936      2411.618       274.82768      7867.4169      1.2776152      0.77046502   
      6200  -4796.5538     -4832.3465      35.792634      3938.7401      274.97901      7914.1605      1.2700692      0.77046502   
      6300  -4796.9989     -4833.2375      36.238657      2395.1461      278.40561      7977.8931      1.2599231      0.77046502   
      6400  -4797.0619     -4833.0389      35.976982      3586.4469      276.39528      8037.1858      1.2506283      0.77046502   
      6500  -4796.3701     -4831.3962      35.026042     -494.69664      269.08962      8077.8232      1.2443367      0.77046502   
      6600  -4796.5524     -4832.5589      36.006503      2436.0442      276.62208      8090.9706      1.2423147      0.77046502   
      6700  -4796.1016     -4832.1398      36.038162      5387.1575      276.8653       8073.2209      1.245046       0.77046502   
      6800  -4795.4768     -4831.7274      36.250616      1647.749       278.49749      8034.803       1.2509991      0.77046502   
      6900  -4796.1522     -4832.416       36.263801      1035.6512      278.59878      7988.9593      1.2581778      0.77046502   
      7000  -4796.1613     -4832.0305      35.869202      5231.5853      275.56726      7942.3055      1.2655685      0.69711615   
      7100  -4796.4165     -4833.1764      36.75994       3817.4358      282.4104       7911.6009      1.2704801      0.69711615   
      7200  -4796.3069     -4832.8758      36.568897      5788.5022      280.9427       7897.0442      1.272822       0.69711615   
      7300  -4798.1089     -4834.2664      36.157514      9031.2531      277.78223      7895.6683      1.2730438      0.69711615   
      7400  -4797.9111     -4832.8047      34.893513      6058.3395      268.07147      7907.6717      1.2711114      0.69711615   
      7500  -4798.9164     -4833.3559      34.439435      7667.1062      264.58299      7933.5272      1.2669688      0.69711615   
      7600  -4798.7898     -4834.6004      35.810597      3467.4505      275.11702      7966.783       1.2616801      0.69711615   
      7700  -4799.7552     -4834.6924      34.937269      1837.7554      268.40762      7996.5666      1.2569809      0.69711615   
      7800  -4797.9809     -4834.0277      36.046819      4148.4321      276.93181      8014.836       1.2541157      0.69711615   
      7900  -4798.3247     -4832.654       34.32937       2417.2491      263.7374       8019.4183      1.2533991      0.69711615   
      8000  -4797.7462     -4833.3349      35.588703      2875.2397      273.4123       8007.9432      1.2551952      0.67479302   
      8100  -4798.1176     -4834.148       36.030425      93.456383      276.80586      7983.1517      1.2590932      0.67479302   
      8200  -4799.7206     -4834.8417      35.121088      1206.0304      269.81982      7951.4843      1.2641076      0.67479302   
      8300  -4799.1095     -4833.7805      34.670974      4712.9161      266.36179      7919.1184      1.2692741      0.67479302   
      8400  -4797.1438     -4833.4903      36.346505      9806.8598      279.23416      7895.3732      1.2730914      0.67479302   
      8500  -4795.9052     -4832.4382      36.533018      11726.748      280.66706      7889.0168      1.2741172      0.67479302   
      8600  -4796.225      -4833.1583      36.933393      5304.6467      283.74296      7908.9221      1.2709104      0.67479302   
      8700  -4795.5088     -4832.1942      36.685343      3036.5501      281.8373       7948.4355      1.2645925      0.67479302   
      8800  -4794.8251     -4831.5077      36.682564      476.541        281.81595      7997.2357      1.2568758      0.67479302   
      8900  -4796.2126     -4832.3339      36.121282      1828.5149      277.50387      8048.493       1.2488713      0.67479302   
      9000  -4796.8447     -4832.1968      35.352119      1395.707       271.59473      8088.5132      1.2426921      0.65273418   
      9100  -4796.709      -4831.4083      34.699234      4816.4324      266.57891      8105.8384      1.240036       0.65273418   
      9200  -4794.8826     -4832.1314      37.248782     -211.21953      286.16596      8099.954       1.2409369      0.65273418   
      9300  -4794.2822     -4830.5503      36.268174      4408.5556      278.63238      8071.3384      1.2453364      0.65273418   
      9400  -4795.4461     -4831.2013      35.75516       1559.5007      274.69112      8032.5254      1.2513539      0.65273418   
      9500  -4795.9339     -4833.1361      37.202228      2919.1967      285.80831      7986.7469      1.2585264      0.65273418   
      9600  -4794.845      -4830.837       35.991933      8256.5122      276.51014      7940.0377      1.26593        0.65273418   
      9700  -4795.0489     -4830.8342      35.785257      7318.9551      274.92234      7902.6623      1.2719172      0.65273418   
      9800  -4793.5959     -4831.5771      37.981113      4633.1905      291.79213      7881.9807      1.2752545      0.65273418   
      9900  -4793.6397     -4830.8168      37.177132      9077.07        285.6155       7886.564       1.2745134      0.65273418   
     10000  -4794.2632     -4832.443       38.179784      5274.7988      293.31844      7920.9086      1.2689872      0.67392864   
     10100  -4793.9863     -4831.1876      37.20131       5736.566       285.80125      7978.0784      1.2598938      0.67392864   
     10200  -4793.7402     -4831.4837      37.74349       3117.9339      289.96658      8044.5807      1.2494786      0.67392864   
     10300  -4794.0717     -4830.4199      36.348219     -445.45461      279.24732      8104.5634      1.2402311      0.67392864   
     10400  -4795.8406     -4831.8108      35.97024       2198.7294      276.34348      8139.7041      1.2348768      0.67392864   
     10500  -4796.3207     -4832.5411      36.220389      2215.9377      278.26527      8137.1347      1.2352667      0.67392864   
     10600  -4796.6066     -4832.0471      35.44056       3356.8081      272.27419      8094.9081      1.2417104      0.67392864   
     10700  -4797.476      -4832.4462      34.970142      3025.0752      268.66017      8019.6301      1.253366       0.67392864   
     10800  -4796.2783     -4831.4233      35.144967      3694.2652      270.00327      7933.8963      1.2669099      0.67392864   
     10900  -4796.1857     -4832.6679      36.482203      6024.0618      280.27667      7865.2015      1.2779751      0.67392864   
     11000  -4796.3121     -4831.743       35.43086       8362.6726      272.19966      7825.5958      1.284443       0.68009185   
     11100  -4796.6715     -4833.4398      36.768276      10666.222      282.47444      7820.824       1.2852267      0.68009185   
     11200  -4796.2862     -4834.066       37.779858      7055.2274      290.24598      7847.4616      1.2808641      0.68009185   
     11300  -4798.0025     -4833.497       35.494511      3458.6828      272.68867      7896.3904      1.2729274      0.68009185   
     11400  -4797.4613     -4833.169       35.707754      3389.6192      274.32692      7956.9837      1.2632339      0.68009185   
     11500  -4796.7072     -4831.6291      34.921901      1881.4136      268.28956      8013.0073      1.2544019      0.68009185   
     11600  -4795.9277     -4833.4922      37.564494      2082.9309      288.59143      8056.3443      1.2476542      0.68009185   
     11700  -4796.6157     -4831.3757      34.760059      3462.7189      267.0462       8073.855       1.2449483      0.68009185   
     11800  -4796.7748     -4831.8361      35.06124       2335.7803      269.36004      8068.0742      1.2458403      0.68009185   
     11900  -4797.2219     -4833.9539      36.731988      5249.1596      282.19565      8040.8348      1.2500607      0.68009185   
     12000  -4797.8465     -4834.5433      36.696801      3019.024       281.92533      7997.4958      1.2568349      0.7169129    
     12100  -4798.8045     -4834.2053      35.400716      4252.383       271.96808      7951.0517      1.2641764      0.7169129    
     12200  -4797.2772     -4832.7997      35.522448      7410.4191      272.9033       7911.9694      1.270421       0.7169129    
     12300  -4796.1115     -4834.0862      37.974626      8966.9498      291.74229      7888.1152      1.2742628      0.7169129    
     12400  -4797.6454     -4833.2336      35.588189      6187.2298      273.40835      7886.6991      1.2744916      0.7169129    
     12500  -4797.84       -4831.6248      33.784856      2412.4609      259.55414      7908.4576      1.2709851      0.7169129    
     12600  -4796.4824     -4831.3161      34.833726      3663.6586      267.61215      7946.0719      1.2649686      0.7169129    
     12700  -4796.9894     -4833.1013      36.111901      2710.3074      277.4318       7990.7532      1.2578954      0.7169129    
     12800  -4796.4283     -4831.4624      35.034079      3586.6334      269.15137      8031.7548      1.2514739      0.7169129    
     12900  -4796.388      -4832.0742      35.686164      5236.019       274.16105      8062.523       1.246698       0.7169129    
     13000  -4797.2964     -4832.7602      35.463741      87.564797      272.45228      8079.7446      1.2440408      0.77191054   
     13100  -4797.0364     -4832.6402      35.603827      839.72106      273.52849      8071.8746      1.2452537      0.77191054   
     13200  -4796.2733     -4831.8617      35.588387      5259.8238      273.40987      8040.0255      1.2501865      0.77191054   
     13300  -4796.8279     -4832.5784      35.750535      3940.4435      274.65558      7995.4509      1.2571563      0.77191054   
     13400  -4798.04       -4833.9706      35.93065       154.03309      276.03933      7951.6205      1.2640859      0.77191054   
     13500  -4798.1426     -4834.0198      35.877177      3111.2263      275.62852      7920.4196      1.2690656      0.77191054   
     13600  -4797.583      -4832.9132      35.330202      3772.4366      271.42635      7907.7479      1.2710992      0.77191054   
     13700  -4797.6293     -4833.8309      36.201591      3552.458       278.12085      7908.8943      1.2709149      0.77191054   
     13800  -4797.1724     -4832.8814      35.708959      5642.6424      274.33618      7923.2427      1.2686134      0.77191054   
     13900  -4797.0284     -4832.0115      34.983145      5058.8918      268.76007      7947.5108      1.2647396      0.77191054   
     14000  -4795.598      -4831.3619      35.763836      3577.9664      274.75777      7973.9057      1.2605531      0.71352941   
     14100  -4797.0099     -4832.7635      35.753535      2010.849       274.67864      7997.3164      1.2568631      0.71352941   
     14200  -4796.7703     -4833.9527      37.182354      1927.3215      285.65562      8010.6714      1.2547677      0.71352941   
     14300  -4797.3721     -4832.246       34.873858      3754.1795      267.92046      8014.8175      1.2541186      0.71352941   
     14400  -4797.4529     -4832.5835      35.130588      5752.6247      269.89281      8007.8816      1.2552048      0.71352941   
     14500  -4797.527      -4832.8967      35.369649      4963.9519      271.72941      7988.055       1.2583203      0.71352941   
     14600  -4796.0058     -4831.7254      35.71964       2343.1078      274.41824      7956.8731      1.2632515      0.71352941   
     14700  -4794.9478     -4831.9907      37.042928      7111.4171      284.58447      7925.7505      1.268212       0.71352941   
     14800  -4794.6971     -4833.2853      38.588174      9902.2017      296.45592      7907.3634      1.271161       0.71352941   
     14900  -4794.768      -4831.6373      36.86921       2115.7123      283.24987      7903.3446      1.2718073      0.71352941   
     15000  -4796.164      -4831.7991      35.635024      721.51521      273.76817      7914.5218      1.2700112      0.65963157   
     15100  -4795.3375     -4831.1894      35.851892      6174.5387      275.43427      7945.3059      1.2650906      0.65963157   
     15200  -4795.9227     -4832.358       36.435299      1332.2674      279.91633      7992.7107      1.2575873      0.65963157   
     15300  -4795.4407     -4831.1466      35.705915     -1316.184       274.31279      8037.2194      1.250623       0.65963157   
     15400  -4797.6109     -4833.2589      35.64798      -2830.7986      273.8677       8067.2917      1.2459611      0.65963157   
     15500  -4797.8503     -4833.2731      35.422759      806.49023      272.13743      8076.969       1.2444683      0.65963157   
     15600  -4796.5013     -4832.8793      36.377946      2594.7213      279.47571      8059.1168      1.247225       0.65963157   
     15700  -4796.5457     -4832.0772      35.531412      5389.0118      272.97216      8023.8739      1.2527031      0.65963157   
     15800  -4796.9315     -4833.4666      36.535139     -1373.6931      280.68335      7984.444       1.2588894      0.65963157   
     15900  -4796.0736     -4832.1024      36.028773      3292.2921      276.79316      7948.7208      1.2645471      0.65963157   
     16000  -4797.6629     -4833.6214      35.958497      1083.0765      276.25327      7925.0061      1.2683311      0.66903176   
     16100  -4797.7992     -4834.286       36.486801      5906.402       280.31199      7910.9824      1.2705794      0.66903176   
     16200  -4796.9769     -4833.0412      36.064266      10104.635      277.06584      7910.7542      1.2706161      0.66903176   
     16300  -4796.8411     -4833.2867      36.445632      6388.117       279.99571      7925.8053      1.2682032      0.66903176   
     16400  -4797.6337     -4831.903       34.269342      5977.9536      263.27624      7949.1805      1.264474       0.66903176   
     16500  -4798.199      -4834.6058      36.406864      3712.8571      279.69787      7981.8055      1.2593055      0.66903176   
     16600  -4799.5064     -4834.2219      34.715481      5334.4497      266.70372      8013.7437      1.2542866      0.66903176   
     16700  -4799.5578     -4833.5333      33.975517      5191.3174      261.01891      8036.9359      1.2506671      0.66903176   
     16800  -4798.4668     -4833.0639      34.597088      4255.8607      265.79416      8046.1963      1.2492278      0.66903176   
     16900  -4797.5999     -4833.5839      35.984048      1469.2162      276.44956      8038.2185      1.2504676      0.66903176   
     17000  -4798.6678     -4832.9151      34.247347      4808.5275      263.10726      8011.7366      1.2546009      0.71635202   
     17100  -4798.3231     -4833.4468      35.123682      8868.3626      269.83975      7977.4466      1.2599936      0.71635202   
     17200  -4798.5602     -4834.2338      35.673577      5679.5387      274.06435      7941.1362      1.2657549      0.71635202   
     17300  -4797.2288     -4833.1242      35.895395      7882.1208      275.76848      7910.0885      1.270723       0.71635202   
     17400  -4797.7588     -4833.1744      35.415648      5798.8927      272.0828       7896.063       1.2729802      0.71635202   
     17500  -4796.42       -4832.3973      35.977251      2907.7485      276.39734      7898.9416      1.2725163      0.71635202   
     17600  -4797.1248     -4831.702       34.577134      3261.72        265.64086      7917.9226      1.2694658      0.71635202   
     17700  -4796.8905     -4833.5245      36.634053      5192.8073      281.44327      7947.619       1.2647224      0.71635202   
     17800  -4795.8883     -4833.4746      37.586344      5581.7273      288.7593       7981.251       1.259393       0.71635202   
     17900  -4795.807      -4831.5013      35.694345      1380.8346      274.2239       8013.4345      1.254335       0.71635202   
     18000  -4795.9239     -4833.6503      37.726405      1394.1098      289.83532      8038.7413      1.2503863      0.66785828   
     18100  -4796.0583     -4831.9893      35.930958      4452.1758      276.04169      8048.2207      1.2489135      0.66785828   
     18200  -4795.2694     -4832.3773      37.107885      5618.1772      285.08351      8040.3906      1.2501298      0.66785828   
     18300  -4794.8241     -4830.9101      36.08604       8761.2132      277.23312      8021.3816      1.2530923      0.66785828   
     18400  -4796.4639     -4830.9988      34.534893      4133.1856      265.31634      7998.3342      1.2567031      0.66785828   
     18500  -4796.2213     -4833.4354      37.214173      5281.0008      285.90007      7972.9121      1.2607102      0.66785828   
     18600  -4797.2563     -4832.9794      35.723113      6046.9019      274.44492      7951.9895      1.2640273      0.66785828   
     18700  -4798.4466     -4833.1381      34.69155       4305.169       266.51987      7938.5323      1.26617        0.66785828   
     18800  -4797.8742     -4833.0409      35.166686      5444.8151      270.17014      7932.0066      1.2672117      0.66785828   
     18900  -4796.6294     -4832.7111      36.081695      6918.0874      277.19974      7936.637       1.2664724      0.66785828   
     19000  -4798.6988     -4833.3587      34.659938      4828.0143      266.27701      7959.5573      1.2628255      0.67753078   
     19100  -4799.5818     -4835.4106      35.828791      2821.7648      275.25679      7990.8768      1.2578759      0.67753078   
     19200  -4799.3693     -4834.0334      34.664138      3907.2896      266.30927      8018.98        1.2534676      0.67753078   
     19300  -4798.1665     -4833.1168      34.95033       3465.3406      268.50797      8033.7264      1.2511668      0.67753078   
     19400  -4798.4979     -4834.1901      35.692242      5963.9283      274.20775      8033.7445      1.251164       0.67753078   
     19500  -4799.7024     -4833.5848      33.882425      5213.3118      260.30372      8021.0057      1.253151       0.67753078   
     19600  -4800.8775     -4835.0759      34.198477      4996.7572      262.73181      7991.7741      1.2577347      0.67753078   
     19700  -4800.7075     -4833.8426      33.135072      5301.4496      254.56214      7951.8792      1.2640448      0.67753078   
     19800  -4799.679      -4834.8967      35.217719      4593.0633      270.5622       7918.2769      1.269409       0.67753078   
     19900  -4799.4744     -4834.0335      34.559058      4753.3756      265.50199      7896.4677      1.2729149      0.67753078   
     20000  -4798.4924     -4832.8683      34.375808      5402.9543      264.09417      7894.7331      1.2731946      0.68803967   
     20100  -4798.6227     -4834.0124      35.389746      2442.5512      271.88381      7917.3084      1.2695642      0.68803967   
     20200  -4796.3971     -4832.4254      36.028248      2975.5524      276.78913      7953.305       1.2638182      0.68803967   
     20300  -4798.3577     -4832.764       34.406262      4028.5959      264.32813      7996.3759      1.2570109      0.68803967   
     20400  -4797.8263     -4832.4618      34.635494      4144.5123      266.08921      8034.519       1.2510434      0.68803967   
     20500  -4797.0091     -4832.9005      35.891376      6951.0127      275.7376       8056.1334      1.2476868      0.68803967   
     20600  -4797.1607     -4833.6283      36.467604      2133.7166      280.16451      8061.2332      1.2468975      0.68803967   
     20700  -4797.0816     -4832.2372      35.155632      6583.504       270.08521      8046.0088      1.2492569      0.68803967   
     20800  -4795.9141     -4832.314       36.399935      3884.1976      279.64464      8021.6689      1.2530474      0.68803967   
     20900  -4795.4776     -4831.8946      36.416952      6256.0843      279.77537      7992.2331      1.2576625      0.68803967   
     21000  -4796.6901     -4832.8328      36.142756      6816.3326      277.66885      7962.5182      1.2623559      0.74865968   
     21100  -4796.1326     -4833.04        36.907426      5379.0978      283.54347      7936.4176      1.2665074      0.74865968   
     21200  -4797.433      -4834.0187      36.585727      5353.471       281.072        7915.9902      1.2697757      0.74865968   
     21300  -4797.8852     -4833.4445      35.559378      7493.0586      273.18701      7909.1628      1.2708718      0.74865968   
     21400  -4797.6493     -4832.2549      34.605592      6114.0282      265.85949      7918.3952      1.26939        0.74865968   
     21500  -4798.0202     -4832.6966      34.676338      3166.0817      266.403        7945.0138      1.2651371      0.74865968   
     21600  -4796.8669     -4832.018       35.151072      2226.4374      270.05018      7981.3373      1.2593794      0.74865968   
     21700  -4796.42       -4832.0292      35.609178      321.16181      273.5696       8013.5187      1.2543219      0.74865968   
     21800  -4796.0102     -4831.8483      35.838046      898.97826      275.32789      8032.6813      1.2513296      0.74865968   
     21900  -4796.4646     -4832.5874      36.122845      1153.7573      277.51588      8037.6377      1.2505579      0.74865968   
     22000  -4796.1413     -4831.767       35.625663      2848.0429      273.69625      8031.8167      1.2514643      0.70167056   
     22100  -4795.3934     -4831.2865      35.893194      5299.1461      275.75157      8015.6009      1.253996       0.70167056   
     22200  -4795.8024     -4831.4227      35.62034       5283.1048      273.65535      7993.4176      1.2574761      0.70167056   
     22300  -4794.0706     -4831.3275      37.256872      6372.7402      286.22811      7974.1962      1.2605072      0.70167056   
     22400  -4794.1165     -4831.324       37.207552      7883.8617      285.84921      7961.4277      1.2625288      0.70167056   
     22500  -4795.3418     -4831.7079      36.366167      2717.5241      279.38521      7958.2259      1.2630367      0.70167056   
     22600  -4795.112      -4832.49        37.37799       3033.1525      287.1586       7962.7873      1.2623132      0.70167056   
     22700  -4795.1104     -4832.5535      37.443137      3341.244       287.6591       7968.7737      1.2613649      0.70167056   
     22800  -4795.9109     -4832.171       36.260068      3935.7173      278.5701       7972.4095      1.2607897      0.70167056   
     22900  -4795.8465     -4832.306       36.45947       5291.112       280.10202      7975.3754      1.2603208      0.70167056   
     23000  -4796.1846     -4831.8979      35.713259      1147.4915      274.36921      7981.0262      1.2594285      0.65090773   
     23100  -4796.8065     -4833.3871      36.580644      4377.9753      281.03295      7987.5982      1.2583922      0.65090773   
     23200  -4796.9481     -4832.8266      35.878436      1524.7994      275.6382       7987.2217      1.2584516      0.65090773   
     23300  -4797.0054     -4833.0775      36.072144      2387.9277      277.12637      7980.8589      1.2594549      0.65090773   
     23400  -4796.7995     -4832.6425      35.843033      4135.3186      275.36621      7967.4235      1.2615787      0.65090773   
     23500  -4797.8098     -4833.6749      35.865042      4358.8886      275.53529      7957.501       1.2631518      0.65090773   
     23600  -4797.999      -4833.4666      35.467636      4538.8703      272.4822       7950.4851      1.2642665      0.65090773   
     23700  -4796.8719     -4832.561       35.689166      3874.3816      274.18411      7950.2996      1.264296       0.65090773   
     23800  -4797.154      -4831.9148      34.760751      5275.898       267.05151      7954.2345      1.2636705      0.65090773   
     23900  -4797.5753     -4833.7412      36.165899      4756.985       277.84665      7966.6196      1.261706       0.65090773   
     24000  -4797.7685     -4833.4159      35.64746       6769.6611      273.8637       7981.3404      1.2593789      0.65638241   
     24100  -4797.6836     -4833.4655      35.781821      673.1579       274.89594      7989.5776      1.2580805      0.65638241   
     24200  -4797.9015     -4832.6577      34.75616       5989.1179      267.01624      7986.5593      1.2585559      0.65638241   
     24300  -4798.0247     -4833.0239      34.999175      6815.9358      268.88322      7976.6278      1.2601229      0.65638241   
     24400  -4797.6497     -4832.7757      35.126002      5727.8886      269.85758      7961.5665      1.2625068      0.65638241   
     24500  -4798.4541     -4832.4671      34.012939      5278.5918      261.3064       7944.9624      1.2651453      0.65638241   
     24600  -4797.7093     -4832.5142      34.804906      4466.5535      267.39073      7931.6542      1.267268       0.65638241   
     24700  -4797.6133     -4833.8639      36.250605      4332.1732      278.4974       7924.4621      1.2684182      0.65638241   
     24800  -4798.2        -4834.4539      36.253936      3059.5883      278.52299      7924.7225      1.2683765      0.65638241   
     24900  -4797.6806     -4832           34.319353      3938.6422      263.66044      7929.3478      1.2676366      0.65638241   
     25000  -4798.1796     -4833.1397      34.960086      5312.4918      268.58291      7941.8274      1.2656447      0.77260502   
     25100  -4797.877      -4834.2625      36.385499      5515.5976      279.53373      7960.0717      1.2627439      0.77260502   
     25200  -4797.5722     -4832.7869      35.214679      6227.9162      270.53884      7979.3026      1.2597005      0.77260502   
     25300  -4797.5272     -4832.4645      34.937282      2115.2514      268.40773      7994.9785      1.2572306      0.77260502   
     25400  -4796.1233     -4831.4157      35.292375      4314.9976      271.13574      8002.7058      1.2560166      0.77260502   
     25500  -4796.0811     -4833.0861      37.005053     -1650.0013      284.29349      8006.7754      1.2553782      0.77260502   
     25600  -4796.0321     -4831.9869      35.954855      844.83799      276.22529      8004.0346      1.2558081      0.77260502   
     25700  -4796.4567     -4833.1458      36.689108      1830.3126      281.86623      7992.7732      1.2575775      0.77260502   
     25800  -4794.883      -4830.3347      35.451721      4884.3256      272.35993      7974.4051      1.2604742      0.77260502   
     25900  -4793.7411     -4830.2762      36.535114      3064.8909      280.68316      7956.6058      1.2632939      0.77260502   
     26000  -4795.4401     -4831.5471      36.107008      3435.3022      277.39421      7943.958       1.2653052      0.67527698   
     26100  -4795.2854     -4832.537       37.251647      3786.1182      286.18797      7941.4148      1.2657105      0.67527698   
     26200  -4795.0214     -4831.605       36.583566      4862.6523      281.05539      7948.8962      1.2645192      0.67527698   
     26300  -4795.3532     -4830.9511      35.597886      3996.272       273.48285      7964.4593      1.2620482      0.67527698   
     26400  -4795.7678     -4831.2573      35.489496      3995.5475      272.65014      7982.8714      1.2591374      0.67527698   
     26500  -4795.8085     -4832.9359      37.127406      5955.4315      285.23348      7997.8497      1.2567793      0.67527698   
     26600  -4795.4501     -4831.7455      36.295396      906.1306       278.84151      8002.5686      1.2560382      0.67527698   
     26700  -4795.2096     -4831.0379      35.828322      17.798831      275.25319      7996.9017      1.2569283      0.67527698   
     26800  -4795.2274     -4831.4525      36.225132      6188.2391      278.30171      7986.4573      1.258572       0.67527698   
     26900  -4796.2451     -4832.7211      36.476014      6527.1504      280.22912      7977.959       1.2599127      0.67527698   
     27000  -4795.5143     -4832.2244      36.710097      3643.7605      282.02748      7970.0263      1.2611667      0.72929948   
     27100  -4795.4821     -4831.1477      35.665609      1310.9354      274.00314      7967.057       1.2616367      0.72929948   
     27200  -4794.6651     -4831.1305      36.465349      1806.9264      280.14719      7969.4672      1.2612552      0.72929948   
     27300  -4793.8671     -4831.2307      37.363516      5562.3645      287.04741      7977.1739      1.2600367      0.72929948   
     27400  -4794.7009     -4831.0546      36.35373       5116.3925      279.28967      7984.8094      1.2588318      0.72929948   
     27500  -4795.3615     -4831.2248      35.863284      7067.9042      275.52179      7990.7904      1.2578895      0.72929948   
     27600  -4795.7773     -4831.4381      35.660833      2108.1331      273.96645      7996.6648      1.2569655      0.72929948   
     27700  -4796.4393     -4831.9311      35.49172       6414.3117      272.66723      7998.323       1.2567049      0.72929948   
     27800  -4797.1174     -4832.3852      35.267786      6684.831       270.94683      7993.4535      1.2574705      0.72929948   
     27900  -4797.6876     -4832.4783      34.790687      2520.5657      267.28149      7981.6124      1.259336       0.72929948   
     28000  -4797.0719     -4832.4504      35.378426      1210.8586      271.79683      7965.9812      1.2618071      0.66189867   
     28100  -4795.7054     -4832.2194      36.513989      2365.4719      280.52086      7952.23        1.2639891      0.66189867   
     28200  -4796.845      -4831.9402      35.09521       7553.9272      269.62101      7940.6681      1.2658295      0.66189867   
     28300  -4796.5421     -4832.3308      35.788783      5857.1336      274.94943      7937.6598      1.2663092      0.66189867   
     28400  -4796.7616     -4832.6837      35.922084      5173.0554      275.97352      7946.4684      1.2649055      0.66189867   
     28500  -4797.214      -4834.7755      37.561504      6874.3422      288.56846      7963.4132      1.262214       0.66189867   
     28600  -4797.6178     -4832.9981      35.380227      5879.7675      271.81067      7978.0501      1.2598983      0.66189867   
     28700  -4797.5859     -4832.4979      34.911946      6223.9675      268.21308      7987.9691      1.2583338      0.66189867   
     28800  -4797.7026     -4831.6398      33.937178      3970.5345      260.72436      7994.8332      1.2572535      0.66189867   
     28900  -4797.1451     -4831.9624      34.817248      753.33248      267.48555      7998.4729      1.2566813      0.66189867   
     29000  -4796.9459     -4833.1568      36.210867      6436.9315      278.19212      7997.2233      1.2568777      0.65243992   
     29100  -4797.0648     -4832.3613      35.296443      3498.0311      271.16699      7993.5558      1.2574544      0.65243992   
     29200  -4795.5184     -4832.5085      36.990104      1714.1274      284.17865      7987.5253      1.2584037      0.65243992   
     29300  -4796.8619     -4832.956       36.094117      930.88284      277.29518      7976.2485      1.2601829      0.65243992   
     29400  -4797.3179     -4834.7068      37.388848      4493.2071      287.24202      7964.4678      1.2620469      0.65243992   
     29500  -4797.7139     -4832.4655      34.751601      6884.8537      266.98122      7954.6269      1.2636082      0.65243992   
     29600  -4799.0638     -4833.8256      34.761793      5830.2978      267.05952      7948.6772      1.264554       0.65243992   
     29700  -4798.9053     -4834.2556      35.350348      4343.0877      271.58112      7947.4384      1.2647511      0.65243992   
     29800  -4797.5067     -4833.6248      36.118109      3537.8168      277.4795       7945.8507      1.2650039      0.65243992   
     29900  -4797.3703     -4832.5814      35.211048      5563.7048      270.51094      7946.0181      1.2649772      0.65243992   
     30000  -4798.693      -4832.2205      33.527483      2585.7372      257.57686      7949.0569      1.2644936      0.7154177    
     30100  -4797.859      -4832.3772      34.518131      5082.6075      265.18757      7955.5115      1.2634677      0.7154177    
     30200  -4797.5115     -4832.778       35.266422      6507.7472      270.93636      7963.1971      1.2622483      0.7154177    
     30300  -4798.3251     -4832.6894      34.364294      5175.3124      264.00571      7972.5459      1.2607681      0.7154177    
     30400  -4798.2169     -4833.9955      35.778583      6724.7749      274.87107      7980.8535      1.2594557      0.7154177    
     30500  -4797.4642     -4833.1192      35.654968      4805.348       273.92139      7985.4431      1.2587319      0.7154177    
     30600  -4797.3076     -4832.4463      35.138655      4880.3591      269.95478      7989.565       1.2580825      0.7154177    
     30700  -4797.3495     -4832.1336      34.784073      3492.004       267.23069      7983.3798      1.2590572      0.7154177    
     30800  -4798.3455     -4833.0657      34.720221      1823.7463      266.74014      7968.6402      1.2613861      0.7154177    
     30900  -4797.4114     -4833.6332      36.221766      587.68397      278.27584      7950.901       1.2642003      0.7154177    
     31000  -4797.8771     -4832.8305      34.953359      4766.9638      268.53123      7932.8699      1.2670738      0.74084611   
     31100  -4797.0083     -4831.8473      34.83897       4638.6762      267.65244      7919.9234      1.2691451      0.74084611   
     31200  -4797.4458     -4833.724       36.278261      5183.1499      278.70987      7918.5882      1.2693591      0.74084611   
     31300  -4797.3203     -4832.5318      35.21151       7176.4303      270.5145       7927.4391      1.2679418      0.74084611   
     31400  -4797.8381     -4833.3414      35.503314      6440.4328      272.7563       7944.7034      1.2651865      0.74084611   
     31500  -4798.1419     -4833.1587      35.016714      4624.2977      269.01797      7962.9622      1.2622855      0.74084611   
     31600  -4799.1562     -4832.8452      33.688969      4534.2488      258.81748      7975.5984      1.2602856      0.74084611   
     31700  -4798.6796     -4833.7654      35.085863      4101.3401      269.5492       7982.7294      1.2591598      0.74084611   
     31800  -4797.8399     -4832.6579      34.817997      2450.0605      267.49131      7980.5455      1.2595043      0.74084611   
     31900  -4798.5965     -4834.6731      36.076624      3275.1046      277.16078      7971.9153      1.2608679      0.74084611   
     32000  -4797.5862     -4833.0705      35.484357      3955.1828      272.61066      7960.6111      1.2626583      0.72336066   
     32100  -4797.5735     -4833.0727      35.499139      3479.405       272.72422      7956.1818      1.2633612      0.72336066   
     32200  -4797.3749     -4834.1702      36.795342      5039.6856      282.68238      7954.9391      1.2635586      0.72336066   
     32300  -4798.1974     -4833.5913      35.393911      6434.7413      271.9158       7956.8071      1.263262       0.72336066   
     32400  -4797.9019     -4833.2229      35.320963      3596.2042      271.35537      7963.041       1.262273       0.72336066   
     32500  -4797.7609     -4833.3961      35.63522       4635.3894      273.76967      7971.842       1.2608794      0.72336066   
     32600  -4797.2871     -4833.5368      36.2497        6515.5538      278.49045      7979.0088      1.2597469      0.72336066   
     32700  -4797.386      -4832.823       35.436991      5056.2258      272.24676      7983.3242      1.259066       0.72336066   
     32800  -4798.2781     -4832.846       34.567981      5199.4628      265.57054      7989.6532      1.2580686      0.72336066   
     32900  -4797.2246     -4832.6389      35.414264      3799.8676      272.07216      7996.685       1.2569623      0.72336066   
     33000  -4796.7059     -4833.176       36.470103      2421.5294      280.18371      7999.1855      1.2565694      0.69173595   
     33100  -4797.1056     -4834.3276      37.221934      3248.4935      285.9597       7991.841       1.2577242      0.69173595   
     33200  -4796.9355     -4831.7165      34.781085      7557.1467      267.20773      7977.5014      1.259985       0.69173595   
     33300  -4795.5995     -4833.4219      37.822436      2983.4919      290.57308      7962.824       1.2623074      0.69173595   
     33400  -4794.8287     -4831.9375      37.108788      5323.1897      285.09045      7950.4491      1.2642722      0.69173595   
     33500  -4794.6797     -4832.4957      37.815986      4082.0411      290.52354      7947.4402      1.2647508      0.69173595   
     33600  -4794.3204     -4830.8323      36.511875      6680.9241      280.50463      7956.27        1.2633472      0.69173595   
     33700  -4794.4452     -4831.6064      37.161157      6229.8355      285.49278      7973.3549      1.2606402      0.69173595   
     33800  -4795.1865     -4831.9491      36.762558      6339.3773      282.43051      7996.3531      1.2570145      0.69173595   
     33900  -4797.1852     -4832.5045      35.319262      4093.9872      271.34231      8016.6177      1.253837       0.69173595   
     34000  -4796.7728     -4831.3027      34.529965      1719.0273      265.27849      8028.2612      1.2520185      0.6346665    
     34100  -4797.4728     -4833.5176      36.044796      4445.8616      276.91626      8026.8431      1.2522397      0.6346665    
     34200  -4796.233      -4832.1237      35.890612      2983.3313      275.73173      8013.3811      1.2543434      0.6346665    
     34300  -4796.6138     -4831.7526      35.138816      5140.1576      269.95602      7996.5966      1.2569762      0.6346665    
     34400  -4795.5408     -4831.7237      36.182878      4477.4942      277.97709      7977.3291      1.2600122      0.6346665    
     34500  -4795.0968     -4832.6016      37.504824      3466.1052      288.13301      7958.4031      1.2630086      0.6346665    
     34600  -4794.3668     -4832.0143      37.647503      6472.9548      289.22916      7943.7524      1.265338       0.6346665    
     34700  -4793.9245     -4831.5093      37.58479       6284.0079      288.74735      7941.8555      1.2656402      0.6346665    
     34800  -4795.1374     -4831.3288      36.191475      4042.0663      278.04313      7954.5972      1.2636129      0.6346665    
     34900  -4795.1874     -4830.9332      35.745815      2534.4057      274.61932      7976.6271      1.260123       0.6346665    
     35000  -4795.8419     -4832.8186      36.97671       4733.0259      284.07575      7998.6033      1.2566609      0.6838401    
     35100  -4796.4649     -4833.3734      36.908492      3685.4129      283.55166      8011.9404      1.2545689      0.6838401    
     35200  -4797.6605     -4832.8209      35.160476      3165.7812      270.12242      8017.097       1.253762       0.6838401    
     35300  -4797.0295     -4832.3762      35.346668      3804.0019      271.55285      8012.3697      1.2545017      0.6838401    
     35400  -4796.8967     -4832.6846      35.787918      2215.6879      274.94278      8000.9324      1.256295       0.6838401    
     35500  -4795.7872     -4832.1287      36.341537      1848.8712      279.19599      7982.859       1.2591393      0.6838401    
     35600  -4795.1456     -4831.2584      36.112726      7364.8208      277.43814      7962.066       1.2624276      0.6838401    
     35700  -4794.8843     -4831.5527      36.668464      7092.0876      281.70763      7944.7683      1.2651762      0.6838401    
     35800  -4794.9435     -4831.3378      36.394292      5142.4928      279.60129      7933.4343      1.2669837      0.6838401    
     35900  -4795.4674     -4832.6213      37.153891      5037.2718      285.43695      7928.0073      1.267851       0.6838401    
     36000  -4795.279      -4831.4775      36.198574      3239.139       278.09767      7937.4293      1.266346       0.67165985   
     36100  -4794.6611     -4831.8946      37.233554      1403.8511      286.04897      7962.4623      1.2623647      0.67165985   
     36200  -4793.6746     -4831.8287      38.154103      5223.3005      293.12114      7996.7443      1.256953       0.67165985   
     36300  -4792.65       -4830.1484      37.498383      4595.0274      288.08353      8035.1848      1.2509397      0.67165985   
     36400  -4793.4062     -4830.887       37.480869      3497.242       287.94898      8067.9161      1.2458647      0.67165985   
     36500  -4794.9465     -4831.8486      36.90209       1520.4546      283.50247      8082.2771      1.243651       0.67165985   
     36600  -4795.1101     -4830.3988      35.288708      3307.1985      271.10757      8069.1801      1.2456695      0.67165985   
     36700  -4794.6081     -4832.1068      37.498695      4225.2121      288.08593      8038.9827      1.2503487      0.67165985   
     36800  -4795.8232     -4832.0581      36.234941      408.37581      278.37707      8001.2696      1.2562421      0.67165985   
     36900  -4796.9759     -4832.5781      35.602221      7774.9272      273.51615      7962.5049      1.262358       0.67165985   
     37000  -4797.5566     -4833.5535      35.99697       7783.9905      276.54883      7927.1269      1.2679918      0.68391501   
     37100  -4797.7847     -4833.2467      35.461938      4247.7851      272.43843      7904.5002      1.2716214      0.68391501   
     37200  -4796.3903     -4833.178       36.787705      3779.4095      282.62371      7895.1279      1.2731309      0.68391501   
     37300  -4797.7793     -4833.0617      35.282354      5321.6839      271.05876      7903.221       1.2718272      0.68391501   
     37400  -4796.8183     -4833.9854      37.167092      5901.5337      285.53837      7924.224       1.2684563      0.68391501   
     37500  -4796.6894     -4833.4212      36.731762      4677.5417      282.19392      7954.6146      1.2636101      0.68391501   
     37600  -4796.6179     -4832.3878      35.769862      4725.8207      274.80407      7989.6823      1.258064       0.68391501   
     37700  -4797.0606     -4833.0729      36.012346      3445.0987      276.66697      8027.9694      1.252064       0.68391501   
     37800  -4796.7946     -4831.2935      34.498897      2322.8149      265.0398       8058.5846      1.2473073      0.68391501   
     37900  -4796.3806     -4833.0149      36.634264      958.01925      281.44488      8068.0442      1.2458449      0.68391501   
     38000  -4797.4996     -4833.5353      36.035616      4020.053       276.84574      8053.5998      1.2480794      0.67250423   
     38100  -4795.8254     -4831.5797      35.754286      4844.9944      274.6844       8021.6104      1.2530566      0.67250423   
     38200  -4797.5368     -4832.7545      35.217727      5609.9712      270.56225      7982.6994      1.2591645      0.67250423   
     38300  -4797.9906     -4833.2306      35.239909      4264.2532      270.73267      7947.0697      1.2648098      0.67250423   
     38400  -4797.39       -4833.1729      35.782884      3975.5906      274.90411      7919.4195      1.2692258      0.67250423   
     38500  -4797.311      -4832.4988      35.187877      1698.0138      270.33293      7901.562       1.2720943      0.67250423   
     38600  -4795.4404     -4832.2813      36.840912      4068.2743      283.03247      7897.056       1.2728201      0.67250423   
     38700  -4794.64       -4831.4929      36.8529        5516.69        283.12457      7912.6656      1.2703092      0.67250423   
     38800  -4795.3772     -4830.9583      35.581171      7898.7924      273.35444      7947.1698      1.2647939      0.67250423   
     38900  -4795.2289     -4832.3302      37.101282      2246.5201      285.03278      7987.7289      1.2583717      0.67250423   
     39000  -4795.9345     -4833.1957      37.261199      1387.6371      286.26135      8022.2197      1.2529614      0.65726253   
     39100  -4794.7643     -4832.1728      37.408495      793.27631      287.39296      8045.3749      1.2493553      0.65726253   
     39200  -4795.1198     -4830.1308      35.010977      3183.7495      268.97389      8054.7177      1.2479061      0.65726253   
     39300  -4795.2293     -4830.6778      35.448517      1531.2139      272.33532      8055.2695      1.2478207      0.65726253   
     39400  -4795.0966     -4832.3313      37.234686      2680.6517      286.05766      8042.9967      1.2497247      0.65726253   
     39500  -4796.0772     -4832.3574      36.280181      3108.3589      278.72462      8015.6779      1.253984       0.65726253   
     39600  -4795.6843     -4831.9338      36.249443      3071.8975      278.48848      7980.2668      1.2595483      0.65726253   
     39700  -4795.6331     -4832.2315      36.598439      2685.6299      281.16966      7944.0754      1.2652865      0.65726253   
     39800  -4795.9524     -4832.0168      36.064369      2641.8022      277.06664      7915.852       1.2697978      0.65726253   
     39900  -4795.589      -4830.9617      35.372772      2528.0368      271.7534       7905.8076      1.2714111      0.65726253   
     40000  -4796.8126     -4832.8727      36.060132      6144.9689      277.03409      7913.4155      1.2701888      0.66475489   
     40100  -4797.8902     -4833.9435      36.053281      2187.7546      276.98145      7935.3779      1.2666733      0.66475489   
     40200  -4797.1453     -4832.093       34.947692      3989.4319      268.4877       7965.2279      1.2619264      0.66475489   
     40300  -4796.9519     -4833.1639      36.212003      4446.9617      278.20084      8001.3876      1.2562236      0.66475489   
     40400  -4796.1927     -4832.8039      36.611203      4428.013       281.26772      8032.3905      1.2513749      0.66475489   
     40500  -4796.6953     -4833.2127      36.517385      3412.2467      280.54696      8052.5554      1.2482412      0.66475489   
     40600  -4795.7519     -4831.9484      36.196472      2433.1687      278.08152      8050.874       1.2485019      0.66475489   
     40700  -4795.037      -4831.5561      36.519021      1978.7464      280.55952      8029.4199      1.2518378      0.66475489   
     40800  -4795.6051     -4832.0125      36.407376      1526.7761      279.7018       8003.1345      1.2559494      0.66475489   
     40900  -4796.7357     -4832.7335      35.997766      3966.1759      276.55496      7976.2844      1.2601772      0.66475489   
     41000  -4797.5041     -4832.7858      35.281707      6677.091       271.05379      7946.7643      1.2648584      0.60846894   
     41100  -4797.9229     -4833.8756      35.952684      5215.3668      276.20861      7921.9698      1.2688172      0.60846894   
     41200  -4798.8462     -4834.4645      35.618278      4658.1114      273.63951      7899.968       1.2723509      0.60846894   
     41300  -4798.8145     -4833.1297      34.31526       4717.0638      263.629        7888.178       1.2742527      0.60846894   
     41400  -4799.2889     -4834.9824      35.693479      3167.0072      274.21725      7894.4934      1.2732333      0.60846894   
     41500  -4799.4526     -4834.0495      34.596861      4499.765       265.79242      7914.2388      1.2700567      0.60846894   
     41600  -4798.7062     -4834.8464      36.140286      4529.8426      277.64987      7943.1815      1.2654289      0.60846894   
     41700  -4798.4076     -4833.825       35.417436      2890.5523      272.09653      7973.9982      1.2605385      0.60846894   
     41800  -4798.816      -4834.6204      35.804355      1904.7049      275.06906      8002.9487      1.2559785      0.60846894   
     41900  -4798.8264     -4832.7894      33.962973     -462.35103      260.92253      8021.4116      1.2530876      0.60846894   
     42000  -4797.204      -4833.6426      36.438604     -400.77699      279.94171      8025.4238      1.2524612      0.69844841   
     42100  -4797.4988     -4832.0142      34.515466      3810.312       265.1671       8016.7259      1.2538201      0.69844841   
     42200  -4798.3004     -4834.3302      36.029819      2864.747       276.8012       7997.1267      1.2568929      0.69844841   
     42300  -4799.4907     -4833.4551      33.964454      5503.1443      260.93391      7966.2347      1.261767       0.69844841   
     42400  -4799.0798     -4833.9343      34.854549      3337.7455      267.77212      7935.8519      1.2665977      0.69844841   
     42500  -4797.7096     -4835.1163      37.406671      6624.1258      287.37895      7911.3699      1.2705172      0.69844841   
     42600  -4797.1899     -4833.3342      36.144349      7408.0313      277.68108      7901.0383      1.2721786      0.69844841   
     42700  -4797.521      -4832.9502      35.42918       5858.4757      272.18676      7908.449       1.2709865      0.69844841   
     42800  -4796.1038     -4831.9949      35.891112      7956.7494      275.73558      7932.6209      1.2671136      0.69844841   
     42900  -4797.967      -4831.9519      33.984946      4138.1143      261.09135      7968.085       1.261474       0.69844841   
     43000  -4798.5171     -4832.2815      33.7644        2148.4697      259.39699      8000.7342      1.2563262      0.62900609   
     43100  -4797.1055     -4832.7822      35.676636      1376.9728      274.08786      8026.1405      1.2523493      0.62900609   
     43200  -4796.7337     -4832.1534      35.419698      3643.6306      272.11391      8037.4708      1.2505839      0.62900609   
     43300  -4796.0517     -4831.5484      35.496737      1833.9297      272.70577      8034.3104      1.2510758      0.62900609   
     43400  -4796.9507     -4833.5816      36.630915      1240.1095      281.41916      8022.0431      1.252989       0.62900609   
     43500  -4796.0937     -4832.7361      36.642387      3147.4509      281.50729      8001.501       1.2562058      0.62900609   
     43600  -4794.3685     -4830.8165      36.447971      4912.4294      280.01368      7979.2381      1.2597107      0.62900609   
     43700  -4795.1642     -4832.7069      37.542657      7329.7255      288.42367      7965.7247      1.2618477      0.62900609   
     43800  -4795.7941     -4832.878       37.083927      2049.2132      284.89944      7956.923       1.2632436      0.62900609   
     43900  -4796.8555     -4832.8937      36.038192      1264.863       276.86553      7955.2708      1.2635059      0.62900609   
     44000  -4796.2892     -4832.722       36.43283       5709.1173      279.89736      7960.2762      1.2627114      0.67086815   
     44100  -4796.5048     -4832.1775      35.672779      5681.5441      274.05822      7972.2476      1.2608153      0.67086815   
     44200  -4798.0345     -4833.4744      35.43995       6158.1358      272.2695       7989.6176      1.2580742      0.67086815   
     44300  -4797.1604     -4832.894       35.733627      4954.0493      274.52569      8003.4374      1.2559018      0.67086815   
     44400  -4797.7994     -4832.3408      34.541387      1723.7944      265.36624      8006.993       1.2553441      0.67086815   
     44500  -4797.0792     -4831.8095      34.730218      3447.8498      266.81694      7996.046       1.2570628      0.67086815   
     44600  -4796.9779     -4832.7469      35.769         5844.0139      274.79744      7975.2039      1.2603479      0.67086815   
     44700  -4796.5155     -4832.0639      35.548399      4605.3172      273.10267      7949.5814      1.2644102      0.67086815   
     44800  -4796.2999     -4831.4699      35.170039      5054.5801      270.19589      7932.1031      1.2671963      0.67086815   
     44900  -4795.6547     -4832.8769      37.222192      5279.7288      285.96168      7926.6271      1.2680717      0.67086815   
     45000  -4796.4374     -4832.866       36.428614      1525.1468      279.86497      7932.8139      1.2670828      0.70024014   
     45100  -4795.4078     -4831.9124      36.504606      3209.6348      280.44878      7949.131       1.2644818      0.70024014   
     45200  -4795.5693     -4832.9252      37.355896      5112.0056      286.98886      7970.4402      1.2611012      0.70024014   
     45300  -4795.4592     -4831.8524      36.393222      3670.7456      279.59306      7994.6007      1.25729        0.70024014   
     45400  -4797.3244     -4831.7924      34.468021      3877.8004      264.80259      8014.7305      1.2541322      0.70024014   
     45500  -4797.5013     -4833.4237      35.922415      1692.5276      275.97606      8025.0416      1.2525208      0.70024014   
     45600  -4797.1475     -4831.984       34.836437      670.71379      267.63298      8021.8476      1.2530195      0.70024014   
     45700  -4797.3144     -4832.2632      34.948795      2925.6342      268.49617      8011.6986      1.2546068      0.70024014   
     45800  -4797.4212     -4833.5042      36.083013      7339.8798      277.20987      7995.13        1.2572068      0.70024014   
     45900  -4797.0035     -4832.9043      35.900824      4533.0566      275.81019      7973.5403      1.2606109      0.70024014   
     46000  -4797.8995     -4834.0607      36.1612        866.67347      277.81054      7958.8374      1.2629397      0.64140642   
     46100  -4796.8701     -4832.2516      35.381571      3209.2788      271.821        7946.8493      1.2648449      0.64140642   
     46200  -4798.1241     -4833.4349      35.310774     -810.14113      271.2771       7938.6941      1.2661442      0.64140642   
     46300  -4798.0851     -4833.9824      35.897241      5470.2561      275.78266      7937.9678      1.2662601      0.64140642   
     46400  -4795.9849     -4832.1857      36.200738      6314.6677      278.1143       7948.6394      1.26456        0.64140642   
     46500  -4796.0836     -4832.6624      36.578752      1631.1596      281.01841      7972.8549      1.2607193      0.64140642   
     46600  -4798.0998     -4832.9971      34.897313     -2967.1759      268.10066      8003.7372      1.2558548      0.64140642   
     46700  -4797.8462     -4834.3513      36.505068      3516.9214      280.45233      8025.2827      1.2524832      0.64140642   
     46800  -4797.0557     -4832.8076      35.751974      3509.3986      274.66664      8030.9501      1.2515993      0.64140642   
     46900  -4796.7883     -4833.0863      36.298034      2592.7416      278.86178      8026.4875      1.2522952      0.64140642   
     47000  -4796.0032     -4831.1072      35.103965      4367.6702      269.68827      8011.5385      1.2546319      0.69216689   
     47100  -4797.8556     -4833.4496      35.594006      4612.153       273.45304      7989.7244      1.2580574      0.69216689   
     47200  -4796.2133     -4831.7059      35.49256       5456.2367      272.67368      7962.0497      1.2624302      0.69216689   
     47300  -4795.2765     -4831.9209      36.644413      5100.2903      281.52286      7937.4307      1.2663458      0.69216689   
     47400  -4795.1445     -4831.316       36.171494      5957.3052      277.88963      7925.6785      1.2682235      0.69216689   
     47500  -4794.9195     -4833.0837      38.164185      5478.7973      293.1986       7926.6156      1.2680736      0.69216689   
     47600  -4794.7731     -4830.9875      36.214375      4084.1454      278.21906      7938.6435      1.2661523      0.69216689   
     47700  -4795.2096     -4831.4056      36.196009      3009.9083      278.07797      7958.7208      1.2629582      0.69216689   
     47800  -4794.3577     -4832.1519      37.794202      7362.8486      290.35618      7985.5362      1.2587172      0.69216689   
     47900  -4796.3253     -4832.4843      36.158983      2564.2939      277.79351      8012.3574      1.2545037      0.69216689   
     48000  -4796.1449     -4831.8767      35.731824      2676.3536      274.51184      8031.2905      1.2515463      0.69718979   
     48100  -4794.8771     -4831.7472      36.870089      2821.078       283.25662      8042.9811      1.2497271      0.69718979   
     48200  -4795.2374     -4832.3182      37.080722      2466.2115      284.87482      8043.2201      1.24969        0.69718979   
     48300  -4795.2724     -4832.1222      36.849866      390.32479      283.10126      8025.3588      1.2524713      0.69718979   
     48400  -4796.2785     -4832.133       35.854488      3233.4294      275.45421      7995.3364      1.2571743      0.69718979   
     48500  -4795.8105     -4832.2278      36.417256      6785.9614      279.77771      7959.1815      1.2628851      0.69718979   
     48600  -4796.841      -4832.0258      35.184801      7991.255       270.3093       7927.2752      1.267968       0.69718979   
     48700  -4797.0592     -4833.1651      36.105968      6594.7003      277.38622      7908.5323      1.2709731      0.69718979   
     48800  -4798.39       -4834.0925      35.702546      6019.0784      274.28691      7906.1076      1.2713629      0.69718979   
     48900  -4797.5312     -4832.7957      35.264591      3229.4588      270.9223       7917.2766      1.2695693      0.69718979   
     49000  -4796.501      -4833.0127      36.511677      3109.3984      280.5031       7942.9303      1.2654689      0.70091132   
     49100  -4796.1551     -4832.2582      36.103103      2212.2788      277.36421      7977.0745      1.2600524      0.70091132   
     49200  -4795.3062     -4831.7894      36.483199      4613.376       280.28432      8013.0813      1.2543903      0.70091132   
     49300  -4794.8617     -4831.8763      37.014621      1944.5012      284.367        8045.7431      1.2492981      0.70091132   
     49400  -4795.8994     -4831.5957      35.696313      190.45893      274.23902      8062.305       1.2467318      0.70091132   
     49500  -4796.3309     -4832.3802      36.0493        90.359218      276.95087      8058.5094      1.247319       0.70091132   
     49600  -4795.8364     -4832.7707      36.934219      882.07232      283.74931      8034.832       1.2509946      0.70091132   
     49700  -4795.884      -4832.1925      36.308509      1082.2994      278.94225      7997.2404      1.256875       0.70091132   
     49800  -4795.3794     -4830.9677      35.588311      4640.5267      273.40929      7950.1135      1.2643256      0.70091132   
     49900  -4795.4787     -4832.6544      37.175721      6945.7873      285.60466      7904.6806      1.2715924      0.70091132   
     50000  -4797.0909     -4832.8639      35.773008      10431.448      274.82823      7874.118       1.2765279      0.65648661   
     50100  -4797.1122     -4833.5766      36.464446      2089.9278      280.14025      7867.4668      1.2776071      0.65648661   
     50200  -4797.9905     -4833.4071      35.416595      8515.9036      272.09007      7883.794       1.2749612      0.65648661   
     50300  -4797.0219     -4832.7374      35.715498      4996.0607      274.38642      7918.8723      1.2693135      0.65648661   
     50400  -4796.7563     -4832.7831      36.0268        2423.403       276.77801      7964.0325      1.2621159      0.65648661   
     50500  -4796.5806     -4831.8647      35.28413       1381.5725      271.0724       8004.5638      1.2557251      0.65648661   
     50600  -4794.8289     -4831.6735      36.844582      3865.8989      283.06066      8031.1324      1.2515709      0.65648661   
     50700  -4794.4103     -4830.4398      36.02947       531.6971       276.79852      8042.1111      1.2498623      0.65648661   
     50800  -4794.3168     -4831.3044      36.987624      2076.3472      284.15959      8037.3886      1.2505967      0.65648661   
     50900  -4794.9757     -4829.5454      34.569727      5505.0052      265.58396      8019.2603      1.2534238      0.65648661   
     51000  -4795.53       -4832.3741      36.844058      2657.7796      283.05664      7998.6762      1.2566494      0.71417825   
     51100  -4795.3152     -4832.2791      36.963965      4483.6689      283.97783      7974.7104      1.2604259      0.71417825   
     51200  -4796.6564     -4833.0737      36.417393      5101.5967      279.77876      7955.1493      1.2635252      0.71417825   
     51300  -4795.244      -4832.3425      37.09851       6537.6314      285.01149      7941.8486      1.2656413      0.71417825   
     51400  -4796.2322     -4832.7952      36.563077      5926.7853      280.89799      7938.0138      1.2662527      0.71417825   
     51500  -4796.0703     -4832.006       35.935709      6151.273       276.07819      7943.34        1.2654037      0.71417825   
     51600  -4796.714      -4833.524       36.809964      5582.2075      282.79471      7957.758       1.263111       0.71417825   
     51700  -4796.5726     -4831.3343      34.761717      5778.6466      267.05893      7973.979       1.2605415      0.71417825   
     51800  -4796.3089     -4833.0067      36.697828      2807.3475      281.93322      7989.166       1.2581453      0.71417825   
     51900  -4795.6405     -4831.1962      35.555736      2758.1125      273.15903      7998.5564      1.2566682      0.71417825   
     52000  -4796.3121     -4832.9264      36.61429       3498.0524      281.29144      8005.0467      1.2556493      0.71887122   
     52100  -4796.2473     -4831.9733      35.725989      1154.6829      274.46701      8004.9465      1.2556651      0.71887122   
     52200  -4795.5602     -4831.3201      35.759843      5004.081       274.72709      7997.0211      1.2569095      0.71887122   
     52300  -4796.5025     -4831.7941      35.291613      4327.2868      271.12989      7985.6703      1.258696       0.71887122   
     52400  -4797.2395     -4835.1834      37.943825      1053.4089      291.50567      7972.3749      1.2607952      0.71887122   
     52500  -4796.5411     -4831.8853      35.344153      5950.4448      271.53353      7957.1581      1.2632062      0.71887122   
     52600  -4795.7926     -4830.7719      34.979333      6638.0227      268.73078      7950.2027      1.2643114      0.71887122   
     52700  -4794.8114     -4830.9861      36.174692      2064.4837      277.9142       7949.5717      1.2644117      0.71887122   
     52800  -4794.7301     -4831.816       37.085958      3709.8941      284.91505      7952.482       1.263949       0.71887122   
     52900  -4795.493      -4832.0613      36.568242      2678.7399      280.93767      7961.3398      1.2625427      0.71887122   
     53000  -4795.1194     -4830.9035      35.784115      4647.4371      274.91356      7975.336       1.260327       0.74687553   
     53100  -4794.8573     -4830.7818      35.924453      4244.8778      275.99172      7993.2619      1.2575006      0.74687553   
     53200  -4794.9442     -4832.2699      37.325649      4195.8627      286.75649      8010.0614      1.2548632      0.74687553   
     53300  -4794.8401     -4832.9954      38.15526       2025.0181      293.13002      8020.4583      1.2532366      0.74687553   
     53400  -4795.5935     -4831.4554      35.861948      5765.2086      275.51152      8019.9842      1.2533107      0.74687553   
     53500  -4795.0294     -4831.6115      36.582096      4940.3531      281.0441       8004.9819      1.2556595      0.74687553   
     53600  -4796.7126     -4832.7481      36.035531      3483.4339      276.84509      7982.9035      1.2591323      0.74687553   
     53700  -4796.2213     -4833.0746      36.853307      5559.6625      283.1277       7955.3574      1.2634922      0.74687553   
     53800  -4796.6364     -4831.3638      34.727369      4417.493       266.79506      7930.7652      1.2674101      0.74687553   
     53900  -4795.5748     -4832.0159      36.44112       3702.5998      279.96105      7919.8315      1.2691598      0.74687553   
     54000  -4795.1302     -4831.2005      36.070291      3110.9795      277.11213      7921.5945      1.2688773      0.66432202   
     54100  -4796.7382     -4832.8921      36.153849     -211.89143      277.75407      7934.1243      1.2668735      0.66432202   
     54200  -4795.2466     -4831.9988      36.75221       5140.5925      282.35101      7949.2333      1.2644656      0.66432202   
     54300  -4795.4513     -4833.7063      38.254952      5543.3381      293.89591      7967.6159      1.2615482      0.66432202   
     54400  -4795.6783     -4831.2365      35.55816       3594.252       273.17765      7989.3665      1.2581137      0.66432202   
     54500  -4796.1167     -4833.4644      37.347661      2539.8232      286.9256       8006.9358      1.2553531      0.66432202   
     54600  -4796.7925     -4833.1185      36.326003      2316.9558      279.07665      8016.1547      1.2539094      0.66432202   
     54700  -4797.4857     -4833.5209      36.035254      2552.3176      276.84296      8013.1992      1.2543719      0.66432202   
     54800  -4797.3186     -4832.549       35.230416      1836.8829      270.65974      7998.1055      1.2567391      0.66432202   
     54900  -4796.6886     -4832.9912      36.302544      1300.0611      278.89643      7971.4761      1.2609373      0.66432202   
     55000  -4797.1494     -4832.7008      35.551403      3614.7976      273.12574      7940.8836      1.2657951      0.75550298   
     55100  -4797.4129     -4834.0891      36.676245      1283.4301      281.76741      7913.3546      1.2701986      0.75550298   
     55200  -4798.045      -4833.9812      35.936229      2801.383       276.08219      7895.3019      1.2731029      0.75550298   
     55300  -4798.1502     -4833.1779      35.02773       6272.4538      269.1026       7892.397       1.2735715      0.75550298   
     55400  -4798.9018     -4833.2109      34.309036      4814.9626      263.58118      7906.8496      1.2712436      0.75550298   
     55500  -4797.7286     -4833.9862      36.257671      2865.119       278.55168      7934.8335      1.2667602      0.75550298   
     55600  -4797.3576     -4833.6878      36.330257      3935.7568      279.10934      7967.6666      1.2615402      0.75550298   
     55700  -4796.7451     -4834.1103      37.365264      1297.0474      287.06084      8000.9762      1.2562882      0.75550298   
     55800  -4797.3246     -4832.2787      34.954076      4176.5523      268.53674      8030.0409      1.251741       0.75550298   
     55900  -4797.8042     -4831.684       33.879758      4701.9608      260.28323      8047.2996      1.2490565      0.75550298   
     56000  -4797.7252     -4832.4113      34.686059      70.671446      266.47769      8047.5289      1.2490209      0.68175255   
     56100  -4795.5353     -4831.7478      36.21254       1292.2109      278.20496      8029.3029      1.2518561      0.68175255   
     56200  -4794.3268     -4831.8671      37.54032       5117.9577      288.40572      7992.4777      1.257624       0.68175255   
     56300  -4795.3874     -4832.4139      37.026569      2439.1915      284.45879      7949.3438      1.264448       0.68175255   
     56400  -4795.1272     -4832.1251      36.997887      4681.6246      284.23844      7912.2468      1.2703764      0.68175255   
     56500  -4793.9304     -4830.4036      36.473169      9316.7855      280.20726      7893.4988      1.2733937      0.68175255   
     56600  -4793.6637     -4830.7838      37.120035      8540.793       285.17685      7900.1265      1.2723254      0.68175255   
     56700  -4793.7876     -4832.026       38.238467      6228.0386      293.76927      7929.968       1.2675375      0.68175255   
     56800  -4794.8789     -4831.3747      36.495854      6523.499       280.38154      7975.6663      1.2602749      0.68175255   
     56900  -4794.9781     -4831.4247      36.446543      2889.601       280.00271      8027.9735      1.2520634      0.68175255   
     57000  -4795.5615     -4832.6102      37.048677     -1948.4824      284.62864      8074.7305      1.2448133      0.83505969   
     57100  -4796.1342     -4832.3528      36.218555      1505.747       278.25117      8100.5463      1.2408461      0.83505969   
     57200  -4797.3625     -4832.6688      35.306311      576.40438      271.24281      8100.6047      1.2408372      0.83505969   
     57300  -4796.8534     -4832.1288      35.275401      1235.35        271.00534      8072.8196      1.2451079      0.83505969   
     57400  -4796.9042     -4832.8853      35.981082      5827.8177      276.42678      8027.2505      1.2521762      0.83505969   
[...]
    386300  -4798.8571     -4834.2279      35.370732      2861.6179      271.73773      7973.9376      1.2605481      0.64074854   
    386400  -4799.1725     -4833.6166      34.444085      5407.991       264.61871      7938.5142      1.2661729      0.64074854   
    386500  -4799.7252     -4834.8773      35.152074      3377.1881      270.05787      7914.6001      1.2699987      0.64074854   
    386600  -4799.4083     -4833.9296      34.521282      4915.632       265.21178      7902.3592      1.2719659      0.64074854   
    386700  -4798.7724     -4833.7749      35.002519      5075.9134      268.90891      7906.2903      1.2713335      0.64074854   
    386800  -4797.8217     -4832.9141      35.092359      6939.2174      269.59911      7924.3822      1.268431       0.64074854   
    386900  -4798.2415     -4833.1137      34.872247      4566.8962      267.90809      7955.7247      1.2634338      0.64074854   
    387000  -4798.6238     -4833.7738      35.150008      3021.1438      270.042        7988.8559      1.2581941      0.74961025   
    387100  -4798.7349     -4833.7718      35.036852      2540.1423      269.17267      8015.5807      1.2539992      0.74961025   
    387200  -4799.0264     -4833.8788      34.852428      2134.8941      267.75583      8029.8018      1.2517783      0.74961025   
    387300  -4797.7748     -4833.8903      36.115476      517.23847      277.45926      8029.8694      1.2517678      0.74961025   
    387400  -4797.7703     -4833.6267      35.856383      4705.0523      275.46877      8016.7279      1.2538197      0.74961025   
    387500  -4797.6647     -4833.0967      35.43199       5533.5732      272.20834      7992.2696      1.2576567      0.74961025   
    387600  -4796.6527     -4833.0193      36.366637      3039.4757      279.38882      7966.122       1.2617848      0.74961025   
    387700  -4796.3139     -4832.8762      36.562244      4164.9225      280.89159      7943.2262      1.2654218      0.74961025   
    387800  -4796.5712     -4832.7171      36.145931      4430.8574      277.69324      7928.672       1.2677447      0.74961025   
    387900  -4796.4065     -4831.8737      35.467258      4659.9828      272.47929      7926.9401      1.2680216      0.74961025   
    388000  -4798.1857     -4833.3509      35.165171      1800.8607      270.1585       7941.7171      1.2656623      0.70965438   
    388100  -4799.116      -4833.9321      34.816072      4370.5988      267.47652      7967.5734      1.261555       0.70965438   
    388200  -4798.733      -4834.7011      35.968049      2653.2127      276.32665      7993.031       1.2575369      0.70965438   
    388300  -4797.7761     -4832.4654      34.689267      3677.9001      266.50233      8010.9268      1.2547277      0.70965438   
    388400  -4797.9753     -4833.006       35.030794      2240.0344      269.12613      8016.0987      1.2539182      0.70965438   
    388500  -4798.1389     -4832.2058      34.066939      1307.7528      261.72126      8007.5728      1.2552532      0.70965438   
    388600  -4798.2859     -4834.1155      35.829695      4339.1892      275.26374      7990.1715      1.257987       0.70965438   
    388700  -4798.4326     -4833.2142      34.781565      7684.9299      267.21142      7966.9246      1.2616577      0.70965438   
    388800  -4798.1693     -4832.7165      34.547222      7540.5583      265.41106      7944.0257      1.2652945      0.70965438   
    388900  -4797.8706     -4832.4724      34.60184       1502.9403      265.83067      7928.2713      1.2678087      0.70965438   
    389000  -4797.3333     -4832.2904      34.957079      2211.9462      268.55982      7923.6713      1.2685448      0.72538659   
    389100  -4798.0622     -4833.6852      35.62294       6572.7571      273.67533      7928.3091      1.2678027      0.72538659   
    389200  -4797.4969     -4832.3754      34.878503      9172.1149      267.95615      7942.3925      1.2655546      0.72538659   
    389300  -4798.2112     -4833.1895      34.978301      3208.2908      268.72285      7963.521       1.2621969      0.72538659   
    389400  -4798.546      -4833.2071      34.661147      1384.2429      266.2863       7983.5437      1.2590313      0.72538659   
    389500  -4799.6039     -4834.0791      34.475196      432.01828      264.85772      8000.453       1.2563703      0.72538659   
    389600  -4799.7556     -4834.4121      34.656509      1305.2878      266.25066      8007.2409      1.2553053      0.72538659   
    389700  -4799.4362     -4832.8844      33.448229      3656.2611      256.96798      8001.1788      1.2562564      0.72538659   
    389800  -4799.4955     -4833.2165      33.720964      3804.0413      259.06329      7986.1559      1.2586195      0.72538659   
    389900  -4799.8778     -4833.7358      33.857942      5129.3878      260.11563      7965.1627      1.2619368      0.72538659   
    390000  -4800.1075     -4834.133       34.025467      5877.6733      261.40265      7941.2778      1.2657323      0.66343736   
    390100  -4798.7696     -4834.1144      35.344817      3655.6519      271.53863      7919.3732      1.2692332      0.66343736   
    390200  -4797.9383     -4832.8983      34.960018      6773.5156      268.5824       7906.6256      1.2712796      0.66343736   
    390300  -4797.2132     -4833.5048      36.291632      4261.1535      278.81259      7915.085       1.2699209      0.66343736   
    390400  -4797.4788     -4833.6196      36.140806      2446.2803      277.65387      7941.7091      1.2656635      0.66343736   
    390500  -4797.3514     -4832.9472      35.595777      3365.1511      273.46665      7977.1343      1.2600429      0.66343736   
    390600  -4797.1161     -4830.9876      33.871568      6551.3809      260.22031      8012.6016      1.2544654      0.66343736   
    390700  -4796.4621     -4831.5169      35.054833      3973.305       269.31081      8045.6663      1.24931        0.66343736   
    390800  -4797.2063     -4833.0751      35.868766      631.79642      275.5639       8070.2977      1.245497       0.66343736   
    390900  -4797.461      -4833.4934      36.032393      2055.5612      276.82098      8077.7908      1.2443417      0.66343736   
    391000  -4797.5911     -4832.9002      35.309102      1016.4335      271.26425      8065.6217      1.2462191      0.67401066   
    391100  -4797.9426     -4831.5124      33.569773      4146.4718      257.90175      8037.9535      1.2505088      0.67401066   
    391200  -4797.3809     -4833.157       35.776102      6051.4255      274.85201      8000.2119      1.2564082      0.67401066   
    391300  -4795.3635     -4831.9706      36.607065      3796.6186      281.23593      7962.823       1.2623076      0.67401066   
    391400  -4796.2493     -4832.2925      36.043225      5113.2867      276.90419      7932.798       1.2670853      0.67401066   
    391500  -4796.5449     -4832.1049      35.559953      2350.0703      273.19143      7912.9517      1.2702632      0.67401066   
    391600  -4797.7799     -4833.9168      36.136886      5769.2574      277.62375      7911.725       1.2704602      0.67401066   
    391700  -4798.0133     -4833.1047      35.091378      5543.5523      269.59158      7928.0273      1.2678478      0.67401066   
    391800  -4796.8969     -4832.8691      35.972218      8313.9686      276.35868      7954.7633      1.2635865      0.67401066   
    391900  -4796.327      -4833.1315      36.804551      3033.8524      282.75312      7987.7637      1.2583662      0.67401066   
    392000  -4796.2152     -4831.7492      35.533984     -322.67267      272.99192      8024.3894      1.2526226      0.64947361   
    392100  -4795.6107     -4831.1215      35.510825     -394.67401      272.814        8056.31        1.2476595      0.64947361   
    392200  -4794.7139     -4831.7043      36.990398      744.45992      284.1809       8071.7052      1.2452798      0.64947361   
    392300  -4795.1778     -4831.4644      36.286653      4453.9748      278.77434      8069.6001      1.2456047      0.64947361   
    392400  -4795.5472     -4830.1196      34.572457      2510.2522      265.60493      8052.5747      1.2482382      0.64947361   
    392500  -4796.0894     -4832.2798      36.190419      5168.9357      278.03502      8026.0364      1.2523656      0.64947361   
    392600  -4794.628      -4831.8118      37.183804      3750.2856      285.66676      7997.3963      1.2568505      0.64947361   
    392700  -4794.2867     -4832.4958      38.209041      8243.7636      293.5432       7974.2595      1.2604972      0.64947361   
    392800  -4794.2579     -4830.3722      36.114283      4843.8568      277.4501       7959.9242      1.2627673      0.64947361   
    392900  -4792.8673     -4831.0532      38.185905      4106.6139      293.36546      7949.3872      1.2644411      0.64947361   
    393000  -4793.3902     -4831.0272      37.636974      6715.0517      289.14826      7943.3065      1.265409       0.68916692   
    393100  -4792.9164     -4830.4916      37.575196      5949.6663      288.67365      7951.386       1.2641232      0.68916692   
    393200  -4793.2246     -4830.4856      37.261082      6583.4716      286.26045      7973.089       1.2606822      0.68916692   
    393300  -4793.7674     -4829.9965      36.229072      6211.3056      278.33197      8003.5314      1.2558871      0.68916692   
    393400  -4794.709      -4832.1044      37.395376      4788.5473      287.29217      8036.0958      1.2507979      0.68916692   
    393500  -4796.4246     -4832.5531      36.128448      2317.4065      277.55893      8062.0387      1.2467729      0.68916692   
    393600  -4796.0274     -4831.5699      35.54258       439.81136      273.05796      8065.4526      1.2462452      0.68916692   
    393700  -4794.7        -4830.5649      35.864964      4019.0732      275.53469      8043.4416      1.2496556      0.68916692   
    393800  -4795.4381     -4831.8864      36.448261      2577.5855      280.0159       8007.8286      1.2552131      0.68916692   
    393900  -4795.5415     -4831.2395      35.697991      6331.5224      274.25191      7963.276       1.2622358      0.68916692   
    394000  -4795.4654     -4830.8629      35.397473      4747.3582      271.94316      7919.0372      1.2692871      0.69703581   
    394100  -4794.3857     -4830.581       36.195277      4048.5169      278.07234      7891.076       1.2737847      0.69703581   
    394200  -4795.4218     -4832.0042      36.582394      5583.4863      281.04639      7893.3575      1.2734165      0.69703581   
    394300  -4794.9043     -4832.6983      37.794001      1715.2661      290.35463      7917.1142      1.2695954      0.69703581   
    394400  -4794.0771     -4831.627       37.549887      1594.1877      288.47921      7956.2061      1.2633574      0.69703581   
    394500  -4794.2062     -4831.7733      37.567162      2523.4231      288.61193      8004.849       1.2556804      0.69703581   
    394600  -4794.6046     -4830.6107      36.006074      1537.1118      276.61878      8047.5125      1.2490234      0.69703581   
    394700  -4794.6755     -4831.8445      37.169007      951.81567      285.55308      8072.7494      1.2451188      0.69703581   
    394800  -4796.0451     -4831.9029      35.857736      2404.273       275.47916      8077.8119      1.2443384      0.69703581   
    394900  -4796.353      -4833.4307      37.077702      2524.2603      284.85162      8065.5067      1.2462369      0.69703581   
    395000  -4797.9004     -4833.189       35.288683      2569.8569      271.10738      8032.8628      1.2513013      0.73103824   
    395100  -4798.3428     -4833.366       35.02314       2754.2854      269.06733      7983.2889      1.2590715      0.73103824   
    395200  -4797.0455     -4832.9846      35.939103      4117.4755      276.10427      7931.8257      1.2672406      0.73103824   
    395300  -4797.4649     -4832.2759      34.810918      6702.7519      267.43692      7888.7178      1.2741654      0.73103824   
    395400  -4798.1441     -4833.5551      35.410991      4409.2203      272.04702      7866.3157      1.2777941      0.73103824   
    395500  -4798.0221     -4832.7719      34.749816      7962.6697      266.96751      7870.7559      1.2770732      0.73103824   
    395600  -4798.1921     -4833.585       35.392919      5427.1399      271.90818      7900.7776      1.2722206      0.73103824   
    395700  -4798.0125     -4833.7544      35.741959      5577.8572      274.5897       7948.4991      1.2645824      0.73103824   
    395800  -4797.59       -4832.9673      35.377259      2593.4913      271.78787      8003.4734      1.2558962      0.73103824   
    395900  -4797.3039     -4832.284       34.980034      996.548        268.73617      8056.1234      1.2476884      0.73103824   
    396000  -4797.0699     -4832.5387      35.468731      2609.6248      272.49061      8087.9475      1.2427791      0.67185149   
    396100  -4796.3841     -4832.1634      35.779252      6371.6122      274.87621      8096.4488      1.2414741      0.67185149   
    396200  -4796.2714     -4833.0965      36.825121      914.81445      282.91116      8078.1599      1.2442848      0.67185149   
    396300  -4796.8786     -4832.3392      35.460679      2761.0716      272.42875      8033.1293      1.2512598      0.67185149   
    396400  -4796.9997     -4831.7938      34.794176      1148.0149      267.30831      7975.1012      1.2603642      0.67185149   
    396500  -4797.5103     -4832.979       35.468753      5994.0809      272.49078      7914.9182      1.2699476      0.67185149   
    396600  -4796.1381     -4832.6528      36.514694      7407.0052      280.52628      7867.8121      1.2775511      0.67185149   
    396700  -4796.7246     -4832.3091      35.584485      7742.131       273.37989      7849.8494      1.2804745      0.67185149   
    396800  -4795.9898     -4833.0417      37.051866      3241.5063      284.65314      7863.635       1.2782297      0.67185149   
    396900  -4795.8394     -4831.568       35.728592      4587.1658      274.48701      7901.9717      1.2720283      0.67185149   
    397000  -4796.8827     -4832.0713      35.188596      2476.6183      270.33846      7955.6307      1.2634488      0.66314317   
    397100  -4797.1081     -4832.2757      35.167602     -1297.5655      270.17717      8011.4411      1.2546471      0.66314317   
    397200  -4796.5913     -4832.774       36.182693     -1268.3347      277.97566      8055.5258      1.247781       0.66314317   
    397300  -4795.8097     -4831.0729      35.263175      4369.1702      270.91141      8077.1976      1.244433       0.66314317   
    397400  -4795.9062     -4830.8024      34.896165      650.04403      268.09184      8075.8051      1.2446476      0.66314317   
    397500  -4794.9877     -4831.6474      36.659702      3773.4317      281.64032      8056.1958      1.2476772      0.66314317   
    397600  -4796.5178     -4832.495       35.977167      5275.8867      276.3967       8025.5944      1.2524345      0.66314317   
    397700  -4795.77       -4832.3545      36.584514      5874.9968      281.06268      7984.9698      1.2588065      0.66314317   
    397800  -4795.6473     -4831.5669      35.919632      5565.4248      275.95468      7948.0868      1.2646479      0.66314317   
    397900  -4795.9192     -4832.5758      36.656594      4421.0352      281.61644      7923.7061      1.2685392      0.66314317   
    398000  -4796.3606     -4832.4796      36.119061      2892.8171      277.48681      7914.7293      1.2699779      0.72658549   
    398100  -4796.7495     -4832.5517      35.802225      2731.359       275.0527       7920.668       1.2690257      0.72658549   
    398200  -4795.5098     -4831.9579      36.44818       4988.1618      280.01529      7938.2431      1.2662162      0.72658549   
    398300  -4795.8324     -4831.7488      35.916407      2274.4751      275.92991      7960.987       1.2625987      0.72658549   
    398400  -4796.7051     -4833.494       36.788857      4357.54        282.63256      7986.3745      1.2585851      0.72658549   
    398500  -4795.0352     -4831.7109      36.675693      3659.2021      281.76317      8009.1831      1.2550009      0.72658549   
    398600  -4795.2782     -4831.6996      36.421315      7383.4469      279.80889      8026.4219      1.2523054      0.72658549   
    398700  -4796.8649     -4833.6258      36.760847      4512.6204      282.41737      8036.5237      1.2507313      0.72658549   
    398800  -4796.07       -4831.7868      35.716769      3487.4385      274.39617      8037.2793      1.2506137      0.72658549   
    398900  -4796.4272     -4832.9985      36.571296      1428.6006      280.96113      8029.665       1.2517996      0.72658549   
    399000  -4798.1255     -4833.4299      35.304377      4942.1596      271.22795      8013.6004      1.2543091      0.6598932    
    399100  -4797.3279     -4832.6068      35.278929      2180.3698      271.03244      7989.3389      1.2581181      0.6598932    
    399200  -4798.0732     -4833.6003      35.527086      1929.0434      272.93893      7961.0105      1.2625949      0.6598932    
    399300  -4797.5992     -4833.1042      35.504941      5771.2993      272.76879      7935.0611      1.2667239      0.6598932    
    399400  -4798.7115     -4833.3732      34.661647      7071.6844      266.29014      7918.3205      1.269402       0.6598932    
    399500  -4798.0902     -4833.1093      35.019055      6477.1587      269.03595      7917.7964      1.269486       0.6598932    
    399600  -4796.8301     -4832.1002      35.270032      6955.7208      270.96409      7934.811       1.2667638      0.6598932    
    399700  -4797.6568     -4833.7865      36.129738      3361.0754      277.56883      7965.5425      1.2618766      0.6598932    
    399800  -4798.4068     -4834.2579      35.851048      1143.8909      275.42778      8001.7953      1.2561596      0.6598932    
    399900  -4799.1625     -4833.8705      34.707939      2878.726       266.64578      8035.3806      1.2509092      0.6598932    
    400000  -4798.5625     -4833.301       34.738506      3230.0539      266.88061      8057.6938      1.2474452      0.65339409   
    400100  -4797.4056     -4832.0811      34.675512      185.83125      266.39666      8063.9829      1.2464724      0.65339409   
    400200  -4796.7319     -4832.801       36.069076      917.97687      277.10279      8049.8968      1.2486535      0.65339409   
    400300  -4797.129      -4833.297       36.168016      2673.6036      277.8629       8020.7139      1.2531966      0.65339409   
    400340  -4796.3409     -4832.2673      35.926386      4650.7269      276.00657      8005.1445      1.255634       0.65339409   
Loop time of 2350.85 on 28 procs for 200000 steps with 1008 atoms

Performance: 3.675 ns/day, 6.530 hours/ns, 85.076 timesteps/s, 85.756 katom-step/s
99.6% CPU use with 28 MPI tasks x 1 OpenMP threads

MPI task timing breakdown:
Section |  min time  |  avg time  |  max time  |%varavg| %total
---------------------------------------------------------------
Pair    | 1799.3     | 1957.8     | 2193.5     | 232.4 | 83.28
Neigh   | 3.5188     | 3.8581     | 4.5039     |  13.8 |  0.16
Comm    | 137.68     | 360.67     | 508.7      | 510.8 | 15.34
Output  | 0.13298    | 0.15776    | 0.22437    |   5.3 |  0.01
Modify  | 13.839     | 27.22      | 61.12      | 239.5 |  1.16
Other   |            | 1.098      |            |       |  0.05

Nlocal:             36 ave          41 max          31 min
Histogram: 1 2 1 4 3 5 3 5 3 1
Nghost:        1026.36 ave        1048 max        1004 min
Histogram: 1 1 0 10 1 5 4 3 2 1
Neighs:              0 ave           0 max           0 min
Histogram: 28 0 0 0 0 0 0 0 0 0
FullNghs:      5258.71 ave        6038 max        4480 min
Histogram: 1 2 2 3 7 4 4 3 1 1

Total # of neighbors = 147244
Ave neighs/atom = 146.0754
Neighbor list builds = 19877
Dangerous builds = 19264
Total wall time: 1:17:55
