LAMMPS (27 Jun 2024)
KOKKOS mode with Kokkos version 4.3.1 is enabled (src/KOKKOS/kokkos.cpp:72)
  will use up to 1 GPU(s) per node
WARNING: When using a single thread, the Kokkos Serial backend (i.e. Makefile.kokkos_mpi_only) gives better performance than the OpenMP backend (src/KOKKOS/kokkos.cpp:202)
  using 1 OpenMP thread(s) per MPI task
Reading data file ...
  orthogonal box = (0 0 0) to (13.110045 13.110044 13.093422)
  1 by 1 by 1 MPI processor grid
  reading atoms ...
  384 atoms
  read_data CPU = 0.013 seconds
ACE/AL version: 2023.11.25
Loading /pc2/users/a/acepdw01/work/phase_diagram/pot_dir/interim_potential_ladder_step_1.yaml
Total number of basis functions
	H: 23 (r=1) 664 (r>1)
	O: 23 (r=1) 664 (r>1)
Mapping LAMMPS atom type #1(H) -> ACE species type #0
Mapping LAMMPS atom type #2(O) -> ACE species type #1
Loading ASI /pc2/users/a/acepdw01/work/phase_diagram/pot_dir/interim_potential_ladder_step_1.asi
LINEAR ASI is loaded

CITE-CITE-CITE-CITE-CITE-CITE-CITE-CITE-CITE-CITE-CITE-CITE-CITE

Your simulation uses code contributions which should be cited:
- Type Label Framework: https://doi.org/10.1021/acs.jpcb.3c08419
The log file lists these citations in BibTeX format.

CITE-CITE-CITE-CITE-CITE-CITE-CITE-CITE-CITE-CITE-CITE-CITE-CITE

Switching to 'neigh_modify every 1 delay 0 check yes' setting during minimization
Neighbor list info ...
  update: every = 1 steps, delay = 0 steps, check = yes
  max neighbors/atom: 2000, page size: 100000
  master list distance cutoff = 6.5
  ghost atom cutoff = 6.5
  binsize = 6.5, bins = 3 3 3
  1 neighbor lists, perpetual/occasional/extra = 1 0 0
  (1) pair pace/extrapolation/kk, perpetual
      attributes: full, newton on, kokkos_device
      pair build: full/bin/kk/device
      stencil: full/bin/3d
      bin: kk/device
Setting up cg/kk style minimization ...
  Unit style    : metal
  Current step  : 0
WARNING: Fix with atom-based arrays not compatible with sending data in Kokkos communication, switching to classic exchange/border communication (src/KOKKOS/comm_kokkos.cpp:754)
WARNING: Fix with atom-based arrays not compatible with Kokkos sorting on device, switching to classic host sorting (src/KOKKOS/atom_kokkos.cpp:216)
Per MPI rank memory allocation (min/avg/max) = 366.7 | 366.7 | 366.7 Mbytes
   Step         TotEng         PotEng         KinEng         Press           Temp          Volume        Density     c_max_pace_gamma
         0  -1851.9992     -1851.9992      0              21939.986      0              2250.4092      1.7015372      0.62320148   
        31  -1852.043      -1852.043       0              22349.863      0              2250.4092      1.7015372      0.62320148   
Loop time of 0.137713 on 1 procs for 31 steps with 384 atoms

95.9% CPU use with 1 MPI tasks x 1 OpenMP threads

Minimization stats:
  Stopping criterion = force tolerance
  Energy initial, next-to-last, final = 
     -1851.99916286181  -1852.04303302334  -1852.04303302875
  Force two-norm initial, final = 0.44663683 0.00032721251
  Force max component initial, final = 0.040656412 3.262883e-05
  Final line search alpha, max atom move = 1 3.262883e-05
  Iterations, force evaluations = 31 62

MPI task timing breakdown:
Section |  min time  |  avg time  |  max time  |%varavg| %total
---------------------------------------------------------------
Pair    | 0.10709    | 0.10709    | 0.10709    |   0.0 | 77.76
Neigh   | 0          | 0          | 0          |   0.0 |  0.00
Comm    | 0.0017409  | 0.0017409  | 0.0017409  |   0.0 |  1.26
Output  | 0          | 0          | 0          |   0.0 |  0.00
Modify  | 0.013462   | 0.013462   | 0.013462   |   0.0 |  9.78
Other   |            | 0.01542    |            |       | 11.20

Nlocal:            384 ave         384 max         384 min
Histogram: 1 0 0 0 0 0 0 0 0 0
Nghost:           2568 ave        2568 max        2568 min
Histogram: 1 0 0 0 0 0 0 0 0 0
Neighs:              0 ave           0 max           0 min
Histogram: 1 0 0 0 0 0 0 0 0 0
FullNghs:        74496 ave       74496 max       74496 min
Histogram: 1 0 0 0 0 0 0 0 0 0

Total # of neighbors = 74496
Ave neighs/atom = 194
Neighbor list builds = 0
Dangerous builds = 0
Setting up Verlet run ...
  Unit style    : metal
  Current step  : 31
  Time step     : 0.0005
WARNING: Fix with atom-based arrays not compatible with Kokkos sorting on device, switching to classic host sorting (src/KOKKOS/atom_kokkos.cpp:216)
Per MPI rank memory allocation (min/avg/max) = 365.8 | 365.8 | 365.8 Mbytes
   Step         TotEng         PotEng         KinEng         Press           Temp          Volume        Density     c_max_pace_gamma
        31  -1832.2404     -1852.043       19.802654      31748.849      400            2250.4092      1.7015372      0.62320148   
       100  -1829.235      -1838.0839      8.8489166      34204.178      178.74203      2251.9579      1.700367       0.62320148   
       200  -1825.9999     -1838.7756      12.77567       38277.189      258.05974      2267.8924      1.6884201      0.62320148   
       231  -1824.6377     -1838.5896      13.951963      31762.616      281.82006      2275.8399      1.6825238      0.62320148   
Loop time of 0.531414 on 1 procs for 200 steps with 384 atoms

Performance: 16.258 ns/day, 1.476 hours/ns, 376.354 timesteps/s, 144.520 katom-step/s
99.3% CPU use with 1 MPI tasks x 1 OpenMP threads

MPI task timing breakdown:
Section |  min time  |  avg time  |  max time  |%varavg| %total
---------------------------------------------------------------
Pair    | 0.32427    | 0.32427    | 0.32427    |   0.0 | 61.02
Neigh   | 0.0077761  | 0.0077761  | 0.0077761  |   0.0 |  1.46
Comm    | 0.0085806  | 0.0085806  | 0.0085806  |   0.0 |  1.61
Output  | 0.00036486 | 0.00036486 | 0.00036486 |   0.0 |  0.07
Modify  | 0.18587    | 0.18587    | 0.18587    |   0.0 | 34.98
Other   |            | 0.004559   |            |       |  0.86

Nlocal:            384 ave         384 max         384 min
Histogram: 1 0 0 0 0 0 0 0 0 0
Nghost:           2598 ave        2598 max        2598 min
Histogram: 1 0 0 0 0 0 0 0 0 0
Neighs:              0 ave           0 max           0 min
Histogram: 1 0 0 0 0 0 0 0 0 0
FullNghs:        73520 ave       73520 max       73520 min
Histogram: 1 0 0 0 0 0 0 0 0 0

Total # of neighbors = 73520
Ave neighs/atom = 191.45833
Neighbor list builds = 17
Dangerous builds = 10
Setting up Verlet run ...
  Unit style    : metal
  Current step  : 231
  Time step     : 0.0005
WARNING: Fix with atom-based arrays not compatible with Kokkos sorting on device, switching to classic host sorting (src/KOKKOS/atom_kokkos.cpp:216)
Per MPI rank memory allocation (min/avg/max) = 370 | 370 | 370 Mbytes
   Step         TotEng         PotEng         KinEng         Press           Temp          Volume        Density     c_max_pace_gamma
       231  -1818.787      -1838.5896      19.802654      34508.515      400            2275.8399      1.6825238      0.62320148   
       300  -1818.1924     -1833.384       15.191592      51539.444      306.85971      2279.413       1.6798864      0.62320148   
       400  -1817.3555     -1837.2889      19.933415      37758.974      402.64127      2304.7544      1.6614156      0.62320148   
       500  -1817.6746     -1834.7769      17.102358      46885.806      345.45587      2343.8174      1.6337258      0.62320148   
       600  -1817.984      -1835.3724      17.388349      38664.196      351.23269      2387.0256      1.6041533      0.62320148   
       700  -1817.8506     -1835.1939      17.343294      19868.533      350.32261      2423.9234      1.5797343      0.62320148   
       800  -1817.7625     -1834.2897      16.527173      14333.237      333.83754      2446.6076      1.5650875      0.62320148   
       900  -1816.9995     -1834.8523      17.852866      19643.579      360.61562      2451.2916      1.5620969      0.62320148   
      1000  -1816.8988     -1834.4247      17.52587       20096.084      354.01053      2439.6615      1.5695436      0.81582858   
      1100  -1816.1903     -1833.0524      16.862038      21128.032      340.60156      2416.0515      1.5848813      0.81582858   
      1200  -1814.097      -1833.1374      19.040475      30144.562      384.60449      2389.5382      1.6024665      0.81582858   
      1300  -1813.4267     -1832.3066      18.879846      43155.618      381.3599       2366.7183      1.6179175      0.81582858   
      1400  -1812.8987     -1833.1511      20.252443      40617.062      409.08542      2352.4526      1.6277288      0.81582858   
      1500  -1812.7718     -1831.0502      18.278389      35221.068      369.2109       2349.4757      1.6297912      0.81582858   
      1600  -1812.9036     -1832.1349      19.2313        37755.781      388.45904      2357.7638      1.6240622      0.81582858   
      1700  -1811.7551     -1831.0175      19.262438      35719.048      389.088        2374.1026      1.6128852      0.81582858   
      1800  -1812.3011     -1832.5209      20.219855      29500.954      408.42717      2394.2139      1.599337       0.81582858   
      1900  -1813.6184     -1833.1988      19.580426      23719.227      395.51115      2415.0176      1.5855598      0.81582858   
      2000  -1814.6537     -1833.9489      19.295146      24290.564      389.74867      2431.2693      1.5749613      0.82266192   
      2100  -1815.4999     -1833.6608      18.160917      25011.167      366.83804      2437.1068      1.5711888      0.82266192   
      2200  -1814.8064     -1833.2405      18.434028      26757.256      372.35469      2431.5749      1.5747633      0.82266192   
      2300  -1814.5294     -1833.0836      18.554293      28355.574      374.78396      2416.2142      1.5847746      0.82266192   
      2400  -1813.8326     -1831.7685      17.935824      31249.797      362.29132      2395.5078      1.5984731      0.82266192   
      2500  -1814.6325     -1833.7471      19.114673      29344.055      386.10324      2375.4914      1.6119423      0.82266192   
      2600  -1813.4684     -1832.2451      18.776657      27387.031      379.27557      2358.3008      1.6236923      0.82266192   
      2700  -1812.3849     -1832.2171      19.832168      34291.594      400.59615      2348.2657      1.630631       0.82266192   
      2800  -1811.3838     -1831.836       20.452129      34097.024      413.11895      2349.3533      1.6298761      0.82266192   
      2900  -1811.9618     -1831.7063      19.744538      31907.741      398.82609      2361.9777      1.6211647      0.82266192   
      3000  -1811.9727     -1832.9185      20.945784      28156.703      423.09043      2383.1126      1.6067872      0.7813484    
      3100  -1813.2633     -1832.2353      18.972065      20970.193      383.22266      2408.6204      1.5897711      0.7813484    
      3200  -1813.8691     -1833.0646      19.195457      23072.308      387.73503      2430.8414      1.5752385      0.7813484    
      3300  -1813.0313     -1831.4516      18.420335      28669.746      372.0781       2444.5108      1.5664299      0.7813484    
      3400  -1813.7847     -1832.1744      18.389758      21238.89       371.46046      2447.5425      1.5644897      0.7813484    
      3500  -1814.451      -1834.079       19.628039      21758.091      396.47289      2440.3222      1.5691186      0.7813484    
      3600  -1815.0253     -1832.7332      17.707808      33600.033      357.68555      2421.9756      1.5810048      0.7813484    
      3700  -1815.5578     -1833.5044      17.94656       36952.84       362.50817      2395.8253      1.5982613      0.7813484    
      3800  -1814.7466     -1834.0846      19.337991      37234.739      390.61413      2368.4982      1.6167017      0.7813484    
      3900  -1812.8666     -1831.9506      19.084028      33682.28       385.48424      2347.0489      1.6314764      0.7813484    
      4000  -1811.512      -1832.132       20.619988      34333.814      416.50958      2338.6757      1.6373176      0.81754983   
      4100  -1810.2567     -1831.8681      21.611384      34082.901      436.53509      2346.069       1.6321579      0.81754983   
      4200  -1810.5871     -1830.4016      19.814456      42748.572      400.23838      2368.5945      1.6166359      0.81754983   
      4300  -1811.3915     -1831.9367      20.545169      39507.264      414.99828      2403.352       1.593256       0.81754983   
      4400  -1810.4961     -1830.7593      20.263268      38570.453      409.30408      2439.7929      1.569459       0.81754983   
      4500  -1810.6765     -1831.3386      20.662144      32433.667      417.36111      2470.3683      1.5500341      0.81754983   
      4600  -1812.3402     -1832.3241      19.983978      22838.33       403.66261      2488.7571      1.5385812      0.81754983   
      4700  -1810.1675     -1830.0245      19.856993      23520.283      401.0976       2490.4318      1.5375466      0.81754983   
      4800  -1810.4156     -1831.5572      21.141633      30058.969      427.04644      2480.5304      1.5436839      0.81754983   
      4900  -1809.9738     -1831.7995      21.825739      28856.779      440.86492      2460.6149      1.556178       0.81754983   
      5000  -1810.2952     -1830.7855      20.490283      38872.135      413.88963      2434.1717      1.5730833      0.71516805   
      5100  -1810.3088     -1830.7947      20.485835      33572.058      413.79977      2408.3884      1.5899242      0.71516805   
      5200  -1810.6423     -1831.524       20.881623      26246.945      421.79442      2388.0705      1.6034514      0.71516805   
      5300  -1810.1586     -1830.9604      20.801861      28460.544      420.18328      2377.2734      1.610734       0.71516805   
      5400  -1811.0418     -1831.2491      20.20728       33383.524      408.17316      2379.0914      1.6095031      0.71516805   
      5500  -1810.9868     -1831.0138      20.026994      27384.658      404.5315       2391.4892      1.6011592      0.71516805   
      5600  -1810.1914     -1830.8781      20.686713      27143.423      417.85738      2412.0001      1.5875435      0.71516805   
      5700  -1809.2707     -1830.5575      21.286728      37977.202      429.97728      2436.946       1.5712925      0.71516805   
      5800  -1810.2712     -1831.4919      21.220701      27269.677      428.64357      2462.8097      1.5547913      0.71516805   
      5900  -1811.5674     -1831.8227      20.255265      18839.536      409.14243      2484.4071      1.5412752      0.71516805   
      6000  -1809.969      -1831.0399      21.070904      13733.368      425.61778      2494.5739      1.5349936      0.88264997   
      6100  -1809.0645     -1830.5448      21.480231      19119.153      433.88589      2490.9386      1.5372338      0.88264997   
      6200  -1809.8581     -1831.3241      21.465969      23083.584      433.59782      2476.9467      1.5459173      0.88264997   
      6300  -1809.6802     -1831.3356      21.655343      27215.17       437.42305      2455.565       1.5593784      0.88264997   
      6400  -1809.6063     -1830.4626      20.856312      32572.359      421.28316      2430.8026      1.5752637      0.88264997   
      6500  -1808.9799     -1830.7059      21.725986      32205.604      438.84998      2407.8683      1.5902676      0.88264997   
      6600  -1810.4014     -1831.4011      20.999651      27764.673      424.17851      2392.5035      1.6004804      0.88264997   
      6700  -1810.5196     -1830.6597      20.140053      27876.932      406.81523      2386.9171      1.6042262      0.88264997   
      6800  -1810.3777     -1831.5717      21.193987      37210.01       428.10397      2392.1253      1.6007334      0.88264997   
      6900  -1810.9857     -1831.9264      20.940651      40823.391      422.98675      2405.005       1.5921609      0.88264997   
      7000  -1810.7299     -1831.0902      20.360306      35702.76       411.26417      2424.4422      1.5793963      0.69725694   
      7100  -1811.4864     -1832.6471      21.160753      29038.733      427.43267      2444.6709      1.5663274      0.69725694   
      7200  -1812.2013     -1831.1078      18.906542      31510.406      381.89914      2460.344       1.5563494      0.69725694   
      7300  -1813.2494     -1833.1127      19.863303      24475.795      401.22507      2470.4273      1.549997       0.69725694   
      7400  -1812.6671     -1832.7947      20.127618      25420.641      406.56405      2468.0147      1.5515122      0.69725694   
      7500  -1812.4327     -1831.707       19.274332      28826.711      389.32825      2455.4223      1.559469       0.69725694   
      7600  -1811.828      -1833.1691      21.341065      22572.475      431.07485      2436.6334      1.5714941      0.69725694   
      7700  -1811.9497     -1831.1634      19.213649      33367.053      388.1025       2415.174       1.5854572      0.69725694   
      7800  -1811.9477     -1832.6276      20.679928      31660.792      417.72032      2396.8825      1.5975564      0.69725694   
      7900  -1811.4407     -1831.7868      20.346097      40999.958      410.97716      2385.8488      1.6049445      0.69725694   
      8000  -1811.0842     -1831.3362      20.252072      41072.54       409.07794      2383.5837      1.6064697      0.8522197    
      8100  -1812.5107     -1831.8797      19.369058      31809.654      391.24165      2389.3781      1.6025739      0.8522197    
      8200  -1812.2123     -1831.1708      18.958464      36511.812      382.94793      2401.3816      1.5945633      0.8522197    
      8300  -1811.4058     -1832.1317      20.725836      31559.49       418.64765      2418.1032      1.5835366      0.8522197    
      8400  -1811.4919     -1832.6815      21.189684      31830.044      428.01704      2439.0846      1.5699148      0.8522197    
      8500  -1811.9394     -1832.0148      20.075389      18794.064      405.50905      2458.9678      1.5572205      0.8522197    
      8600  -1812.261      -1832.0275      19.76653       22064.822      399.27031      2473.8914      1.5478266      0.8522197    
      8700  -1812.6123     -1832.5552      19.942897      33682.778      402.83281      2479.8676      1.5440965      0.8522197    
      8800  -1812.6473     -1832.3459      19.698609      24115.119      397.89836      2475.8531      1.5466002      0.8522197    
      8900  -1812.0618     -1831.5536      19.491835      28003.026      393.72167      2460.4132      1.5563057      0.8522197    
      9000  -1811.6559     -1832.064       20.408029      29742.747      412.22815      2438.7425      1.570135       0.77219928   
      9100  -1811.4238     -1831.9312      20.507419      32109.008      414.23577      2416.1523      1.5848152      0.77219928   
      9200  -1811.0356     -1831.5847      20.54905       36317.759      415.07668      2396.343       1.597916       0.77219928   
      9300  -1810.7181     -1832.3164      21.598339      37031.276      436.27161      2384.5268      1.6058343      0.77219928   
      9400  -1811.4463     -1831.4347      19.988378      34148.245      403.7515       2383.2811      1.6066737      0.77219928   
      9500  -1813.2983     -1832.4308      19.132451      31379.899      386.46235      2391.9809      1.6008301      0.77219928   
      9600  -1814.646      -1833.4645      18.818455      29150.761      380.11985      2405.5264      1.5918158      0.77219928   
      9700  -1814.5736     -1832.7294      18.155785      29006.325      366.73438      2418.9081      1.5830097      0.77219928   
      9800  -1815.0327     -1833.1536      18.120952      26676.122      366.03077      2428.6889      1.5766346      0.77219928   
      9900  -1814.709      -1834.6447      19.935691      27604.23       402.68725      2434.0437      1.5731661      0.77219928   
     10000  -1815.0845     -1833.2484      18.163845      21037.236      366.89719      2432.1717      1.5743769      0.74295062   
     10100  -1815.2421     -1832.6761      17.433938      21884.718      352.15357      2424.059       1.5796459      0.74295062   
     10200  -1813.6091     -1833.7222      20.1131        24141.325      406.2708       2411.3288      1.5879854      0.74295062   
     10300  -1814.34       -1833.0119      18.671943      35889.048      377.16041      2396.6531      1.5977093      0.74295062   
     10400  -1813.3552     -1832.8038      19.448555      32851.534      392.84745      2382.8968      1.6069327      0.74295062   
     10500  -1813.3827     -1832.8898      19.507159      30186.386      394.0312       2375.9312      1.6116439      0.74295062   
     10600  -1813.1044     -1831.6515      18.5471        26448.949      374.63866      2376.7414      1.6110945      0.74295062   
     10700  -1812.4757     -1832.6894      20.213616      24680.4        408.30114      2386.5618      1.604465       0.74295062   
     10800  -1813.3683     -1832.2304      18.862031      23539.74       381.00006      2403.9336      1.5928705      0.74295062   
     10900  -1814.2433     -1833.0402      18.796906      25264.017      379.68458      2424.3471      1.5794582      0.74295062   
     11000  -1814.6432     -1832.577       17.933777      23439.07       362.24996      2441.5241      1.5683461      0.76727979   
     11100  -1815.2805     -1833.6683      18.387783      19300.962      371.42057      2450.3339      1.5627074      0.76727979   
     11200  -1814.9665     -1833.4775      18.511064      17036.229      373.91076      2448.995       1.5635617      0.76727979   
     11300  -1813.1243     -1831.8776      18.753308      21952.114      378.80392      2438.6543      1.5701918      0.76727979   
     11400  -1812.1984     -1832.3551      20.156629      25002.167      407.15005      2423.5063      1.5800062      0.76727979   
     11500  -1813.0943     -1831.7712      18.676884      32405.25       377.26022      2405.9429      1.5915403      0.76727979   
     11600  -1813.2891     -1833.3033      20.014178      32040.307      404.27262      2389.7377      1.6023327      0.76727979   
     11700  -1813.2185     -1831.9268      18.708342      27508.965      377.89565      2377.4204      1.6106343      0.76727979   
     11800  -1813.515      -1832.5998      19.084846      30676.359      385.50077      2371.7762      1.6144672      0.76727979   
     11900  -1814.0352     -1833.2875      19.252374      34005.071      388.88472      2374.0289      1.6129353      0.76727979   
     12000  -1813.4594     -1833.8897      20.430301      34118.356      412.67804      2384.1204      1.606108       0.76932907   
     12100  -1812.7352     -1832.4498      19.714615      30293.217      398.22167      2399.5833      1.5957583      0.76932907   
     12200  -1811.8512     -1832.4717      20.620503      19936.374      416.51999      2417.2579      1.5840903      0.76932907   
     12300  -1811.6078     -1831.4944      19.886601      17533.919      401.69567      2434.7137      1.5727331      0.76932907   
     12400  -1811.2747     -1830.8403      19.565635      28216.637      395.21237      2448.6385      1.5637894      0.76932907   
     12500  -1812.2825     -1832.2305      19.947958      29462.209      402.93504      2456.5014      1.5587839      0.76932907   
     12600  -1812.1235     -1831.2864      19.162906      27112.609      387.07752      2454.6938      1.5599318      0.76932907   
     12700  -1813.1529     -1832.188       19.035122      30692.544      384.49637      2444.0375      1.5667333      0.76932907   
     12800  -1813.2482     -1832.4969      19.248742      23641.75       388.81136      2426.4315      1.5781014      0.76932907   
     12900  -1813.3326     -1832.75        19.417413      30966.559      392.21839      2405.0301      1.5921443      0.76932907   
     13000  -1812.8171     -1832.757       19.939836      38699.258      402.77098      2384.8963      1.6055855      0.79223951   
     13100  -1811.46       -1831.6539      20.193905      42539.595      407.903        2371.1972      1.6148614      0.79223951   
     13200  -1811.3399     -1832.006       20.666063      40046.739      417.44027      2368.5213      1.6166859      0.79223951   
     13300  -1811.8084     -1832.0406      20.232222      37269.889      408.67697      2376.4488      1.6112928      0.79223951   
     13400  -1811.9296     -1832.2611      20.331489      37962.002      410.6821       2393.4583      1.5998419      0.79223951   
     13500  -1812.5638     -1832.3355      19.771704      34698.013      399.37482      2415.1796      1.5854535      0.79223951   
     13600  -1813.3071     -1832.2488      18.941708      30329.587      382.60948      2437.0024      1.5712561      0.79223951   
     13700  -1814.5293     -1834.3681      19.838811      28443.577      400.73033      2454.0792      1.5603225      0.79223951   
     13800  -1814.2742     -1833.132       18.857823      27823.718      380.91505      2459.953       1.5565968      0.79223951   
     13900  -1814.5067     -1833.7683      19.261539      32302.075      389.06985      2454.1777      1.5602598      0.79223951   
     14000  -1814.5155     -1832.723       18.207575      30108.132      367.7805       2439.0998      1.569905       0.76107345   
     14100  -1813.392      -1832.2288      18.836786      24942.102      380.49013      2417.7139      1.5837916      0.76107345   
     14200  -1813.3205     -1832.6162      19.295635      26378.455      389.75857      2394.4693      1.5991664      0.76107345   
     14300  -1812.6434     -1832.7703      20.126937      29762.678      406.55029      2376.6466      1.6111587      0.76107345   
     14400  -1811.3533     -1831.5417      20.188437      35750.343      407.79255      2369.8138      1.6158041      0.76107345   
     14500  -1812.7945     -1832.8891      20.094539      34137.625      405.89587      2375.8097      1.6117263      0.76107345   
     14600  -1813.0996     -1832.3757      19.276075      28030.97       389.36346      2390.1546      1.6020533      0.76107345   
     14700  -1813.7021     -1832.5583      18.85628       23411.51       380.88389      2408.8458      1.5896222      0.76107345   
     14800  -1815.1759     -1834.3528      19.176898      20491.168      387.36016      2427.8335      1.5771901      0.76107345   
     14900  -1814.6696     -1834.1662      19.496642      25126.347      393.81876      2441.1314      1.5685984      0.76107345   
     15000  -1813.7712     -1832.1373      18.366035      26149.936      370.98128      2445.2369      1.5659648      0.85422231   
     15100  -1812.269      -1832.7407      20.4717        25567          413.51427      2442.2837      1.5678584      0.85422231   
     15200  -1812.1157     -1831.2888      19.173107      31355.713      387.28359      2435.7447      1.5720674      0.85422231   
     15300  -1811.4103     -1832.2867      20.876346      34524.39       421.68783      2427.2587      1.5775636      0.85422231   
     15400  -1811.4125     -1830.7602      19.347692      40787.573      390.81008      2418.9276      1.5829969      0.85422231   
     15500  -1812.231      -1831.9631      19.732051      30251.274      398.57386      2413.7241      1.5864095      0.85422231   
     15600  -1812.3614     -1831.7162      19.354822      26498.984      390.95409      2411.1897      1.588077       0.85422231   
     15700  -1813.379      -1832.6436      19.264672      27323.923      389.13313      2411.7442      1.5877119      0.85422231   
     15800  -1812.2468     -1832.4521      20.205347      33690.75       408.13412      2413.6949      1.5864288      0.85422231   
     15900  -1811.9085     -1831.2887      19.380204      46988.249      391.4668       2416.3655      1.5846754      0.85422231   
     16000  -1812.3238     -1832.5608      20.237059      33790.917      408.77468      2421.9047      1.581051       0.82011495   
     16100  -1812.6407     -1831.708       19.067363      39476.829      385.14763      2427.8046      1.5772088      0.82011495   
     16200  -1811.7864     -1832.4911      20.704668      33549.012      418.22006      2432.5748      1.574116       0.82011495   
     16300  -1812.3632     -1832.9454      20.582261      31558.124      415.74752      2436.1927      1.5717784      0.82011495   
     16400  -1813.2424     -1831.7128      18.470367      36432.341      373.08872      2437.5328      1.5709142      0.82011495   
     16500  -1812.6734     -1832.0432      19.369791      35052.193      391.25647      2435.7266      1.5720791      0.82011495   
     16600  -1812.7298     -1832.5228      19.792944      34197.703      399.80385      2431.7245      1.5746664      0.82011495   
     16700  -1812.4446     -1831.6143      19.169676      33848.421      387.21427      2424.5321      1.5793377      0.82011495   
     16800  -1812.3268     -1832.7642      20.437407      31879.675      412.82157      2416.6909      1.584462       0.82011495   
     16900  -1812.6204     -1832.6607      20.040247      26749.307      404.79921      2409.9492      1.5888945      0.82011495   
     17000  -1812.3579     -1832.2089      19.851029      30629.912      400.97714      2405.7804      1.5916477      0.78789019   
     17100  -1811.5971     -1832.3665      20.769462      35328.673      419.52886      2405.5938      1.5917712      0.78789019   
     17200  -1812.2985     -1832.0735      19.775054      38120.502      399.44249      2410.2958      1.5886659      0.78789019   
     17300  -1812.3465     -1832.0495      19.703059      32040.17       397.98824      2418.7224      1.5831312      0.78789019   
     17400  -1812.1877     -1832.4327      20.244951      30835.596      408.93408      2430.9516      1.5751671      0.78789019   
     17500  -1813.7157     -1833.6091      19.893463      29469.956      401.83428      2442.5885      1.5676627      0.78789019   
     17600  -1813.7448     -1832.8588      19.114041      23299.47       386.09048      2450.0423      1.5628934      0.78789019   
     17700  -1813.3859     -1833.568       20.18215       26343.33       407.66555      2452.1444      1.5615536      0.78789019   
     17800  -1812.7546     -1832.9063      20.151691      29561.924      407.0503       2447.8024      1.5643236      0.78789019   
     17900  -1811.3652     -1831.7155      20.350303      30212.338      411.06214      2440.1836      1.5692077      0.78789019   
     18000  -1811.6874     -1832.2168      20.529458      26834.196      414.68093      2431.9133      1.5745442      0.73862595   
     18100  -1812.0976     -1831.7927      19.695099      35387.051      397.82745      2422.4032      1.5807257      0.73862595   
     18200  -1810.7547     -1831.726       20.971324      32602.786      423.60633      2416.4007      1.5846523      0.73862595   
     18300  -1810.6857     -1832.3957      21.70997       33353.651      438.52647      2414.9427      1.585609       0.73862595   
     18400  -1809.866      -1831.0788      21.212725      35569.099      428.48247      2417.9846      1.5836143      0.73862595   
     18500  -1810.858      -1830.204       19.346016      35743.306      390.77623      2427.7614      1.5772369      0.73862595   
     18600  -1812.4236     -1831.2155      18.791901      34683.474      379.58348      2441.2618      1.5685146      0.73862595   
     18700  -1813.4343     -1832.3006      18.866315      27941.225      381.08659      2453.4177      1.5607432      0.73862595   
     18800  -1812.4299     -1832.7256      20.295675      29282.338      409.95868      2459.1565      1.557101       0.73862595   
     18900  -1811.2201     -1831.6556      20.43547       26461.688      412.78244      2459.1228      1.5571223      0.73862595   
     19000  -1811.6575     -1832.0233      20.365872      25166.93       411.37662      2454.2587      1.5602084      0.85689211   
     19100  -1812.3745     -1832.8854      20.510888      28319.171      414.30583      2447.0987      1.5647734      0.85689211   
     19200  -1811.1023     -1831.1527      20.050414      32976.806      405.00457      2436.4266      1.5716275      0.85689211   
     19300  -1810.4695     -1831.6394      21.169905      35898.784      427.61753      2427.7344      1.5772545      0.85689211   
     19400  -1809.1235     -1831.1154      21.991875      35797.463      444.22076      2424.7204      1.5792151      0.85689211   
     19500  -1809.8263     -1831.3958      21.56947       36044.247      435.68846      2428.403       1.5768202      0.85689211   
     19600  -1810.3862     -1830.4125      20.026282      35117.328      404.51713      2436.8231      1.5713718      0.85689211   
     19700  -1812.1531     -1832.3904      20.237293      27190.318      408.77941      2447.8412      1.5642988      0.85689211   
     19800  -1812.1553     -1833.1044      20.949058      30171.033      423.15657      2455.7526      1.5592592      0.85689211   
     19900  -1812.1839     -1832.6517      20.467814      23248.109      413.43577      2459.7041      1.5567543      0.85689211   
     20000  -1813.4294     -1832.1881      18.758645      26178.144      378.91173      2456.4942      1.5587885      0.85384922   
     20100  -1813.8831     -1832.7997      18.916537      31491.276      382.10105      2446.2265      1.5653313      0.85384922   
     20200  -1812.2192     -1832.0657      19.846455      26344.111      400.88475      2433.0665      1.5737979      0.85384922   
     20231  -1812.1945     -1831.7         19.505483      32507.043      393.99735      2428.8549      1.5765268      0.85384922   
Loop time of 55.2172 on 1 procs for 20000 steps with 384 atoms

Performance: 15.647 ns/day, 1.534 hours/ns, 362.206 timesteps/s, 139.087 katom-step/s
167.9% CPU use with 1 MPI tasks x 1 OpenMP threads

MPI task timing breakdown:
Section |  min time  |  avg time  |  max time  |%varavg| %total
---------------------------------------------------------------
Pair    | 33.705     | 33.705     | 33.705     |   0.0 | 61.04
Neigh   | 0.87261    | 0.87261    | 0.87261    |   0.0 |  1.58
Comm    | 0.83354    | 0.83354    | 0.83354    |   0.0 |  1.51
Output  | 0.024848   | 0.024848   | 0.024848   |   0.0 |  0.05
Modify  | 19.33      | 19.33      | 19.33      |   0.0 | 35.01
Other   |            | 0.4511     |            |       |  0.82

Nlocal:            384 ave         384 max         384 min
Histogram: 1 0 0 0 0 0 0 0 0 0
Nghost:           2532 ave        2532 max        2532 min
Histogram: 1 0 0 0 0 0 0 0 0 0
Neighs:              0 ave           0 max           0 min
Histogram: 1 0 0 0 0 0 0 0 0 0
FullNghs:        69540 ave       69540 max       69540 min
Histogram: 1 0 0 0 0 0 0 0 0 0

Total # of neighbors = 69540
Ave neighs/atom = 181.09375
Neighbor list builds = 1999
Dangerous builds = 1996
Total wall time: 0:00:56
