LAMMPS (27 Jun 2024)
OMP_NUM_THREADS environment is not set. Defaulting to 1 thread. (src/comm.cpp:98)
  using 1 OpenMP thread(s) per MPI task

units		metal						## E in [eV], t in [ps], P in [10000 Pa], l in [A]
atom_style	atomic						## mass x y z vx vy vz

neighbor	0.5 bin						## neighbor list, skin = 0.5 Angstrom
neigh_modify	every 2 delay 10 check yes			## update of neighbor list

############################## main variables
variable        seed equal 31735

variable	temperature equal 460
variable	tempDamp equal 0.1

variable        pressure equal 30000
variable        pressureDamp equal 1.0 				# This is 1 ps

##############################

read_data water.dat
Reading data file ...
  orthogonal box = (0 0 0) to (20.254784 20.261831 35.959838)
  2 by 2 by 5 MPI processor grid
  reading atoms ...
  2160 atoms
  read_data CPU = 0.013 seconds

mass		1 1.008    # H
mass		2 15.9994  # O


pair_style	pace/extrapolation
ACE/AL version: 2023.11.25
pair_coeff	* * /pc2/users/a/acepdw01/work/phase_diagram/pot_dir/interim_potential_ladder_step_1.yaml /pc2/users/a/acepdw01/work/phase_diagram/pot_dir/interim_potential_ladder_step_1.asi H O
Loading /pc2/users/a/acepdw01/work/phase_diagram/pot_dir/interim_potential_ladder_step_1.yaml
Total number of basis functions
	H: 23 (r=1) 664 (r>1)
	O: 23 (r=1) 664 (r>1)
Mapping LAMMPS atom type #1(H) -> ACE species type #0
Mapping LAMMPS atom type #2(O) -> ACE species type #1
Loading ASI /pc2/users/a/acepdw01/work/phase_diagram/pot_dir/interim_potential_ladder_step_1.asi
LINEAR ASI is loaded

fix pace_gamma all pair 1000 pace/extrapolation gamma 1
compute max_pace_gamma all reduce max f_pace_gamma
variable dump_skip equal "c_max_pace_gamma < 10"

dump pace_dump all custom 1000 extrapolative_structures.dump id type x y z f_pace_gamma
dump_modify pace_dump skip v_dump_skip
dump_modify pace_dump element H O

variable max_pace_gamma equal c_max_pace_gamma

timestep	0.0005						## timestep = 0.0005*ps = 0.5 fs

thermo		100
thermo_style custom step etotal pe ke press temp vol density c_max_pace_gamma


min_style cg
minimize 0.0 5.0e-4 10000 100000

CITE-CITE-CITE-CITE-CITE-CITE-CITE-CITE-CITE-CITE-CITE-CITE-CITE

Your simulation uses code contributions which should be cited:

- Type Label Framework: https://doi.org/10.1021/acs.jpcb.3c08419

@Article{Gissinger24,
 author = {Jacob R. Gissinger, Ilia Nikiforov, Yaser Afshar, Brendon Waters, Moon-ki Choi, Daniel S. Karls, Alexander Stukowski, Wonpil Im, Hendrik Heinz, Axel Kohlmeyer, and Ellad B. Tadmor},
 title = {Type Label Framework for Bonded Force Fields in LAMMPS},
 journal = {J. Phys. Chem. B},
 year =    2024,
 volume =  128,
 number =  13,
 pages =   {3282–-3297}
}

CITE-CITE-CITE-CITE-CITE-CITE-CITE-CITE-CITE-CITE-CITE-CITE-CITE

Switching to 'neigh_modify every 1 delay 0 check yes' setting during minimization
Neighbor list info ...
  update: every = 1 steps, delay = 0 steps, check = yes
  max neighbors/atom: 2000, page size: 100000
  master list distance cutoff = 6.5
  ghost atom cutoff = 6.5
  binsize = 3.25, bins = 7 7 12
  1 neighbor lists, perpetual/occasional/extra = 1 0 0
  (1) pair pace/extrapolation, perpetual
      attributes: full, newton on
      pair build: full/bin/atomonly
      stencil: full/bin/3d
      bin: standard
Per MPI rank memory allocation (min/avg/max) = 4.37 | 4.375 | 4.38 Mbytes
   Step         TotEng         PotEng         KinEng         Press           Temp          Volume        Density     c_max_pace_gamma
         0  -10267.647     -10267.647      0              24119.03       0              14757.882      1.459491       0.7806069    
       100  -10395.841     -10395.841      0              9145.7563      0              14757.882      1.459491       0.7806069    
       200  -10399.128     -10399.128      0              9051.951       0              14757.882      1.459491       0.7806069    
       300  -10400.996     -10400.996      0              8813.1578      0              14757.882      1.459491       0.7806069    
       400  -10401.233     -10401.233      0              8825.7464      0              14757.882      1.459491       0.7806069    
       500  -10401.326     -10401.326      0              8854.1262      0              14757.882      1.459491       0.7806069    
       600  -10401.339     -10401.339      0              8835.4634      0              14757.882      1.459491       0.7806069    
       700  -10401.34      -10401.34       0              8835.0402      0              14757.882      1.459491       0.7806069    
       800  -10401.34      -10401.34       0              8833.9444      0              14757.882      1.459491       0.7806069    
       900  -10401.34      -10401.34       0              8832.7985      0              14757.882      1.459491       0.7806069    
      1000  -10401.34      -10401.34       0              8832.3065      0              14757.882      1.459491       0.87351245   
      1075  -10401.34      -10401.34       0              8831.9222      0              14757.882      1.459491       0.87351245   
Loop time of 45.4738 on 20 procs for 1075 steps with 2160 atoms

99.6% CPU use with 20 MPI tasks x 1 OpenMP threads

Minimization stats:
  Stopping criterion = force tolerance
  Energy initial, next-to-last, final = 
     -10267.6469093095  -10401.3399695482  -10401.3399695565
  Force two-norm initial, final = 75.815043 0.00049654096
  Force max component initial, final = 6.4689651 0.00010950286
  Final line search alpha, max atom move = 1 0.00010950286
  Iterations, force evaluations = 1075 2149

MPI task timing breakdown:
Section |  min time  |  avg time  |  max time  |%varavg| %total
---------------------------------------------------------------
Pair    | 32.189     | 39.09      | 44.357     |  71.2 | 85.96
Neigh   | 0.021217   | 0.023724   | 0.025547   |   0.9 |  0.05
Comm    | 0.9976     | 5.4729     | 11.751     | 156.6 | 12.04
Output  | 0.00082055 | 0.00083216 | 0.00097409 |   0.0 |  0.00
Modify  | 0.0012809  | 0.0021721  | 0.0033008  |   0.9 |  0.00
Other   |            | 0.8847     |            |       |  1.95

Nlocal:            108 ave         118 max          95 min
Histogram: 3 1 2 2 0 1 2 1 3 5
Nghost:        1479.95 ave        1552 max        1409 min
Histogram: 3 2 3 0 0 2 4 2 2 2
Neighs:              0 ave           0 max           0 min
Histogram: 20 0 0 0 0 0 0 0 0 0
FullNghs:      18159.1 ave       21201 max       14645 min
Histogram: 2 3 3 0 0 1 3 3 1 4

Total # of neighbors = 363182
Ave neighs/atom = 168.13981
Neighbor list builds = 56
Dangerous builds = 0

################## equilibration of main calculation
# Equilibrate to specified number of ice

dump            3 all custom 1000 traj.lammpstrj id type element x y z
dump_modify     3 element H O


fix             1 all plumed plumedfile plumed.equil.dat outfile plumed.out
fix             3 all nph z ${pressure} ${pressure} ${pressureDamp}
fix             3 all nph z 30000 ${pressure} ${pressureDamp}
fix             3 all nph z 30000 30000 ${pressureDamp}
fix             3 all nph z 30000 30000 1
fix             4 all temp/csvr ${temperature} ${temperature} ${tempDamp} ${seed}
fix             4 all temp/csvr 460 ${temperature} ${tempDamp} ${seed}
fix             4 all temp/csvr 460 460 ${tempDamp} ${seed}
fix             4 all temp/csvr 460 460 0.1 ${seed}
fix             4 all temp/csvr 460 460 0.1 31735
velocity 	all create ${temperature} ${seed} dist gaussian
velocity 	all create 460 ${seed} dist gaussian
velocity 	all create 460 31735 dist gaussian

run 2000
Per MPI rank memory allocation (min/avg/max) = 3.497 | 3.502 | 3.507 Mbytes
   Step         TotEng         PotEng         KinEng         Press           Temp          Volume        Density     c_max_pace_gamma
      1075  -10272.967     -10401.34       128.37342      18123.087      460            14757.882      1.459491       0.87351245   
      1100  -10268.166     -10323.566      55.399453      24917.716      198.51265      14755.89       1.459688       0.87351245   
      1200  -10237.293     -10319.107      81.813594      24270.989      293.16235      14730.285      1.4622254      0.87351245   
      1300  -10213.347     -10303.536      90.188694      27224.246      323.17281      14690.379      1.4661974      0.87351245   
      1400  -10195.756     -10294.454      98.697275      28328.603      353.66158      14645.905      1.4706498      0.87351245   
      1500  -10181.495     -10288.525      107.02989      29385.385      383.51982      14604.084      1.4748611      0.87351245   
      1600  -10173.732     -10282.766      109.03359      33953.124      390.69964      14571.023      1.4782076      0.87351245   
      1700  -10164.352     -10278.678      114.32574      29652.219      409.66301      14551.148      1.4802266      0.87351245   
      1800  -10156.316     -10271.595      115.27925      32473.446      413.07972      14543.592      1.4809957      0.87351245   
      1900  -10148.74      -10269.486      120.74653      34802.102      432.67059      14548.655      1.4804802      0.87351245   
      2000  -10149.927     -10271.33       121.40288      32394.105      435.0225       14571.997      1.4781087      0.78155831   
      2100  -10146.785     -10267.622      120.8367       33673.762      432.99369      14611.896      1.4740727      0.78155831   
      2200  -10148.112     -10268.32       120.20792      29997.179      430.74059      14659.017      1.4693343      0.78155831   
      2300  -10146.251     -10267.716      121.46534      29846.557      435.24631      14709.634      1.4642782      0.78155831   
      2400  -10143.084     -10265.282      122.19846      29911.684      437.8733       14759.742      1.4593071      0.78155831   
      2500  -10141.625     -10268.146      126.5206       30793.5        453.3608       14808.376      1.4545144      0.78155831   
      2600  -10139.514     -10265.103      125.58963      32234.329      450.02485      14853.908      1.4500559      0.78155831   
      2700  -10140.298     -10262.382      122.08453      27550.21       437.46504      14894.345      1.4461191      0.78155831   
      2800  -10143.819     -10266.812      122.99296      27258.537      440.72023      14920.964      1.4435392      0.78155831   
      2900  -10143.388     -10266.971      123.58305      28562.182      442.83467      14934.522      1.4422287      0.78155831   
      3000  -10143.503     -10265.027      121.52484      30454.723      435.45949      14937.541      1.4419372      0.99652338   
      3075  -10141.712     -10260.536      118.82402      29258.409      425.78167      14934.485      1.4422323      0.99652338   
Loop time of 172.806 on 20 procs for 2000 steps with 2160 atoms

Performance: 0.500 ns/day, 48.002 hours/ns, 11.574 timesteps/s, 24.999 katom-step/s
440.1% CPU use with 20 MPI tasks x 1 OpenMP threads

MPI task timing breakdown:
Section |  min time  |  avg time  |  max time  |%varavg| %total
---------------------------------------------------------------
Pair    | 35.192     | 40.97      | 47.737     |  63.5 | 23.71
Neigh   | 0.08697    | 0.098513   | 0.11095    |   2.2 |  0.06
Comm    | 9.4407     | 13.81      | 17.203     |  55.6 |  7.99
Output  | 0.0021565  | 0.0031913  | 0.0040604  |   0.8 |  0.00
Modify  | 115.51     | 117.92     | 121.82     |  22.3 | 68.24
Other   |            | 0.008647   |            |       |  0.01

Nlocal:            108 ave         121 max          94 min
Histogram: 1 3 2 1 2 4 2 1 2 2
Nghost:        1461.95 ave        1528 max        1412 min
Histogram: 5 1 0 4 2 3 0 1 2 2
Neighs:              0 ave           0 max           0 min
Histogram: 20 0 0 0 0 0 0 0 0 0
FullNghs:      18053.7 ave       21354 max       14761 min
Histogram: 1 3 3 1 1 3 2 2 2 2

Total # of neighbors = 361074
Ave neighs/atom = 167.16389
Neighbor list builds = 199
Dangerous builds = 197

unfix 1
unfix 3
unfix 4

################## main calculation



fix             1 all plumed plumedfile plumed.start.dat outfile plumed.out
fix             3 all nph z ${pressure} ${pressure} ${pressureDamp}
fix             3 all nph z 30000 ${pressure} ${pressureDamp}
fix             3 all nph z 30000 30000 ${pressureDamp}
fix             3 all nph z 30000 30000 1
fix             4 all temp/csvr ${temperature} ${temperature} ${tempDamp} ${seed}
fix             4 all temp/csvr 460 ${temperature} ${tempDamp} ${seed}
fix             4 all temp/csvr 460 460 ${tempDamp} ${seed}
fix             4 all temp/csvr 460 460 0.1 ${seed}
fix             4 all temp/csvr 460 460 0.1 31735
velocity 	all create ${temperature} ${seed} dist gaussian
velocity 	all create 460 ${seed} dist gaussian
velocity 	all create 460 31735 dist gaussian

run             20000
Per MPI rank memory allocation (min/avg/max) = 4.752 | 4.757 | 4.763 Mbytes
   Step         TotEng         PotEng         KinEng         Press           Temp          Volume        Density     c_max_pace_gamma
      3075  -10132.162     -10260.536      128.37342      29941.385      460            14934.485      1.4422323      0.99652338   
      3100  -10133.982     -10260.203      126.22051      28628.296      452.28548      14934.134      1.4422661      0.99652338   
      3200  -10130.747     -10259.846      129.09939      30125.833      462.60135      14930.113      1.4426546      0.99652338   
      3300  -10129.168     -10254.433      125.26549      30088.57       448.86337      14923.32       1.4433113      0.99652338   
      3400  -10128.853     -10256.725      127.87222      28725.766      458.20403      14912.763      1.444333       0.99652338   
      3500  -10128.817     -10255.949      127.13156      29923.511      455.55004      14901.785      1.4453971      0.99652338   
      3600  -10131.863     -10257.59       125.72731      30308.32       450.51822      14889.834      1.4465572      0.99652338   
      3700  -10130.387     -10255.17       124.78318      29761.114      447.13511      14878.31       1.4476777      0.99652338   
      3800  -10129.135     -10256.374      127.23861      30844.121      455.93365      14868.941      1.4485898      0.99652338   
      3900  -10126.97      -10258.826      131.85581      29960.736      472.47843      14858.513      1.4496065      0.99652338   
      4000  -10131.544     -10257.031      125.48734      29979.783      449.65832      14845.238      1.4509027      0.78559039   
      4100  -10131.404     -10258.062      126.65835      30567.365      453.85441      14833.939      1.4520079      0.78559039   
      4200  -10134.889     -10258.901      124.01278      26898.13       444.37454      14824.705      1.4529123      0.78559039   
      4300  -10134.249     -10259.028      124.77908      28668.226      447.1204       14818.898      1.4534816      0.78559039   
      4400  -10132.052     -10257.821      125.76868      31966.794      450.66643      14813.887      1.4539733      0.78559039   
      4500  -10131.113     -10258.344      127.23069      29431.7        455.90524      14809.499      1.4544041      0.78559039   
      4600  -10130.172     -10258.008      127.8359       29732.843      458.07392      14803.713      1.4549726      0.78559039   
      4700  -10131.571     -10259.402      127.83094      32970.728      458.05612      14796.766      1.4556556      0.78559039   
      4800  -10136.274     -10261.399      125.12481      28340.86       448.35926      14794.6        1.4558688      0.78559039   
      4900  -10137.421     -10264.429      127.00833      29486.654      455.10848      14793.158      1.4560107      0.78559039   
      5000  -10138.485     -10261.388      122.90316      26488.985      440.39842      14788.799      1.4564398      0.89693657   
      5100  -10138.195     -10263.812      125.6165       27609.49       450.12114      14782.428      1.4570676      0.89693657   
      5200  -10135.554     -10260.155      124.60087      30338.966      446.48183      14771.745      1.4581213      0.89693657   
      5300  -10134.131     -10258.93       124.79906      32685.567      447.19201      14758.78       1.4594022      0.89693657   
      5400  -10131.033     -10259.398      128.36524      28716.126      459.9707       14747.37       1.4605313      0.89693657   
      5500  -10129.005     -10255.859      126.85419      33582.409      454.55613      14741.926      1.4610708      0.89693657   
      5600  -10129.129     -10257.462      128.3329       30735.973      459.85479      14742.085      1.4610549      0.89693657   
      5700  -10127.514     -10254.055      126.54123      34778.591      453.43471      14751.188      1.4601534      0.89693657   
      5800  -10128.473     -10253.951      125.47805      28353.262      449.62502      14768.86       1.4584062      0.89693657   
      5900  -10126.909     -10252.7        125.79098      34628.365      450.74636      14796.546      1.4556773      0.89693657   
      6000  -10125.624     -10257.742      132.11871      30283.038      473.42049      14831.154      1.4522806      0.86591003   
      6100  -10126.497     -10255.126      128.6288       31086.007      460.91509      14869.829      1.4485033      0.86591003   
      6200  -10129.222     -10255.87       126.64766      32632.602      453.81608      14914.308      1.4441834      0.86591003   
      6300  -10132.399     -10261.246      128.8478       30582.872      461.69985      14955.96       1.4401614      0.86591003   
      6400  -10132.321     -10259.913      127.59131      27423.61       457.19747      14990.217      1.4368702      0.86591003   
      6500  -10127.637     -10252.98       125.34293      25881.8        449.14085      15014.291      1.4345663      0.86591003   
      6600  -10127.666     -10255.951      128.28436      25964.075      459.68086      15028.504      1.4332096      0.86591003   
      6700  -10130.259     -10259.632      129.37312      24642.396      463.58221      15031.142      1.432958       0.86591003   
      6800  -10127.528     -10256.887      129.35923      30517.554      463.53243      15018.273      1.4341859      0.86591003   
      6900  -10127.335     -10253.93       126.59518      26912.442      453.62803      14992.232      1.4366772      0.86591003   
      7000  -10127.233     -10252.847      125.61399      27876.001      450.11214      14956.489      1.4401105      0.75856798   
      7100  -10127.736     -10254.656      126.91953      29147.145      454.79027      14913.675      1.4442447      0.75856798   
      7200  -10122.741     -10251.431      128.69037      33020.397      461.13571      14867.656      1.4487151      0.75856798   
      7300  -10121.933     -10248.771      126.83801      33952.276      454.49815      14821.937      1.4531837      0.75856798   
      7400  -10126.897     -10254.917      128.01918      33961.723      458.73064      14782.358      1.4570745      0.75856798   
      7500  -10128.408     -10251.768      123.36026      36132.084      442.03635      14752.307      1.4600425      0.75856798   
      7600  -10125.146     -10257.432      132.28541      28778.334      474.01783      14733.141      1.4619419      0.75856798   
      7700  -10123.14      -10253.733      130.59346      32937.447      467.95507      14726.311      1.4626199      0.75856798   
      7800  -10126.221     -10254.597      128.37601      32406.682      460.00927      14732.303      1.4620251      0.75856798   
      7900  -10128.494     -10257.811      129.31721      31273.782      463.38189      14753.377      1.4599367      0.75856798   
      8000  -10125.264     -10255.265      130.00157      32529.868      465.83414      14785.065      1.4568077      0.78141404   
      8100  -10122.61      -10250.427      127.8168       35352.035      458.00546      14822.235      1.4531545      0.78141404   
      8200  -10120.651     -10250.579      129.92796      33394.13       465.57038      14858.517      1.4496061      0.78141404   
      8300  -10121.118     -10251.483      130.36503      30275.646      467.13653      14891.75       1.4463711      0.78141404   
      8400  -10122.514     -10252.816      130.30202      31316.45       466.91073      14917.396      1.4438845      0.78141404   
      8500  -10126.355     -10258.53       132.17479      28522.874      473.62143      14931.757      1.4424958      0.78141404   
      8600  -10127.507     -10258.357      130.85034      28391.012      468.87555      14934.85       1.4421971      0.78141404   
      8700  -10125.145     -10253.226      128.08139      30200.994      458.95358      14930.528      1.4426145      0.78141404   
      8800  -10122.701     -10255.095      132.39407      27832.588      474.40717      14923.462      1.4432975      0.78141404   
      8900  -10122.762     -10254.328      131.56583      30168.833      471.43936      14917.463      1.443878       0.78141404   
      9000  -10120.437     -10248.86       128.42208      29389.278      460.17435      14913.415      1.4442699      0.77712074   
      9100  -10120.886     -10254.074      133.1884       32192.292      477.2535       14909.226      1.4446757      0.77712074   
      9200  -10123.788     -10252.147      128.35911      34857.625      459.94874      14905.442      1.4450424      0.77712074   
      9300  -10121.987     -10253.613      131.62628      29599.176      471.65594      14897.257      1.4458365      0.77712074   
      9400  -10123.214     -10254.864      131.64924      31262.067      471.73824      14884.49       1.4470766      0.77712074   
      9500  -10124.902     -10255.835      130.93293      28682.095      469.17149      14870.571      1.4484311      0.77712074   
      9600  -10124.969     -10256.992      132.02261      31379.256      473.07614      14856.871      1.4497667      0.77712074   
      9700  -10126.389     -10257.402      131.01324      30672.008      469.45924      14841.86       1.451233       0.77712074   
      9800  -10124.028     -10252.815      128.78744      31702.95       461.48357      14826.522      1.4527342      0.77712074   
      9900  -10120.765     -10254.249      133.48309      33712.837      478.30946      14812.958      1.4540645      0.77712074   
     10000  -10120.457     -10252.89       132.43276      38834.598      474.54582      14804.901      1.4548559      0.74879208   
     10100  -10119.921     -10254.036      134.11511      32134.378      480.57418      14806.045      1.4547435      0.74879208   
     10200  -10119.939     -10252.658      132.71826      34226.065      475.56885      14811.27       1.4542302      0.74879208   
     10300  -10117.723     -10249.741      132.01811      33184.524      473.05999      14823.067      1.4530728      0.74879208   
     10400  -10120.39      -10253.033      132.64255      29426.378      475.29757      14843.314      1.4510908      0.74879208   
     10500  -10120.036     -10249.703      129.66686      29810.361      464.63476      14863.617      1.4491087      0.74879208   
     10600  -10124.137     -10254.922      130.78432      29311.727      468.63897      14886.213      1.4469091      0.74879208   
     10700  -10127.645     -10255.249      127.60313      31392.928      457.23982      14904.152      1.4451675      0.74879208   
     10800  -10128.052     -10255.801      127.74951      32823.132      457.76433      14914.78       1.4441377      0.74879208   
     10900  -10125.764     -10255.069      129.30473      27930.763      463.33716      14915.433      1.4440745      0.74879208   
     11000  -10121.977     -10252.805      130.82874      27112.007      468.79815      14907.141      1.4448777      0.7722857    
     11100  -10120.732     -10254.85       134.11813      30421.247      480.585        14893.19       1.4462313      0.7722857    
     11200  -10125.369     -10254.206      128.83709      29292.406      461.66146      14880.809      1.4474345      0.7722857    
     11300  -10126.296     -10254.721      128.42469      29717.089      460.1837       14869.023      1.4485818      0.7722857    
     11400  -10129.826     -10254.71       124.88424      30276.862      447.49725      14858.291      1.4496281      0.7722857    
     11500  -10128.604     -10258.432      129.8272       29358.038      465.20934      14848.65       1.4505693      0.7722857    
     11600  -10126.405     -10256.736      130.33183      33053.382      467.01756      14835.916      1.4518144      0.7722857    
     11700  -10127.604     -10253.4        125.79517      29958.692      450.76137      14825.831      1.452802       0.7722857    
     11800  -10128.073     -10257.53       129.45731      31714.433      463.88388      14820.339      1.4533403      0.7722857    
     11900  -10126.201     -10255.528      129.32698      31937.97       463.41689      14820.335      1.4533407      0.7722857    
     12000  -10125.765     -10254.883      129.11756      26483.637      462.66648      14827.643      1.4526244      0.84937393   
     12100  -10128.037     -10256.526      128.48863      23372.439      460.41282      14838.223      1.4515887      0.84937393   
     12200  -10129.003     -10259.185      130.18243      30381.655      466.48222      14848.063      1.4506267      0.84937393   
     12300  -10131.989     -10258.966      126.97772      27400.157      454.99879      14859.799      1.4494811      0.84937393   
     12400  -10130.811     -10258.358      127.54635      27726.527      457.03637      14871.616      1.4483292      0.84937393   
     12500  -10129.927     -10258.879      128.9517       28764.765      462.07215      14882.918      1.4472294      0.84937393   
     12600  -10129.724     -10258.331      128.60734      29081.332      460.83821      14891.259      1.4464187      0.84937393   
     12700  -10129.653     -10258.009      128.3565       30601.934      459.93936      14894.605      1.4460938      0.84937393   
     12800  -10130.793     -10259.138      128.34505      27729.307      459.89834      14896.205      1.4459385      0.84937393   
     12900  -10132.02      -10261.195      129.17526      31613.707      462.87322      14896.592      1.4459009      0.84937393   
     13000  -10127.486     -10256.422      128.93599      31927.426      462.01584      14896.382      1.4459213      0.88077667   
     13100  -10127.28      -10258.639      131.35873      31470.808      470.69726      14895.483      1.4460086      0.88077667   
     13200  -10129.49      -10257.958      128.46846      34027.484      460.34055      14893.817      1.4461704      0.88077667   
     13300  -10128.619     -10255.825      127.20618      33219.405      455.81742      14888.453      1.4466913      0.88077667   
     13400  -10129.238     -10257.02       127.78212      33114.865      457.88119      14877.979      1.4477098      0.88077667   
     13500  -10130.182     -10258.242      128.0605       31470.461      458.87871      14864.221      1.4490498      0.88077667   
     13600  -10131.31      -10255.444      124.13398      30088.067      444.80882      14846.65       1.4507647      0.88077667   
     13700  -10132.969     -10261.002      128.03222      27853.909      458.77737      14827.083      1.4526793      0.88077667   
     13800  -10132.7       -10257.841      125.14165      33530.032      448.41959      14809.743      1.4543802      0.88077667   
     13900  -10134.688     -10261.19       126.50262      30513.207      453.29636      14796.241      1.4557073      0.88077667   
     14000  -10136.67      -10262.526      125.85568      29196.644      450.97819      14788.209      1.456498       0.75380072   
     14100  -10133.607     -10258.545      124.93846      27897.149      447.69153      14787.105      1.4566067      0.75380072   
     14200  -10135.414     -10262.229      126.81515      32742.938      454.41627      14795.087      1.4558209      0.75380072   
     14300  -10133.86      -10261.931      128.07085      28438.218      458.91579      14807.884      1.4545628      0.75380072   
     14400  -10132.562     -10260.99       128.42784      29802.748      460.195        14826.816      1.4527054      0.75380072   
     14500  -10132.205     -10261.637      129.43218      30002.928      463.79387      14849.3        1.4505059      0.75380072   
     14600  -10134.145     -10257.085      122.9404       29653.99       440.53189      14870.87       1.4484019      0.75380072   
     14700  -10130.696     -10259.628      128.93183      29156.817      462.00096      14890.364      1.4465057      0.75380072   
     14800  -10130.582     -10258.359      127.77708      28576.096      457.86313      14906.157      1.4449731      0.75380072   
     14900  -10131.551     -10258.837      127.28553      31102.424      456.10175      14916.965      1.4439262      0.75380072   
     15000  -10131.244     -10260.931      129.6874       27543.083      464.70838      14922.934      1.4433487      0.77176088   
     15100  -10132.333     -10261.395      129.06205      30937.545      462.46756      14919.836      1.4436484      0.77176088   
     15200  -10130.35      -10257.346      126.9966       27989.16       455.06646      14910.894      1.4445141      0.77176088   
     15300  -10131.681     -10256.908      125.22625      28809.431      448.72274      14897.152      1.4458466      0.77176088   
     15400  -10131.386     -10257.679      126.29203      31293.624      452.54176      14880.412      1.4474732      0.77176088   
     15500  -10131.368     -10258.625      127.25662      30267.671      455.99819      14860.588      1.449404       0.77176088   
     15600  -10128.932     -10253.561      124.62967      31834.781      446.58505      14836.117      1.4517947      0.77176088   
     15700  -10129.111     -10259.996      130.88519      29635.564      469.00042      14808.075      1.454544       0.77176088   
     15800  -10127.514     -10257.481      129.96681      33287.944      465.70958      14782.24       1.4570861      0.77176088   
     15900  -10126.475     -10256.266      129.7915       30766.998      465.08141      14761.049      1.4591779      0.77176088   
     16000  -10127.406     -10256.059      128.65361      33448.392      461.004        14746.235      1.4606438      0.79366331   
     16100  -10127.45      -10257.381      129.93115      31108.885      465.58181      14736.299      1.4616287      0.79366331   
     16200  -10125.68      -10259.291      133.61122      27610.839      478.7686       14732.887      1.4619672      0.79366331   
     16300  -10126.39      -10252.834      126.4441       33478.647      453.08669      14737.785      1.4614812      0.79366331   
     16400  -10128.238     -10258.528      130.29023      31258.637      466.8685       14752.562      1.4600174      0.79366331   
     16500  -10127.746     -10256.523      128.77662      31500.868      461.4448       14771.114      1.4581836      0.79366331   
     16600  -10128.381     -10260.562      132.18107      29213.179      473.64392      14792.445      1.4560809      0.79366331   
     16700  -10130.329     -10258.564      128.23446      31655.339      459.50208      14814.934      1.4538706      0.79366331   
     16800  -10133.409     -10263.392      129.98297      29118.988      465.7675       14837.628      1.4516469      0.79366331   
     16900  -10131.823     -10261.863      130.04081      30462.792      465.97476      14858.186      1.4496383      0.79366331   
     17000  -10134.372     -10257.445      123.07221      32368.655      441.00418      14875.652      1.4479363      0.82199649   
     17100  -10135.265     -10262.105      126.83971      28269.301      454.50425      14892.003      1.4463465      0.82199649   
     17200  -10137.912     -10263.427      125.51425      28082.111      449.75474      14902.18       1.4453587      0.82199649   
     17300  -10140.177     -10264.814      124.63753      24942.473      446.6132       14904.683      1.445116       0.82199649   
     17400  -10137.171     -10262.149      124.97791      29058.725      447.83288      14898.63       1.4457031      0.82199649   
     17500  -10137.847     -10264.13       126.28277      28817.116      452.50858      14888.153      1.4467206      0.82199649   
     17600  -10133.498     -10262.285      128.78698      28766.704      461.4819       14871.928      1.4482988      0.82199649   
     17700  -10132.404     -10262.971      130.56701      30936.602      467.8603       14852.722      1.4501717      0.82199649   
     17800  -10131.133     -10261.7        130.56735      29514.366      467.86151      14832.412      1.4521574      0.82199649   
     17900  -10130.001     -10260.144      130.1429       29969.409      466.34055      14814.309      1.4539319      0.82199649   
     18000  -10131.082     -10260.729      129.64764      28022.237      464.56589      14802.525      1.4550894      0.75262225   
     18100  -10129.06      -10258.128      129.06825      31452.039      462.48977      14793.016      1.4560247      0.75262225   
     18200  -10129.484     -10259.987      130.50328      32946.667      467.63192      14784.71       1.4568427      0.75262225   
     18300  -10131.978     -10259.693      127.71521      31880.213      457.64142      14781.094      1.4571991      0.75262225   
     18400  -10134.195     -10260.892      126.69723      31809.219      453.99371      14781.412      1.4571677      0.75262225   
     18500  -10135.4       -10264.458      129.05742      31847.979      462.45097      14785.211      1.4567933      0.75262225   
     18600  -10132.51      -10261.924      129.41382      30266.343      463.72806      14788.574      1.456462       0.75262225   
     18700  -10135.247     -10262.597      127.34988      33407.748      456.33234      14790.122      1.4563095      0.75262225   
     18800  -10136.776     -10264.723      127.94672      30165.193      458.47101      14793.496      1.4559775      0.75262225   
     18900  -10136.178     -10265          128.82183      31037.297      461.6068       14794.327      1.4558956      0.75262225   
     19000  -10135.179     -10265.366      130.18696      31210.273      466.49844      14794.55       1.4558737      0.81624667   
     19100  -10134.35      -10264.383      130.03336      25950.512      465.94805      14794.45       1.4558836      0.81624667   
     19200  -10133.687     -10260.207      126.51953      28842.59       453.35695      14793.975      1.4559303      0.81624667   
     19300  -10132.549     -10261.599      129.05015      28869.261      462.42491      14793.122      1.4560142      0.81624667   
     19400  -10129.573     -10258.378      128.80472      30181.353      461.54547      14791.128      1.4562106      0.81624667   
     19500  -10125.623     -10253.1        127.47703      31226.939      456.78795      14787.793      1.456539       0.81624667   
     19600  -10129.115     -10258.278      129.16292      29817.678      462.82901      14785.853      1.45673        0.81624667   
     19700  -10130.704     -10261.077      130.37301      30418.583      467.16511      14783.158      1.4569956      0.81624667   
     19800  -10129.137     -10260.131      130.99391      25426.544      469.38999      14781.516      1.4571575      0.81624667   
     19900  -10128.625     -10257.62       128.99587      30449.532      462.23044      14778.996      1.457406       0.81624667   
     20000  -10131.568     -10260.49       128.92175      28685.928      461.96482      14776.173      1.4576844      0.75101112   
     20100  -10131.861     -10259.519      127.65715      30127.404      457.4334       14772.178      1.4580786      0.75101112   
     20200  -10132.478     -10259.011      126.53292      31302.857      453.40495      14771.248      1.4581704      0.75101112   
     20300  -10133.78      -10261.478      127.69757      26893.715      457.57824      14770.62       1.4582324      0.75101112   
     20400  -10132.579     -10259.73       127.15171      30973.974      455.62225      14771.722      1.4581236      0.75101112   
     20500  -10133.54      -10261.787      128.24639      31110.071      459.5448       14773.354      1.4579626      0.75101112   
     20600  -10134.298     -10265.517      131.21899      30754.878      470.1965       14774.927      1.4578073      0.75101112   
     20700  -10137.141     -10266.101      128.96021      28658.923      462.10265      14776.815      1.457621       0.75101112   
     20800  -10137.417     -10266.154      128.73684      28796.571      461.30223      14777.847      1.4575193      0.75101112   
     20900  -10137.577     -10265.387      127.80983      28633.03       457.98049      14775.228      1.4577776      0.75101112   
     21000  -10139.043     -10264.964      125.92089      29050.601      451.21184      14770.619      1.4582324      0.85930458   
     21100  -10137.522     -10262.617      125.09463      31101.369      448.25111      14764.374      1.4588493      0.85930458   
     21200  -10133.991     -10259.317      125.32607      29106.736      449.08043      14752.437      1.4600297      0.85930458   
     21300  -10133.239     -10261.57       128.33115      29378.54       459.84853      14737.734      1.4614863      0.85930458   
     21400  -10131.545     -10261.743      130.1982       28655.526      466.53873      14721.589      1.4630891      0.85930458   
     21500  -10129.463     -10259.12       129.65694      33171.566      464.59925      14706.364      1.4646038      0.85930458   
     21600  -10131.999     -10259.635      127.63525      31070.468      457.35493      14695.868      1.4656499      0.85930458   
     21700  -10134.724     -10257.868      123.14409      29282.216      441.26176      14690.885      1.4661469      0.85930458   
     21800  -10134.803     -10262.744      127.94024      31862.513      458.44779      14694.77       1.4657594      0.85930458   
     21900  -10133.831     -10260.096      126.26544      32190.793      452.44646      14706.273      1.4646129      0.85930458   
     22000  -10132.161     -10264.293      132.13195      29968.357      473.46794      14724.67       1.462783       0.81772338   
     22100  -10133.577     -10258.966      125.38873      32251.719      449.30497      14746.63       1.4606046      0.81772338   
     22200  -10134.106     -10260.219      126.11335      32105.196      451.90148      14771.479      1.4581476      0.81772338   
     22300  -10135.059     -10264.377      129.31735      29298.991      463.38236      14796.83       1.4556494      0.81772338   
     22400  -10132.97      -10260.307      127.33673      29302.405      456.28521      14816.367      1.4537299      0.81772338   
     22500  -10134.482     -10262.883      128.40104      32759.517      460.09896      14831.591      1.4522378      0.81772338   
     22600  -10131.502     -10260.098      128.5962       31026.331      460.79829      14841.695      1.451249       0.81772338   
     22700  -10130.371     -10260.352      129.98071      31505.87       465.7594       14848.97       1.4505381      0.81772338   
     22800  -10130.332     -10260.883      130.5509       28962.952      467.80256      14853.17       1.4501279      0.81772338   
     22900  -10131.398     -10261.707      130.30884      27939.238      466.93519      14852.886      1.4501556      0.81772338   
     23000  -10132.879     -10260.248      127.36969      27991.013      456.40334      14847.093      1.4507214      0.76798706   
     23075  -10131.888     -10259.96       128.07185      29317.497      458.91938      14837.607      1.451649       0.76798706   
Loop time of 1729.61 on 20 procs for 20000 steps with 2160 atoms

Performance: 0.500 ns/day, 48.045 hours/ns, 11.563 timesteps/s, 24.977 katom-step/s
439.9% CPU use with 20 MPI tasks x 1 OpenMP threads

MPI task timing breakdown:
Section |  min time  |  avg time  |  max time  |%varavg| %total
---------------------------------------------------------------
Pair    | 352.38     | 409.88     | 470.34     | 192.9 | 23.70
Neigh   | 0.87061    | 0.96847    | 1.0833     |   6.4 |  0.06
Comm    | 101.61     | 138.54     | 173.11     | 170.0 |  8.01
Output  | 0.018045   | 0.026464   | 0.038377   |   2.6 |  0.00
Modify  | 1156.4     | 1180.1     | 1221       |  69.1 | 68.23
Other   |            | 0.08966    |            |       |  0.01

Nlocal:            108 ave         117 max          94 min
Histogram: 1 1 1 2 3 1 3 2 2 4
Nghost:         1468.2 ave        1518 max        1403 min
Histogram: 1 2 3 2 3 1 0 0 0 8
Neighs:              0 ave           0 max           0 min
Histogram: 20 0 0 0 0 0 0 0 0 0
FullNghs:      18186.6 ave       20795 max       14620 min
Histogram: 2 1 1 1 3 3 1 2 2 4

Total # of neighbors = 363732
Ave neighs/atom = 168.39444
Neighbor list builds = 2000
Dangerous builds = 2000

unfix		1
unfix		3
unfix		4
Total wall time: 0:32:28
