ITEM: TIMESTEP
2000
ITEM: NUMBER OF ATOMS
2160
ITEM: BOX BOUNDS pp pp pp
0.0000000000000000e+00 2.0254784326004433e+01
0.0000000000000000e+00 2.0261830740956661e+01
2.2646851675195084e-01 3.5733369898448125e+01
ITEM: ATOMS id type element x y z
532 1 H 7.59093 1.35733 0.530384
1303 1 H 1.83254 2.69917 1.81454
1517 2 O 6.13993 2.55864 0.625966
2092 2 O 1.44135 2.65408 2.72956
1304 1 H 2.26054 2.82534 3.25149
336 1 H 0.689372 0.482408 3.17391
609 1 H 9.91152 5.5662 5.48184
153 1 H 5.86906 3.39799 0.886177
1701 2 O 7.47005 7.70755 4.78703
485 1 H 5.39175 1.37941 2.82966
1763 2 O 5.47802 2.07424 3.52074
1505 2 O 9.63143 6.39008 5.89768
483 1 H 7.11042 3.03364 3.54849
980 1 H 0.0860151 5.52233 5.09533
1150 1 H 9.49552 2.64741 3.35665
1706 2 O 8.55605 1.13015 0.624609
979 1 H 8.63153 0.751288 1.51618
15 1 H 1.18752 5.61548 2.48236
31 1 H 4.15449 4.62696 1.37675
666 1 H 8.67089 2.75826 0.985456
1266 1 H 3.21036 6.69795 1.77018
1756 2 O 2.58341 4.28318 0.506072
1929 2 O 2.53626 6.57055 2.54539
1448 2 O 0.275593 5.12743 2.72031
12 1 H 7.28554 5.62655 1.45799
32 1 H 5.043 4.5919 2.53587
797 1 H 6.42107 6.98564 2.91494
1456 2 O 5.04038 4.88283 1.61867
798 1 H 5.1416 6.35343 2.45725
1773 2 O 8.83066 3.72646 0.875307
11 1 H 8.68877 6.3387 1.72855
665 1 H 8.94945 3.98926 1.80289
1529 2 O 3.06555 9.94195 1.17709
146 1 H 3.99966 9.74348 2.49545
1446 2 O 7.75224 6.3278 1.95991
1696 2 O 10.0032 3.48583 5.96891
337 1 H 2.23475 9.46093 1.28663
647 1 H 9.69639 4.27771 3.8237
1607 2 O 3.91432 6.75182 0.451903
1137 1 H 2.24374 7.33973 3.03833
490 1 H 0.714577 7.61101 0.375131
1452 2 O 3.1981 9.9805 5.85121
17 1 H 5.08643 8.88804 3.27679
154 1 H 5.31651 2.01438 0.624948
663 1 H 6.43525 8.79848 1.29687
1609 2 O 4.6334 9.73331 3.25804
1772 2 O 5.87636 8.86369 0.515266
1839 2 O 5.41193 7.15673 2.96907
347 1 H 8.31543 9.9359 1.85131
23 1 H 3.41247 10.0996 6.7872
1614 2 O 7.77454 9.39992 2.52766
35 1 H 3.37127 0.465397 5.51851
4 1 H 2.34037 0.969225 4.44377
1133 1 H 3.02523 2.43939 5.77857
1442 2 O 3.16951 1.27158 4.82936
2007 2 O 3.02144 3.16354 6.42183
626 1 H 5.83451 0.809328 5.51091
646 1 H 4.54905 2.19193 3.66216
1692 2 O 6.51588 2.25725 6.80547
504 1 H 6.43396 3.13987 6.46655
1746 2 O 7.98391 3.32682 3.94447
1309 1 H 8.20434 1.33575 5.10208
43 1 H 5.57584 4.96324 6.92666
2095 2 O 8.81125 0.538876 4.99043
22 1 H 5.71176 9.12704 6.8556
16 1 H 0.460841 4.64888 3.5252
1930 2 O 0.717722 4.71146 5.05908
54 1 H 3.1614 5.36082 3.67785
1013 1 H 3.30874 4.12236 4.73614
1178 1 H 1.82715 5.57136 5.98089
1547 2 O 3.79357 4.70981 4.06776
481 1 H 5.20391 5.03758 4.94882
1441 2 O 6.18193 5.10418 5.31511
674 1 H 6.33893 6.06025 5.20195
612 1 H 7.61192 3.87754 4.63437
1688 2 O 9.8643 9.85341 5.83433
511 1 H 9.1716 3.45477 6.4912
981 1 H 6.68372 8.97646 5.65066
631 1 H 2.20584 5.07225 0.943281
41 1 H 1.40103 9.2522 4.22136
42 1 H 1.5987 7.85623 5.0619
1177 1 H 3.14941 6.4546 6.2416
1461 2 O 1.25356 8.23865 4.25815
2029 2 O 2.19927 6.44689 6.38752
522 1 H 8.19327 7.16819 5.19736
1531 2 O 6.22694 9.6476 6.18855
191 1 H 8.50283 8.31937 0.427068
1771 2 O 4.80497 7.41441 5.48185
502 1 H 5.1335 7.17618 4.51231
21 1 H 4.27811 8.12662 5.08251
521 1 H 7.91537 8.15783 4.07739
147 1 H 0.30397 3.99114 5.58996
325 1 H 2.83049 0.340612 1.81004
1685 2 O 0.819415 8.56646 0.635339
1134 1 H 2.15174 2.83623 6.80275
1443 2 O 3.67983 0.148712 2.28097
44 1 H 4.09025 4.40342 7.22949
664 1 H 5.32259 8.04471 0.674776
173 1 H 0.787023 0.515322 7.20025
190 1 H 8.81442 8.30423 7.10411
539 1 H 8.09841 5.63008 6.84373
24 1 H 4.10378 10.0645 5.35614
211 1 H 0.0561267 9.25808 12.5341
174 1 H 0.578827 1.52662 8.45078
215 1 H 2.34099 9.86607 9.43055
1468 2 O 2.91584 3.05511 9.57268
1527 2 O 1.33404 1.02975 7.91988
57 1 H 3.60393 1.03253 7.61943
706 1 H 7.06853 7.03762 13.2318
40 1 H 5.98481 2.70488 9.96132
55 1 H 3.33743 2.23464 9.09554
691 1 H 6.99387 8.86572 12.3464
1698 2 O 9.71547 2.85419 12.6782
1469 2 O 4.30736 1.29164 8.2277
1700 2 O 6.48993 3.19441 9.27114
75 1 H 5.43217 5.39027 14.1027
707 1 H 9.46552 9.04842 13.3579
1866 2 O 9.68546 3.10782 9.38686
1 1 H 1.5224 4.92897 7.70456
218 1 H 4.26298 7.66517 7.34457
194 1 H 1.32772 3.8551 8.83368
1539 2 O 2.84847 6.27607 9.40144
1921 2 O 0.892507 4.2901 8.12434
39 1 H 5.71581 3.59108 8.71042
56 1 H 3.64638 3.54702 10.0653
198 1 H 3.38667 5.4749 9.19892
534 1 H 5.70286 5.9648 10.0489
1462 2 O 4.85888 4.8345 7.65236
1787 2 O 6.43498 6.35919 9.48752
1562 2 O 6.33282 9.50753 12.7519
854 1 H 5.44426 0.259355 8.92395
1299 1 H 9.17517 3.77128 8.95638
540 1 H 7.51267 5.24834 8.35639
58 1 H 4.9717 1.65281 7.62964
1710 2 O 7.9038 4.88022 7.51305
1779 2 O 9.91767 6.2788 9.68754
244 1 H 5.80582 8.86081 13.263
782 1 H 0.450029 8.67872 8.5226
1548 2 O 2.93385 9.42189 10.0459
1831 2 O 1.17931 8.89289 7.8585
50 1 H 2.44244 0.235703 12.5266
37 1 H 3.36578 6.78812 10.0393
53 1 H 5.92896 6.96604 8.81422
217 1 H 3.92319 8.46148 8.74192
1543 2 O 4.491 7.7639 11.1756
1549 2 O 4.64218 8.20707 8.0699
1780 2 O 6.30992 9.62653 9.73613
189 1 H 8.98019 7.26394 8.40843
572 1 H 7.77348 4.27255 14.0211
200 1 H 6.86935 9.20625 9.05591
1535 2 O 8.31524 7.76859 7.7577
1788 2 O 9.82323 9.47476 9.54729
695 1 H 9.42491 10.098 8.88257
38 1 H 2.75393 0.111319 10.1248
61 1 H 0.943502 0.737806 10.6453
62 1 H 1.84555 2.0481 10.6002
51 1 H 0.104969 2.55764 12.1961
67 1 H 2.55088 2.21168 13.3728
1458 2 O 3.15938 2.66503 12.7592
1471 2 O 1.33945 1.40028 11.235
45 1 H 4.01454 1.80064 11.6742
46 1 H 4.72307 0.478427 11.6111
701 1 H 8.65561 8.34903 10.5603
84 1 H 5.70292 2.56175 13.0401
1463 2 O 4.5364 1.25859 11.0537
1482 2 O 6.24623 3.12771 12.4331
542 1 H 7.1248 0.766496 10.5033
241 1 H 3.66437 7.18664 13.5352
531 1 H 6.76499 2.4735 11.9149
541 1 H 8.53588 1.68984 10.2992
66 1 H 0.250511 0.161241 13.6941
547 1 H 9.06883 2.2346 13.1605
702 1 H 7.69579 7.23604 10.7803
1711 2 O 7.88774 1.29667 10.8894
690 1 H 9.56269 7.07332 12.6279
36 1 H 2.57396 3.09975 12.1357
47 1 H 2.09279 5.01627 11.0417
48 1 H 0.974231 3.78898 10.8417
226 1 H 0.415634 6.82944 13.3205
1791 2 O 8.16971 7.88233 11.3131
1464 2 O 1.39617 4.43552 11.4601
1481 2 O 3.2461 6.34652 13.0819
29 1 H 0.274758 6.19845 9.1195
63 1 H 4.12244 5.37721 11.8506
64 1 H 5.20406 4.3146 11.4013
1457 2 O 6.35046 6.47238 12.7817
1472 2 O 4.56363 4.91858 11.0739
781 1 H 1.40287 7.9692 7.57749
527 1 H 7.48065 4.2673 10.7478
513 1 H 6.86845 5.81146 12.2346
516 1 H 9.04056 3.43047 12.2453
528 1 H 8.72972 5.15436 10.5964
571 1 H 8.95657 5.23884 14.1479
92 1 H 1.65539 4.28387 13.8833
1704 2 O 8.00469 4.91281 11.3111
1721 2 O 9.90829 6.38377 13.2725
221 1 H 2.09727 8.45345 11.2457
210 1 H 2.61047 6.80511 12.4536
503 1 H 6.79139 2.5085 7.76731
222 1 H 1.17075 7.17838 11.0462
76 1 H 4.46364 4.17176 14.0715
227 1 H 2.52304 9.29373 13.7251
1538 2 O 3.08202 9.99548 13.3284
1551 2 O 1.50187 7.73524 11.7523
205 1 H 5.00084 8.5046 10.8388
206 1 H 5.23573 7.46493 11.724
530 1 H 8.87338 0.206847 12.2236
33 1 H 0.0671447 5.57073 12.7336
1778 2 O 10.0201 9.74294 12.8403
561 1 H 10.0291 0.148827 13.304
73 1 H 1.06622 1.9535 15.1823
74 1 H 1.91525 0.47056 15.065
93 1 H 1.86564 2.05592 17.6427
94 1 H 0.984967 0.781206 17.6457
1477 2 O 1.48279 1.26631 14.6148
1484 2 O 3.31501 2.94944 16.1368
1717 2 O 7.8261 1.33309 14.5616
72 1 H 6.16239 2.35876 16.91
89 1 H 4.11895 1.91763 14.9104
90 1 H 5.21787 0.869585 15.2396
83 1 H 0.142556 2.27969 19.2634
1716 2 O 6.60881 3.12557 16.3811
1479 2 O 4.67871 1.38917 17.8694
553 1 H 7.61656 2.16726 15.0366
554 1 H 8.33068 0.810543 15.2872
573 1 H 8.45686 1.97698 17.4908
574 1 H 7.41093 0.753275 17.5721
1807 2 O 8.31619 8.12835 18.1385
1794 2 O 9.89794 9.95009 19.664
79 1 H 0.860344 4.00404 17.3693
80 1 H 2.25328 4.80429 17.2861
562 1 H 9.10815 0.279103 19.0946
88 1 H 2.7387 3.52321 15.5848
1486 2 O 1.68503 4.82642 14.746
1555 2 O 3.21974 6.34925 16.3455
69 1 H 4.06992 5.90245 16.0207
71 1 H 5.91775 3.55632 15.8894
85 1 H 6.09448 5.90619 16.6042
87 1 H 3.82501 3.6598 16.6442
1742 2 O 8.33119 4.74313 21.4257
1488 2 O 4.99721 4.76461 17.8904
1803 2 O 6.64914 6.39512 15.945
559 1 H 7.47487 4.12 17.7034
560 1 H 8.55942 5.18721 17.4623
566 1 H 7.26745 5.66674 15.6065
568 1 H 9.35428 3.61446 15.779
550 1 H 9.97054 0.242794 16.7146
1795 2 O 9.69143 6.50373 16.0789
233 1 H 1.0185 8.4937 15.2282
234 1 H 2.24773 7.78488 15.1724
253 1 H 2.06171 8.80799 17.528
254 1 H 0.966994 7.69026 17.3468
1557 2 O 1.56505 8.0117 14.5615
1564 2 O 3.10451 9.75843 16.3591
230 1 H 3.56017 7.18397 16.7379
232 1 H 5.89529 8.90027 16.8067
249 1 H 4.21659 8.80093 15.0786
250 1 H 5.20113 7.59257 15.2279
1559 2 O 4.71204 8.05909 17.9896
728 1 H 9.25781 10.0956 15.906
1796 2 O 6.40139 9.55182 16.3005
713 1 H 7.36312 8.50905 14.9209
714 1 H 8.63166 7.64492 15.2196
733 1 H 8.8781 8.61788 17.5703
734 1 H 7.78544 7.61261 17.4398
1485 2 O 4.52663 1.1325 14.5418
1804 2 O 9.79308 9.4641 16.4282
82 1 H 2.42118 0.192131 19.1311
98 1 H 0.461343 0.125139 20.5356
1724 2 O 9.50659 2.9159 16.4002
99 1 H 2.47306 2.61908 19.9397
1474 2 O 3.06795 3.31449 19.644
1487 2 O 1.43294 1.4242 18.2272
1493 2 O 1.64818 1.27386 21.3372
77 1 H 4.38821 2.04316 18.4713
78 1 H 5.06306 0.742558 18.4773
1797 2 O 8.24786 8.33151 14.5912
116 1 H 5.57772 2.62285 20.0973
1498 2 O 6.27657 3.2028 19.6207
1726 2 O 8.38832 4.62091 14.6579
723 1 H 7.06218 9.18051 19.1541
563 1 H 6.82952 2.58864 19.0875
86 1 H 0.370063 5.7673 15.9218
579 1 H 9.37816 2.7691 20.5247
1714 2 O 10.0055 3.03736 19.7762
1727 2 O 7.9315 1.44307 18.1287
1478 2 O 4.97289 4.78728 14.675
1565 2 O 4.65803 8.04762 14.5579
68 1 H 2.49919 3.86342 19.0794
123 1 H 1.55896 5.37229 20.5985
124 1 H 0.613461 4.1448 20.6847
1480 2 O 1.50104 4.58272 17.8835
1497 2 O 3.01498 6.38234 19.4325
1581 2 O 4.82424 8.06332 21.1141
95 1 H 4.38236 5.2344 18.4374
96 1 H 5.55196 4.26014 18.592
107 1 H 5.26103 5.52895 21.1921
108 1 H 4.17905 4.42958 20.9787
1473 2 O 6.37507 6.51406 19.5065
739 1 H 9.34102 9.31595 20.1564
1720 2 O 8.11814 4.676 18.1723
545 1 H 7.01822 5.92346 18.9647
548 1 H 9.47017 3.7373 19.3682
603 1 H 9.00998 5.23115 20.9462
604 1 H 7.65791 4.56784 20.7076
1737 2 O 10.0795 6.10407 19.68
722 1 H 9.56927 6.80322 19.1565
242 1 H 2.69447 7.06283 18.8511
1502 2 O 1.07935 4.80768 21.2647
738 1 H 6.94607 7.11718 19.9844
259 1 H 2.43442 9.2403 19.9562
1554 2 O 3.19054 9.84414 19.6938
1567 2 O 1.30632 8.36304 17.9692
1573 2 O 1.21458 8.26117 21.3554
237 1 H 4.14082 8.73039 18.5483
238 1 H 5.2506 7.54114 18.5698
273 1 H 3.73244 6.74937 19.9563
276 1 H 5.87983 9.34196 20.2778
1578 2 O 6.48191 9.86097 19.5547
1813 2 O 8.09783 8.22281 21.1597
258 1 H 0.359228 7.16033 20.164
113 1 H 3.59698 0.0110084 20.0995
91 1 H 2.36883 5.52483 14.505
934 1 H 6.74329 9.06641 25.7375
586 1 H 7.19515 2.0113 22.1286
119 1 H 2.36947 2.89351 23.6654
122 1 H 5.06718 1.17048 22.3258
1500 2 O 2.86175 3.48538 23.144
1514 2 O 1.25625 1.26244 24.6231
121 1 H 3.83829 2.10578 22.0971
103 1 H 5.57671 2.72837 23.6064
1835 2 O 9.95579 6.12133 26.8783
1732 2 O 6.32155 3.09839 23.0954
1990 2 O 4.42615 1.68631 24.5838
1099 1 H 5.15417 1.31721 25.1258
1100 1 H 3.8399 2.22041 25.2033
105 1 H 0.818776 1.66458 21.6957
580 1 H 7.43909 1.76276 25.4303
594 1 H 5.77615 0.185251 27.7634
599 1 H 9.6515 2.43794 23.4186
611 1 H 7.69885 0.917149 24.2295
1730 2 O 8.18012 1.40359 24.9566
111 1 H 5.69916 6.94481 25.6276
265 1 H 0.728764 8.94587 21.8495
101 1 H 2.17184 6.33973 23.0712
120 1 H 2.40791 3.67181 22.2962
1907 2 O 6.25727 9.64393 26.2833
1580 2 O 2.99792 9.91518 23.3248
1571 2 O 2.9124 6.94525 22.6947
1579 2 O 0.943818 5.17827 24.5578
104 1 H 5.8068 3.71705 22.5928
117 1 H 5.84071 5.98383 23.3861
262 1 H 3.44982 6.35362 22.1307
914 1 H 4.95636 4.3201 25.2743
945 1 H 3.95899 4.67345 24.123
1819 2 O 6.61607 6.4489 22.9496
1833 2 O 4.44619 5.05907 24.917
581 1 H 9.39266 5.78175 23.4948
592 1 H 7.59616 3.87801 23.9823
598 1 H 7.25308 5.77682 22.7558
600 1 H 9.56293 3.43398 22.3858
1736 2 O 8.29536 4.56135 24.3116
1811 2 O 10.0223 6.35366 23.0442
591 1 H 7.65848 5.07872 24.9164
115 1 H 0.792171 7.52558 24.1504
630 1 H 9.7422 5.21587 26.613
1490 2 O 3.54667 5.39654 28.289
280 1 H 2.19026 9.36951 23.6685
282 1 H 5.46727 7.6167 21.6395
1994 2 O 1.1927 8.23568 24.6864
263 1 H 6.02516 8.96781 23.4724
269 1 H 3.98725 7.89244 23.891
270 1 H 4.29296 8.66116 25.1177
1449 2 O 5.31009 8.09755 28.157
1510 2 O 6.4925 5.19812 28.5652
1575 2 O 4.74825 8.05761 24.5706
1812 2 O 6.67074 9.5625 22.9843
308 1 H 9.11055 8.68096 25.5806
1569 2 O 8.30985 8.29947 28.2954
746 1 H 8.54185 7.60591 21.8307
755 1 H 8.43103 8.28267 24.2506
1594 2 O 8.28304 8.1888 25.189
138 1 H 0.168528 5.71241 27.6234
148 1 H 1.89999 0.792595 25.2575
474 1 H 2.59314 2.44852 27.1179
595 1 H 0.531573 1.76001 25.169
1413 1 H 1.0416 1.13312 27.7258
1987 2 O 1.78127 1.57586 28.1551
112 1 H 7.10795 6.99005 26.0697
281 1 H 4.31835 8.48536 21.7807
585 1 H 8.51705 1.00945 22.1687
636 1 H 5.70008 2.88912 26.967
1755 2 O 3.2419 3.00434 26.6148
1913 2 O 5.40568 0.114271 26.8652
1758 2 O 6.30232 3.04619 26.249
1733 2 O 7.7968 1.33816 21.5897
745 1 H 7.59447 8.95184 21.6887
1820 2 O 9.99123 9.47875 23.0853
468 1 H 9.32951 0.387149 26.2097
260 1 H 0.0710295 6.19011 22.2118
930 1 H 8.78369 7.52632 27.8556
118 1 H 1.2593 4.39693 25.028
792 1 H 2.65284 6.4653 26.9808
1077 1 H 0.519964 5.65686 25.3639
177 1 H 4.46046 7.78275 27.8944
1836 2 O 2.95655 6.77868 26.0618
140 1 H 6.4572 5.53453 27.6822
791 1 H 3.48194 6.02373 25.7541
950 1 H 3.12061 3.91527 26.9093
1496 2 O 6.34984 6.32645 26.1109
1070 1 H 0.421817 0.293092 23.7269
614 1 H 9.56951 2.70167 26.9482
635 1 H 7.05899 3.57031 26.6193
306 1 H 5.64588 8.74035 27.3497
933 1 H 9.16305 3.6209 25.7098
1747 2 O 9.14529 3.54375 26.7009
285 1 H 2.64316 9.05846 26.7554
434 1 H 0.23441 9.26801 25.7416
106 1 H 2.05429 0.749289 22.0314
770 1 H 0.993278 7.73917 27.6409
1108 1 H 1.98119 7.72478 25.1498
1489 2 O 1.63833 8.15539 28.2849
1583 2 O 3.12298 9.74615 26.2414
1501 2 O 4.44725 1.48535 21.6326
1503 2 O 0.299986 4.54251 28.6235
1731 2 O 9.75002 0.233591 23.092
737 1 H 7.39282 8.12239 28.1021
760 1 H 9.34105 9.832 22.4269
131 1 H 4.45625 5.47714 28.4501
657 1 H 8.07285 0.590232 28.5296
266 1 H 1.96018 7.86742 21.9206
1064 1 H 0.54495 3.29359 23.2056
1509 2 O 0.15765 6.44171 26.858
1494 2 O 4.57302 4.98685 21.6787
786 1 H 7.3332 2.04666 28.5656
162 1 H 0.183438 3.42624 26.7577
619 1 H 9.75629 1.96987 28.4486
152 1 H 2.64844 3.48694 30.8763
470 1 H 1.51255 2.55905 32.6248
1512 2 O 0.369292 10.0911 31.0856
1516 2 O 2.88011 3.50815 29.9668
1429 1 H 2.88394 1.74464 32.4281
1515 2 O 2.55232 2.62674 32.4032
314 1 H 2.98708 0.452934 28.9148
1096 1 H 0.418008 7.14674 33.0853
834 1 H 9.25286 8.87265 33.3863
1430 1 H 5.3941 0.786124 31.3031
1689 2 O 8.14439 1.58672 28.7803
1666 2 O 5.64672 2.77348 29.0949
323 1 H 5.60423 2.36344 30.0086
1995 2 O 5.10417 1.68172 31.5121
491 1 H 8.73358 3.42486 30.6027
492 1 H 8.55699 1.81768 30.4978
1686 2 O 8.94801 2.55434 31.0083
1294 1 H 2.45169 0.684318 35.1889
632 1 H 1.77307 3.66348 35.6755
100 1 H 3.1527 4.75051 29.0133
126 1 H 1.02268 4.58484 29.2957
1109 1 H 0.552679 5.11751 31.6229
1595 2 O 1.21325 5.21949 30.9408
510 1 H 4.12712 9.7584 34.4501
151 1 H 3.51543 2.78916 29.9007
192 1 H 7.50616 9.08781 35.0705
136 1 H 5.38025 5.30537 31.4619
1748 2 O 4.47094 5.47089 31.2121
617 1 H 8.15349 0.0652194 33.3963
655 1 H 8.58917 4.73747 28.7893
1998 2 O 7.28671 6.42474 30.5559
452 1 H 6.14836 3.62831 29.1893
1116 1 H 7.45378 5.9942 31.4348
1695 2 O 4.0451 9.80045 33.4904
900 1 H 6.9807 4.22644 32.7933
1890 2 O 7.65776 4.87865 32.4995
784 1 H 3.88381 7.14307 31.146
1832 2 O 3.09253 7.78122 31.0948
143 1 H 0.846259 9.41872 30.5287
144 1 H 0.862655 9.84299 31.9474
150 1 H 1.8357 5.82873 31.4159
783 1 H 3.30792 8.6115 30.5938
1536 2 O 8.43904 9.05748 35.3113
301 1 H 5.8615 8.30915 32.0259
788 1 H 5.55424 8.69398 29.6409
1115 1 H 7.04257 7.41773 30.6336
1235 1 H 5.724 9.9694 30.5042
1834 2 O 5.98498 9.00578 30.4434
319 1 H 8.71149 9.4291 31.1431
320 1 H 8.85194 9.25207 29.6429
577 1 H 2.02353 7.43825 28.8325
1600 2 O 8.92515 9.98774 30.2914
656 1 H 9.04833 5.7214 30.0293
1117 1 H 3.87577 3.5939 33.3527
1521 2 O 8.9469 8.43152 32.5357
641 1 H 8.19748 7.89407 32.8288
461 1 H 4.9086 0.573956 34.9865
949 1 H 5.61458 2.01572 32.2532
983 1 H 6.31691 2.88116 34.3809
1932 2 O 6.48608 2.73085 33.4149
649 1 H 9.04139 2.03855 32.4991
650 1 H 9.76716 1.33146 33.7959
984 1 H 7.35643 2.18514 33.3722
1765 2 O 8.90961 1.67631 33.38
1936 2 O 0.502372 5.97536 35.5073
1999 2 O 4.12406 4.25343 33.9926
155 1 H 2.97266 5.70128 33.4368
156 1 H 2.73546 7.07709 32.757
992 1 H 1.04281 5.62138 34.7807
1118 1 H 3.45648 4.23109 34.8191
1518 2 O 2.39147 6.44792 33.4897
133 1 H 5.45733 5.09892 34.2788
1587 2 O 5.84474 5.95878 34.5389
302 1 H 5.74168 7.07351 33.0875
334 1 H 4.74609 6.52196 35.4553
469 1 H 4.31208 4.96312 30.4197
294 1 H 6.77032 5.9968 34.7075
159 1 H 9.49112 6.37428 34.4976
160 1 H 8.7109 5.28913 35.257
775 1 H 7.99797 5.27595 33.3373
1520 2 O 8.51438 6.06547 34.7428
333 1 H 3.15434 7.03841 35.3134
1145 1 H 2.2295 9.78234 33.4318
1146 1 H 0.966421 9.01938 34.1089
2013 2 O 1.21645 9.70907 33.4897
462 1 H 4.35622 1.97685 34.2668
509 1 H 4.678 8.98869 33.2632
139 1 H 7.00094 5.92824 29.1592
1591 2 O 5.86489 8.04836 33.0211
1671 2 O 4.07891 1.15735 34.7988
1450 2 O 0.689131 2.82323 35.0307
1525 2 O 3.13874 10.0743 29.9352
627 1 H 0.815815 1.88779 35.1988
352 1 H 0.154322 1.00261 32.0632
2087 2 O 1.59175 0.333468 35.4391
1768 2 O 9.21797 4.943 29.4734
1094 1 H 1.51268 2.15653 28.9716
505 1 H 10.126 3.67045 32.8673
466 1 H 2.97805 10.849 1.5935
49 1 H 0.749665 17.8503 6.91382
2109 2 O 0.565174 13.3101 3.17269
1630 2 O 3.08757 19.4358 6.37765
822 1 H 3.23307 12.9497 1.39942
349 1 H 3.10647 14.0855 4.99977
338 1 H 5.31998 11.3512 3.28495
341 1 H 3.21648 12.8348 2.95668
369 1 H 5.69448 12.3625 2.38969
1691 2 O 2.80634 12.4652 2.15404
1545 2 O 5.77352 12.2276 3.35311
947 1 H 0.0391919 15.6771 0.838359
1602 2 O 0.57289 17.4635 5.40256
849 1 H 9.55921 11.6069 1.00703
1128 1 H 8.96478 11.6774 3.16726
1785 2 O 9.69322 11.085 1.81989
1127 1 H 7.97355 12.4162 3.97318
1524 2 O 8.61777 11.7138 4.10062
1338 1 H 1.20681 14.0419 3.28153
457 1 H 2.7261 14.9135 1.82457
1669 2 O 2.56692 15.0798 2.7994
639 1 H 0.987118 15.817 2.78898
458 1 H 2.92527 15.963 2.9919
831 1 H 9.11138 19.9899 3.56679
1603 2 O 5.65949 11.5469 0.674535
348 1 H 7.28463 10.1281 3.12476
827 1 H 5.6156 15.8918 3.01815
953 1 H 6.35211 14.2338 1.43023
1287 1 H 9.97086 18.3813 0.442941
1917 2 O 5.40739 14.35 1.19611
952 1 H 4.92153 14.7016 3.60357
1854 2 O 5.61455 15.2967 3.82247
496 1 H 9.6582 16.6978 3.63808
1121 1 H 8.10802 15.1923 2.3262
1314 1 H 8.67801 13.9616 1.5159
1761 2 O 7.83323 14.3552 1.85047
1775 2 O 9.05509 16.9123 2.83052
289 1 H 3.01273 18.0745 3.32723
322 1 H 2.39705 18.2051 1.86226
335 1 H 1.1592 19.2658 3.34393
1447 2 O 3.60391 17.7421 0.474161
2065 2 O 2.13284 18.0207 2.83461
1856 2 O 9.03362 19.645 2.63826
699 1 H 9.85666 13.8441 7.00087
14 1 H 4.27182 17.5201 1.18498
804 1 H 6.23522 17.1762 1.28183
835 1 H 5.70883 18.245 2.41323
379 1 H 3.8739 19.1007 7.01694
1842 2 O 5.59024 17.316 2.03997
326 1 H 5.52997 10.5494 0.625906
514 1 H 7.34914 19.5215 2.81455
829 1 H 9.73329 16.9269 2.00606
1601 2 O 6.33144 19.6199 2.82583
698 1 H 9.1921 10.4242 5.37608
819 1 H 7.58391 16.9939 4.2999
27 1 H 0.985628 11.8937 3.9476
28 1 H 1.90679 10.7738 4.91047
161 1 H 0.186993 11.5205 5.99407
354 1 H 0.534028 10.377 7.04088
1454 2 O 1.04942 11.0132 4.39199
2001 2 O 0.0920115 11.3494 7.00043
219 1 H 2.62839 12.8625 6.58748
212 1 H 6.53328 12.3319 5.68752
350 1 H 4.32951 13.194 5.23223
659 1 H 6.37673 13.4122 6.78494
1546 2 O 5.88002 12.8683 6.1208
1615 2 O 3.44792 13.1997 4.83558
380 1 H 2.19379 19.2263 6.74452
1626 2 O 7.18136 17.6254 4.95239
700 1 H 8.65572 13.5737 6.08289
1790 2 O 9.46568 13.1892 6.41772
498 1 H 2.11498 16.1907 5.55011
1760 2 O 0.0671819 16.1688 3.01877
1865 2 O 2.89081 15.6741 5.46642
529 1 H 3.65032 15.9836 6.00423
377 1 H 5.04154 15.2933 6.98827
378 1 H 5.46997 15.7018 5.46657
1629 2 O 5.29248 16.0662 6.36637
1682 2 O 8.66482 16.768 6.69315
484 1 H 9.51998 16.7411 6.20342
841 1 H 8.69941 14.6362 4.24763
842 1 H 7.14667 14.5967 4.18551
1861 2 O 7.95288 14.6883 4.85191
1870 2 O 7.65979 19.4484 7.13918
355 1 H 0.738789 17.8139 4.47843
6 1 H 4.02321 19.7273 1.71866
1608 2 O 0.521417 19.9512 3.72119
1285 1 H 6.0615 20.2037 1.38013
1923 2 O 5.88339 19.9775 0.442861
1849 2 O 5.60821 20.1483 5.2989
801 1 H 5.90056 19.8217 3.73965
1827 2 O 4.16007 17.9113 4.39409
372 1 H 6.25421 17.6696 4.73461
364 1 H 5.16564 17.4725 7.15443
515 1 H 7.97112 16.8021 5.97783
497 1 H 6.25768 19.6486 5.91631
613 1 H 3.94826 17.0303 4.66328
774 1 H 3.92816 18.5319 5.16046
832 1 H 9.03284 18.6413 2.71985
859 1 H 7.9335 18.488 7.04835
675 1 H 7.71156 10.6138 7.26645
1132 1 H 0.218625 12.8074 1.41409
966 1 H 6.6914 19.3738 0.233469
1310 1 H 8.49714 20.2435 5.73054
954 1 H 5.56039 14.4065 0.252968
201 1 H 2.03867 13.2905 9.57828
1541 2 O 2.69551 12.9109 10.2316
202 1 H 3.03875 13.6448 10.7455
848 1 H 8.22182 18.6276 10.5191
235 1 H 5.12664 11.9223 14.1973
220 1 H 1.52351 12.2891 7.3884
203 1 H 3.86979 11.7746 8.64782
213 1 H 5.62505 12.3286 10.1535
1542 2 O 4.51373 11.1256 8.35049
1867 2 O 6.26523 12.9116 9.67193
837 1 H 8.6064 19.6932 8.47228
386 1 H 0.180624 13.793 13.5179
694 1 H 7.03524 12.4147 9.20969
353 1 H 0.341544 19.3658 12.5214
1762 2 O 8.26633 11.1196 7.92562
1859 2 O 9.55799 12.9654 9.49745
847 1 H 7.22926 17.4924 10.541
381 1 H 1.44868 15.6183 10.7269
382 1 H 0.473903 14.4399 10.8097
836 1 H 9.11234 16.8675 12.3193
412 1 H 0.630816 17.7264 14.2335
1628 2 O 2.69568 16.0644 9.23064
371 1 H 0.0279291 15.9453 12.4538
358 1 H 5.22099 13.8878 8.89415
359 1 H 5.83213 16.0135 10.2543
376 1 H 3.55514 15.4925 8.86408
1619 2 O 4.46564 14.3172 8.26606
1860 2 O 6.31507 16.4396 9.48245
360 1 H 6.81556 15.812 8.97943
1632 2 O 4.53446 17.9849 10.9879
805 1 H 8.42355 14.065 8.59391
1683 2 O 7.73054 14.5778 8.06047
395 1 H 5.33539 18.4423 14.0524
18 1 H 1.71363 17.651 8.37067
1622 2 O 4.87582 18.333 7.78128
1868 2 O 9.99102 16.4476 9.46894
1319 1 H 1.27385 14.6509 7.31028
1459 2 O 2.64432 19.6569 9.47773
1625 2 O 0.970831 18.1283 7.85739
363 1 H 4.26635 17.8981 8.36435
373 1 H 5.76821 19.2942 9.80965
375 1 H 3.11846 16.5069 9.9681
216 1 H 3.56961 10.1627 10.3855
1617 2 O 6.01541 19.4687 12.8101
833 1 H 6.63983 19.0606 12.1388
518 1 H 9.64399 20.1846 9.67108
856 1 H 9.46594 16.9286 8.80205
860 1 H 6.9172 19.4602 7.83317
1699 2 O 9.20031 19.4299 9.2971
676 1 H 9.27597 10.1252 12.2751
207 1 H 1.74812 11.9433 11.3985
1620 2 O 0.339593 14.9733 7.35148
196 1 H 2.43841 10.571 12.7436
208 1 H 0.560053 10.9574 11.2167
644 1 H 8.89216 11.7125 7.42498
1544 2 O 1.1417 11.34 11.9126
1561 2 O 2.64438 12.9946 13.3483
546 1 H 6.52537 20.1745 13.3103
223 1 H 4.0592 11.745 11.8784
224 1 H 5.15953 10.6946 11.7177
892 1 H 7.55123 17.6346 13.9701
396 1 H 3.99998 17.6558 14.3382
1537 2 O 6.24719 12.9506 12.9197
1552 2 O 4.48307 11.1883 11.1413
688 1 H 8.78057 11.908 10.9108
673 1 H 6.93372 12.3147 12.5286
1707 2 O 6.19627 20.095 9.38229
687 1 H 7.79319 10.6309 10.753
732 1 H 7.81465 10.5371 14.1251
1784 2 O 8.16382 11.2965 11.4219
1801 2 O 9.75881 13.0961 12.9672
731 1 H 9.00814 11.6101 14.276
370 1 H 2.32668 13.5659 12.6099
891 1 H 8.61811 18.6456 13.8985
1881 2 O 9.4374 19.8282 12.7164
387 1 H 2.43219 15.8096 13.613
1618 2 O 2.8779 16.4381 13.0354
1631 2 O 1.08441 14.9787 11.4086
401 1 H 3.45046 13.5058 13.7328
365 1 H 3.76087 15.5754 11.8359
366 1 H 4.61468 14.2574 12.0225
404 1 H 5.84114 15.7454 13.3253
1623 2 O 4.20193 14.8541 11.2976
1642 2 O 6.35626 16.2962 12.6535
850 1 H 9.17567 13.7481 12.4413
851 1 H 7.14401 15.752 12.3167
861 1 H 8.60833 15.1407 10.5123
862 1 H 7.49869 13.9206 10.7302
866 1 H 6.81492 13.7334 13.2129
867 1 H 9.15754 16.0346 13.6394
1858 2 O 9.69058 16.3294 12.8453
1871 2 O 8.04925 14.6118 11.1989
1550 2 O 2.38627 12.794 7.49361
356 1 H 2.04515 16.9192 12.5514
367 1 H 0.639728 17.4267 10.692
368 1 H 1.83733 18.5018 10.6728
1864 2 O 7.7073 18.0716 11.1665
357 1 H 2.21838 20.1741 8.7753
1624 2 O 1.21357 17.939 11.3113
1641 2 O 2.9212 19.6644 12.8144
383 1 H 4.04105 18.6677 11.4099
384 1 H 5.02027 17.5078 11.6012
197 1 H 3.73728 13.6997 8.08618
411 1 H 1.68492 18.7658 14.149
204 1 H 4.9255 11.5893 7.59017
1333 1 H 0.317689 19.1268 9.38184
81 1 H 3.6695 20.103 13.3375
486 1 H 8.08838 15.3661 7.60982
199 1 H 5.74458 10.1786 9.16148
236 1 H 3.99238 10.9012 14.3388
251 1 H 1.45896 12.0876 14.405
239 1 H 0.817428 10.7544 17.5447
240 1 H 1.85617 11.8755 17.5166
1661 2 O 4.76708 14.8645 21.1622
923 1 H 8.48918 18.6664 20.8999
1566 2 O 0.946712 11.5817 15.0663
1635 2 O 2.74873 13.1605 16.4136
229 1 H 3.37025 12.7337 15.7432
231 1 H 5.75234 10.2009 16.0053
245 1 H 5.78118 12.7039 16.9592
924 1 H 7.3656 17.5129 21.1485
1558 2 O 4.55922 11.5066 14.9015
1883 2 O 6.39173 13.2506 16.4051
1568 2 O 4.82399 11.4042 17.9014
719 1 H 7.56033 10.7053 17.6482
720 1 H 8.58264 11.8731 17.3227
726 1 H 6.93685 12.5905 15.8269
1653 2 O 1.29993 14.624 21.2477
1806 2 O 8.3154 11.1065 14.8242
1875 2 O 9.5484 13.2546 16.1543
393 1 H 0.522698 15.2202 15.2713
394 1 H 1.69556 14.2376 15.5303
413 1 H 1.3082 15.3795 17.4617
414 1 H 0.559496 14.2167 18.0462
248 1 H 2.54276 10.4241 15.8273
1644 2 O 2.88539 16.4311 16.2953
390 1 H 3.24268 13.8183 17.0594
392 1 H 5.86215 15.7419 16.6314
409 1 H 4.18931 15.4074 15.3016
410 1 H 4.93065 14.204 15.1662
247 1 H 3.57225 10.3831 16.981
1876 2 O 6.44273 16.3988 16.2515
1639 2 O 4.45392 14.7318 17.8298
708 1 H 9.27576 10.5111 19.0774
873 1 H 7.27289 15.1364 14.9896
874 1 H 8.62113 14.1482 14.8773
893 1 H 8.48381 15.3836 17.5482
894 1 H 7.79419 13.9903 17.5329
1884 2 O 9.88966 16.4333 16.2741
1475 2 O 2.75652 19.6682 16.5711
399 1 H 0.456223 17.9341 17.6119
400 1 H 1.99891 18.6885 17.6019
1637 2 O 1.20442 14.7205 14.8443
408 1 H 2.16177 16.6842 15.658
1646 2 O 1.22565 18.2628 14.7973
389 1 H 3.33071 19.2795 15.8423
391 1 H 5.78159 17.0041 15.83
405 1 H 5.88574 19.1612 17.0812
407 1 H 3.05306 17.0843 17.0134
1638 2 O 4.70544 18.2641 14.7462
1648 2 O 4.82944 18.2843 17.9908
1723 2 O 6.45326 19.9272 16.6655
879 1 H 7.50989 17.4903 17.7894
880 1 H 8.49936 18.5613 17.4037
886 1 H 7.13191 19.408 16.1446
888 1 H 9.22706 17.0439 15.778
1715 2 O 9.50525 19.8051 16.2378
1886 2 O 8.1839 18.0962 14.5506
406 1 H 0.0242531 19.3616 15.9157
228 1 H 2.80498 10.587 19.1582
283 1 H 2.06128 11.7625 21.1337
284 1 H 0.790937 11.0124 20.7382
1560 2 O 1.40311 11.3178 18.1975
1577 2 O 3.16845 13.0025 20.0173
246 1 H 0.0582184 13.0696 16.138
255 1 H 4.34098 11.9329 18.5107
256 1 H 5.39465 10.8609 18.4955
267 1 H 5.57749 12.0279 21.0877
268 1 H 4.34285 11.2739 21.0057
1553 2 O 6.56187 13.037 19.7904
865 1 H 6.84492 19.6481 19.288
705 1 H 7.02473 12.5251 19.1386
418 1 H 0.145238 13.4538 20.5074
763 1 H 8.91257 11.9817 20.8864
764 1 H 7.69859 10.9099 20.6707
1800 2 O 8.10061 11.3945 18.0526
1817 2 O 9.65727 12.9988 19.9219
870 1 H 10.0527 13.921 16.6913
402 1 H 2.62641 13.5134 19.4169
1893 2 O 7.8867 14.9709 21.345
1897 2 O 9.49816 19.7802 19.6607
419 1 H 2.50898 15.7423 19.9288
1634 2 O 3.02199 16.513 19.5255
1647 2 O 1.22446 14.8427 18.2751
385 1 H 0.3572 19.3396 19.3107
1880 2 O 8.10502 18.0965 18.1692
397 1 H 4.02537 15.4261 18.3594
398 1 H 4.91944 14.2158 18.5066
433 1 H 3.93228 13.5571 20.4069
436 1 H 5.45473 15.9028 20.2646
1658 2 O 6.02206 16.4955 19.7102
1396 1 H 0.339371 15.6887 20.0956
882 1 H 9.18397 13.6398 19.2969
883 1 H 6.58834 15.9786 19.0826
898 1 H 7.10088 13.6297 20.2981
899 1 H 9.38135 16.4128 20.4418
1874 2 O 9.93979 16.745 19.7131
1887 2 O 8.11035 14.6912 18.1678
225 1 H 0.239147 12.3581 19.2914
1645 2 O 4.37611 14.685 14.6298
388 1 H 2.2896 16.9613 19.1034
443 1 H 2.03832 18.4085 20.8084
444 1 H 0.737915 17.688 21.0805
1640 2 O 1.29936 18.0327 18.0785
1657 2 O 2.96301 19.726 19.6206
1822 2 O 8.26196 11.2861 21.4437
415 1 H 4.26449 18.8832 18.638
416 1 H 5.29252 17.6154 18.595
427 1 H 5.55352 18.5424 20.991
428 1 H 4.21492 17.6687 20.8579
1633 2 O 6.15931 20.0688 19.8392
868 1 H 9.46396 17.3586 19.1472
1654 2 O 4.73017 18.1721 21.482
252 1 H 0.10879 11.4629 14.5994
578 1 H 6.65759 20.2695 20.6516
709 1 H 10.077 12.7802 15.4984
869 1 H 9.96892 19.3177 15.4703
70 1 H 3.41229 20.1943 17.0982
1582 2 O 1.30784 11.3142 21.5122
1877 2 O 8.00859 14.7779 14.4337
271 1 H 0.606958 11.0328 24.5225
272 1 H 1.52184 12.116 23.9812
264 1 H 6.00524 10.2697 22.7838
1828 2 O 4.74026 11.279 27.9482
1576 2 O 1.35631 11.5754 24.7764
1651 2 O 3.13675 13.6025 22.9604
261 1 H 3.65598 12.8067 22.8369
749 1 H 8.53092 10.3095 28.2066
287 1 H 5.59805 11.7114 24.2874
288 1 H 4.25337 10.9046 24.2096
1584 2 O 4.88944 11.3452 24.879
1899 2 O 6.4978 12.8032 23.2789
277 1 H 7.01448 12.2761 22.666
751 1 H 8.39094 10.9483 24.1259
752 1 H 9.12304 12.3308 24.2979
442 1 H 5.3679 14.4459 21.7988
1816 2 O 8.60824 11.6274 24.7442
1891 2 O 9.98293 13.3932 23.181
425 1 H 0.893996 15.2641 21.8869
448 1 H 4.14007 18.8009 25.1987
440 1 H 2.51298 15.9333 23.5797
1268 1 H 0.927801 14.4696 23.8021
1660 2 O 3.10797 16.5578 23.1708
2074 2 O 1.14013 14.8745 24.6773
422 1 H 3.44262 14.1455 23.7601
424 1 H 5.83551 15.965 23.7622
441 1 H 4.14419 15.4181 21.7379
479 1 H 6.25047 16.4602 27.8105
1655 2 O 4.812 14.7147 24.5905
1892 2 O 6.34204 16.3887 23.0322
758 1 H 7.01844 13.5103 23.7042
905 1 H 7.28008 15.2429 22.0854
110 1 H 3.51325 20.1155 26.585
920 1 H 8.95505 15.9427 23.666
937 1 H 7.7183 15.4425 25.3775
938 1 H 8.5498 14.0671 24.9875
1900 2 O 9.52989 16.7453 23.1741
1909 2 O 8.05015 14.9357 24.6714
439 1 H 2.51531 17.1632 22.6209
438 1 H 2.02429 18.3242 24.2664
1069 1 H 0.655661 19.4656 22.6659
1902 2 O 7.85037 18.2609 21.6183
1397 1 H 0.936147 18.7313 25.222
773 1 H 5.60354 10.2184 25.6767
1499 2 O 1.36009 17.923 24.8351
421 1 H 3.73875 19.4188 22.492
423 1 H 5.70093 16.8791 22.539
447 1 H 4.29072 17.5797 24.1079
911 1 H 6.10022 19.0867 23.7809
1664 2 O 4.68952 18.0065 24.997
625 1 H 6.17111 19.9567 26.3846
901 1 H 9.6039 19.7145 23.6675
912 1 H 7.05848 19.5797 22.8148
919 1 H 9.01408 17.3874 22.8256
925 1 H 8.52068 17.7692 25.737