LAMMPS (27 Jun 2024)
KOKKOS mode with Kokkos version 4.3.1 is enabled (src/KOKKOS/kokkos.cpp:72)
  will use up to 1 GPU(s) per node
WARNING: When using a single thread, the Kokkos Serial backend (i.e. Makefile.kokkos_mpi_only) gives better performance than the OpenMP backend (src/KOKKOS/kokkos.cpp:202)
  using 1 OpenMP thread(s) per MPI task
package kokkos
package kokkos newton on neigh half

units		metal						## E in [eV], t in [ps], P in [10000 Pa], l in [A]
atom_style	atomic						## mass x y z vx vy vz

neighbor	0.5 bin						## neighbor list, skin = 0.5 Angstrom
neigh_modify	every 2 delay 10 check yes			## update of neighbor list

############################## main variables
variable        seed equal 5166

variable	temperature equal 390
variable	tempDamp equal 0.1

variable        pressure equal 30000
variable        pressureDamp equal 1.0 				# This is 1 ps

##############################

read_data water.dat
Reading data file ...
  orthogonal box = (0 0 0) to (20.13213 20.132272 35.107669)
  1 by 1 by 1 MPI processor grid
  reading atoms ...
  2160 atoms
  read_data CPU = 0.009 seconds

mass		1 1.008    # H
mass		2 15.9994  # O


pair_style	pace/extrapolation
ACE/AL version: 2023.11.25
pair_coeff	* * /pc2/users/a/acepdw01/work/phase_diagram/pot_dir/interim_potential_ladder_step_1.yaml /pc2/users/a/acepdw01/work/phase_diagram/pot_dir/interim_potential_ladder_step_1.asi H O
Loading /pc2/users/a/acepdw01/work/phase_diagram/pot_dir/interim_potential_ladder_step_1.yaml
Total number of basis functions
	H: 23 (r=1) 664 (r>1)
	O: 23 (r=1) 664 (r>1)
Mapping LAMMPS atom type #1(H) -> ACE species type #0
Mapping LAMMPS atom type #2(O) -> ACE species type #1
Loading ASI /pc2/users/a/acepdw01/work/phase_diagram/pot_dir/interim_potential_ladder_step_1.asi
LINEAR ASI is loaded

fix pace_gamma all pair 1000 pace/extrapolation gamma 1
compute max_pace_gamma all reduce max f_pace_gamma
variable dump_skip equal "c_max_pace_gamma < 10"

dump pace_dump all custom 1000 extrapolative_structures.dump id type x y z f_pace_gamma
dump_modify pace_dump skip v_dump_skip
dump_modify pace_dump element H O

variable max_pace_gamma equal c_max_pace_gamma

timestep	0.0005						## timestep = 0.0005*ps = 0.5 fs

thermo		100
thermo_style custom step etotal pe ke press temp vol density c_max_pace_gamma


min_style cg
minimize 0.0 5.0e-4 10000 100000

CITE-CITE-CITE-CITE-CITE-CITE-CITE-CITE-CITE-CITE-CITE-CITE-CITE

Your simulation uses code contributions which should be cited:

- Type Label Framework: https://doi.org/10.1021/acs.jpcb.3c08419

@Article{Gissinger24,
 author = {Jacob R. Gissinger, Ilia Nikiforov, Yaser Afshar, Brendon Waters, Moon-ki Choi, Daniel S. Karls, Alexander Stukowski, Wonpil Im, Hendrik Heinz, Axel Kohlmeyer, and Ellad B. Tadmor},
 title = {Type Label Framework for Bonded Force Fields in LAMMPS},
 journal = {J. Phys. Chem. B},
 year =    2024,
 volume =  128,
 number =  13,
 pages =   {3282–-3297}
}

CITE-CITE-CITE-CITE-CITE-CITE-CITE-CITE-CITE-CITE-CITE-CITE-CITE

Switching to 'neigh_modify every 1 delay 0 check yes' setting during minimization
Neighbor list info ...
  update: every = 1 steps, delay = 0 steps, check = yes
  max neighbors/atom: 2000, page size: 100000
  master list distance cutoff = 6.5
  ghost atom cutoff = 6.5
  binsize = 6.5, bins = 4 4 6
  1 neighbor lists, perpetual/occasional/extra = 1 0 0
  (1) pair pace/extrapolation/kk, perpetual
      attributes: full, newton on, kokkos_device
      pair build: full/bin/kk/device
      stencil: full/bin/3d
      bin: kk/device
WARNING: Fix with atom-based arrays not compatible with sending data in Kokkos communication, switching to classic exchange/border communication (src/KOKKOS/comm_kokkos.cpp:754)
WARNING: Fix with atom-based arrays not compatible with Kokkos sorting on device, switching to classic host sorting (src/KOKKOS/atom_kokkos.cpp:216)
Per MPI rank memory allocation (min/avg/max) = 1808 | 1808 | 1808 Mbytes
   Step         TotEng         PotEng         KinEng         Press           Temp          Volume        Density     c_max_pace_gamma
         0  -10394.812     -10394.812      0              10356.492      0              14229.332      1.513704       0.94301683   
       100  -10405.399     -10405.399      0              6153.7788      0              14229.332      1.513704       0.94301683   
       200  -10407.585     -10407.585      0              6517.8061      0              14229.332      1.513704       0.94301683   
       300  -10408.546     -10408.546      0              6308.0661      0              14229.332      1.513704       0.94301683   
       400  -10408.808     -10408.808      0              6400.9757      0              14229.332      1.513704       0.94301683   
       500  -10408.847     -10408.847      0              6348.6685      0              14229.332      1.513704       0.94301683   
       600  -10408.847     -10408.847      0              6348.5538      0              14229.332      1.513704       0.94301683   
       700  -10408.848     -10408.848      0              6351.1978      0              14229.332      1.513704       0.94301683   
       800  -10408.849     -10408.849      0              6350.2459      0              14229.332      1.513704       0.94301683   
       900  -10408.849     -10408.849      0              6351.143       0              14229.332      1.513704       0.94301683   
       960  -10408.849     -10408.849      0              6350.8752      0              14229.332      1.513704       0.94301683   
Loop time of 9.28512 on 1 procs for 960 steps with 2160 atoms

99.8% CPU use with 1 MPI tasks x 1 OpenMP threads

Minimization stats:
  Stopping criterion = force tolerance
  Energy initial, next-to-last, final = 
     -10394.8116753497  -10408.8486803334  -10408.8486803379
  Force two-norm initial, final = 17.431636 0.00048716527
  Force max component initial, final = 3.1552255 5.8355054e-05
  Final line search alpha, max atom move = 1 5.8355054e-05
  Iterations, force evaluations = 960 1916

MPI task timing breakdown:
Section |  min time  |  avg time  |  max time  |%varavg| %total
---------------------------------------------------------------
Pair    | 8.5582     | 8.5582     | 8.5582     |   0.0 | 92.17
Neigh   | 0.022375   | 0.022375   | 0.022375   |   0.0 |  0.24
Comm    | 0.057806   | 0.057806   | 0.057806   |   0.0 |  0.62
Output  | 0.001239   | 0.001239   | 0.001239   |   0.0 |  0.01
Modify  | 0.40011    | 0.40011    | 0.40011    |   0.0 |  4.31
Other   |            | 0.2453     |            |       |  2.64

Nlocal:           2160 ave        2160 max        2160 min
Histogram: 1 0 0 0 0 0 0 0 0 0
Nghost:           5973 ave        5973 max        5973 min
Histogram: 1 0 0 0 0 0 0 0 0 0
Neighs:              0 ave           0 max           0 min
Histogram: 1 0 0 0 0 0 0 0 0 0
FullNghs:       373360 ave      373360 max      373360 min
Histogram: 1 0 0 0 0 0 0 0 0 0

Total # of neighbors = 373360
Ave neighs/atom = 172.85185
Neighbor list builds = 51
Dangerous builds = 0

################## equilibration of main calculation
# Equilibrate to specified number of ice

fix             3 all nph aniso ${pressure} ${pressure} ${pressureDamp}
fix             3 all nph aniso 30000 ${pressure} ${pressureDamp}
fix             3 all nph aniso 30000 30000 ${pressureDamp}
fix             3 all nph aniso 30000 30000 1
fix             4 all temp/csvr ${temperature} ${temperature} ${tempDamp} ${seed}
fix             4 all temp/csvr 390 ${temperature} ${tempDamp} ${seed}
fix             4 all temp/csvr 390 390 ${tempDamp} ${seed}
fix             4 all temp/csvr 390 390 0.1 ${seed}
fix             4 all temp/csvr 390 390 0.1 5166
velocity 	all create ${temperature} ${seed} dist gaussian
velocity 	all create 390 ${seed} dist gaussian
velocity 	all create 390 5166 dist gaussian

run 200000
WARNING: Fix with atom-based arrays not compatible with Kokkos sorting on device, switching to classic host sorting (src/KOKKOS/atom_kokkos.cpp:216)
Per MPI rank memory allocation (min/avg/max) = 1810 | 1810 | 1810 Mbytes
   Step         TotEng         PotEng         KinEng         Press           Temp          Volume        Density     c_max_pace_gamma
       960  -10300.01      -10408.849      108.83833      14520.77       390            14229.332      1.513704       0.94301683   
      1000  -10289.598     -10368.54       78.942471      26293.975      282.87426      14211.718      1.5155801      0.843464     
      1100  -10262.017     -10332.049      70.031983      31890.02       250.94534      14088.53       1.5288321      0.843464     
      1200  -10239.166     -10323.333      84.166729      28750.084      301.59433      13919.666      1.5473788      0.843464     
      1300  -10225.525     -10313.375      87.849897      32456.734      314.79221      13767.632      1.5644663      0.843464     
      1400  -10214.855     -10307.814      92.959227      37633.071      333.10045      13680.54       1.5744259      0.843464     
      1500  -10209.202     -10304.027      94.825421      34427.835      339.78758      13675.111      1.575051       0.843464     
      1600  -10205.698     -10302.736      97.038311      31586.664      347.71702      13741.537      1.5674372      0.843464     
      1700  -10203.355     -10298.874      95.519227      33459.131      342.27369      13854.607      1.5546451      0.843464     
      1800  -10200.314     -10301.077      100.76279      32247.709      361.06293      13982.958      1.5403748      0.843464     
      1900  -10201.39      -10301.998      100.60793      31320.28       360.50802      14095.884      1.5280345      0.843464     
      2000  -10200.441     -10301.063      100.62174      27683.403      360.5575       14172.019      1.5198255      0.89988088   
      2100  -10200.092     -10301.615      101.52323      26392.149      363.78783      14203.129      1.5164966      0.89988088   
      2200  -10196.677     -10303.21       106.53331      29341.092      381.74041      14191.201      1.5177712      0.89988088   
      2300  -10194.533     -10300.858      106.32484      28758.69       380.99339      14145.347      1.5226912      0.89988088   
      2400  -10191.179     -10297.746      106.56767      31719.761      381.86353      14085.667      1.5291428      0.89988088   
      2500  -10189.917     -10295.795      105.87754      32935.501      379.3906       14031.306      1.5350671      0.89988088   
      2600  -10184.128     -10293.168      109.0408       30726.634      390.72548      13997.265      1.5388004      0.89988088   
      2700  -10183.683     -10293.279      109.59649      29550.134      392.71671      13990.444      1.5395506      0.89988088   
      2800  -10185.068     -10294.23       109.16222      30652.79       391.16059      14009.111      1.5374992      0.89988088   
      2900  -10184.982     -10293.063      108.08156      31286.737      387.28825      14038.657      1.5342633      0.89988088   
      3000  -10183.957     -10294.289      110.33186      30521.7        395.35173      14070.095      1.5308352      0.91315721   
      3100  -10184.67      -10296.817      112.1468       28212.661      401.8552       14095.323      1.5280952      0.91315721   
      3200  -10184.566     -10293.325      108.75965      28651.942      389.71804      14105.786      1.5269618      0.91315721   
      3300  -10183.814     -10293.342      109.52829      29399.757      392.4723       14105.204      1.5270248      0.91315721   
      3400  -10180.477     -10289.495      109.01836      30052.401      390.64509      14098.879      1.5277099      0.91315721   
      3500  -10180.872     -10291.191      110.31846      29874.839      395.30371      14089.246      1.5287544      0.91315721   
      3600  -10182.395     -10294.807      112.41179      28703.767      402.80473      14076.023      1.5301904      0.91315721   
      3700  -10183.882     -10293.159      109.27771      27071.948      391.57442      14063.272      1.5315779      0.91315721   
      3800  -10183.495     -10291.889      108.39388      28067.565      388.40739      14056.687      1.5322954      0.91315721   
      3900  -10185.484     -10294.915      109.43067      29500.496      392.12253      14047.451      1.5333029      0.91315721   
      4000  -10183.287     -10295.366      112.07915      27432.435      401.61281      14038.321      1.5343001      0.99902357   
      4100  -10184.401     -10293.849      109.44765      31153.963      392.18336      14028.382      1.5353871      0.99902357   
      4200  -10183.176     -10293.874      110.69838      29532.295      396.66509      14015.341      1.5368157      0.99902357   
      4300  -10182.73      -10294.687      111.95712      29442.115      401.17554      13998.468      1.5386682      0.99902357   
      4400  -10183.106     -10295.051      111.94496      31005.076      401.13197      13976.374      1.5411004      0.99902357   
      4500  -10183.426     -10294.4        110.97406      31788.894      397.65293      13954.078      1.5435628      0.99902357   
      4600  -10184.476     -10296.867      112.3906       29454.229      402.72882      13937.958      1.545348       0.99902357   
      4700  -10180.643     -10292.067      111.42383      30915.619      399.2646       13924.782      1.5468103      0.99902357   
      4800  -10183.52      -10291.281      107.76086      30630.123      386.1391       13920.553      1.5472802      0.99902357   
      4900  -10183.735     -10294.984      111.24912      29226.922      398.63854      13924.834      1.5468046      0.99902357   
      5000  -10187.477     -10300.722      113.24446      28217.808      405.78844      13932.076      1.5460005      0.93874615   
      5100  -10190.081     -10298.969      108.88756      28575.343      390.17638      13930.444      1.5461816      0.93874615   
      5200  -10187.141     -10299.88       112.739        30415.219      403.97723      13915.576      1.5478337      0.93874615   
      5300  -10186.772     -10297.105      110.33264      31573.838      395.35452      13890.709      1.5506046      0.93874615   
      5400  -10190.178     -10298.538      108.36027      29700.931      388.28697      13862.543      1.553755       0.93874615   
      5500  -10190.499     -10298.371      107.87221      31237.933      386.5381       13840.429      1.5562376      0.93874615   
      5600  -10190.178     -10299.354      109.17575      30782.219      391.20907      13821.104      1.5584136      0.93874615   
      5700  -10191.884     -10300.696      108.81221      29045.73       389.9064       13806.726      1.5600365      0.93874615   
      5800  -10194.901     -10304.909      110.00796      28813.507      394.19112      13794.251      1.5614473      0.93874615   
      5900  -10192.971     -10299.481      106.51034      33617.032      381.65812      13775.294      1.5635962      0.93874615   
      6000  -10192.588     -10303.219      110.63048      30444.578      396.42179      13753.3        1.5660966      0.85244365   
      6100  -10191.263     -10298.024      106.76141      32077.841      382.55775      13734.965      1.5681873      0.85244365   
      6200  -10191.178     -10302.9        111.72127      32870.066      400.33043      13727.916      1.5689924      0.85244365   
      6300  -10190.7       -10300.028      109.32752      31391.687      391.7529       13730.312      1.5687187      0.85244365   
      6400  -10191.224     -10302.686      111.46151      31504.558      399.3996       13740.442      1.5675621      0.85244365   
      6500  -10191.53      -10300.543      109.01281      29789.824      390.6252       13752.469      1.5661913      0.85244365   
      6600  -10193.746     -10303.951      110.20541      30354.482      394.89863      13765.661      1.5646903      0.85244365   
      6700  -10195.352     -10305.616      110.26361      30646.448      395.10718      13770.241      1.5641699      0.85244365   
      6800  -10197.651     -10306.555      108.9042       29802.473      390.236        13763.751      1.5649075      0.85244365   
      6900  -10196.762     -10304.634      107.87272      30406.944      386.5399       13747.807      1.5667224      0.85244365   
      7000  -10196.633     -10304.51       107.87725      29402.42       386.55615      13722.61       1.5695991      0.84975185   
      7100  -10195.205     -10306.317      111.11124      28956.858      398.14449      13695.948      1.5726546      0.84975185   
      7200  -10196.599     -10303.962      107.36284      32261.85       384.71288      13675.367      1.5750215      0.84975185   
      7300  -10196.308     -10305.733      109.42493      29797.861      392.10195      13668.091      1.5758598      0.84975185   
      7400  -10196.865     -10305.579      108.71325      32062.622      389.55178      13668.705      1.5757891      0.84975185   
      7500  -10195.623     -10303.233      107.61001      31434.995      385.59856      13681.38       1.5743292      0.84975185   
      7600  -10195.912     -10302.47       106.55776      31680.259      381.82802      13703.412      1.5717981      0.84975185   
      7700  -10196.676     -10306.18       109.504        28930.449      392.38526      13729.938      1.5687613      0.84975185   
      7800  -10197.216     -10306.418      109.20174      29397.133      391.30218      13756.241      1.5657618      0.84975185   
      7900  -10197.502     -10305.843      108.34159      27139.469      388.22002      13772.324      1.5639334      0.84975185   
      8000  -10197.481     -10305.776      108.29529      26307.335      388.0541       13775.355      1.5635893      0.87017662   
      8100  -10196.286     -10300.217      103.93162      27727.546      372.41778      13770.896      1.5640955      0.87017662   
      8200  -10195.42      -10303.817      108.39661      29314.707      388.41718      13760.251      1.5653054      0.87017662   
      8300  -10191.923     -10303.888      111.96492      28317.458      401.20348      13741.825      1.5674044      0.87017662   
      8400  -10189.72      -10301.722      112.00234      31707.851      401.33758      13720.957      1.5697882      0.87017662   
      8500  -10191.153     -10299.221      108.06753      29267.091      387.23798      13708.539      1.5712102      0.87017662   
      8600  -10190.119     -10301.21       111.09116      27458.305      398.07253      13711.127      1.5709137      0.87017662   
      8700  -10194.192     -10304.914      110.72192      26967.76       396.74944      13723.692      1.5694754      0.87017662   
      8800  -10194.348     -10305.417      111.069        29811.927      397.99315      13736.758      1.5679826      0.87017662   
      8900  -10191.835     -10301.574      109.73878      28717.853      393.22656      13741.416      1.567451       0.87017662   
      9000  -10191.053     -10303.03       111.97639      30502.061      401.24458      13747.947      1.5667064      0.87125428   
      9100  -10193.276     -10302.499      109.22256      30096.553      391.37679      13756.813      1.5656967      0.87125428   
      9200  -10193.993     -10302.447      108.45338      31220.126      388.6206       13763.876      1.5648932      0.87125428   
      9300  -10198.61      -10307.547      108.93748      25514.332      390.35526      13766.585      1.5645853      0.87125428   
      9400  -10199.262     -10308.142      108.88033      27182.903      390.15049      13749.898      1.5664841      0.87125428   
      9500  -10197.113     -10304.421      107.30763      26666.055      384.51502      13715.867      1.5703708      0.87125428   
      9600  -10194.92      -10305.437      110.51626      26341.297      396.0125       13677.042      1.5748286      0.87125428   
      9700  -10197.023     -10306.481      109.458        28051.857      392.22045      13644.418      1.578594       0.87125428   
      9800  -10197.309     -10305.024      107.71447      31228.104      385.97286      13626.1        1.5807161      0.87125428   
      9900  -10195.09      -10304.685      109.59479      34409.116      392.71061      13622.648      1.5811167      0.87125428   
     10000  -10194.824     -10305.135      110.31116      33834.364      395.27756      13639.723      1.5791374      0.84500205   
     10100  -10194.951     -10305.461      110.51032      31516.669      395.99121      13672.952      1.5752997      0.84500205   
     10200  -10198.691     -10307.805      109.1136       30871.027      390.98634      13715.745      1.5703847      0.84500205   
     10300  -10196.209     -10305.234      109.02496      30334.972      390.66874      13758.94       1.5654546      0.84500205   
     10400  -10198.597     -10309.078      110.48051      28453.053      395.88439      13795.953      1.5612547      0.84500205   
     10500  -10199.021     -10308.209      109.18786      27545.385      391.25247      13811.936      1.559448       0.84500205   
     10600  -10196.124     -10305.743      109.61887      30031.308      392.79689      13804.184      1.5603238      0.84500205   
     10700  -10197.587     -10306.559      108.97213      29468.866      390.47944      13775.514      1.5635712      0.84500205   
     10800  -10191.235     -10304.125      112.88976      32990.002      404.51745      13734.554      1.5682341      0.84500205   
     10900  -10192.053     -10304.235      112.18249      30252.095      401.98309      13699.376      1.5722611      0.84500205   
     11000  -10192.566     -10301.007      108.44061      30630.708      388.57485      13671.285      1.5754918      0.91809653   
     11100  -10191.174     -10304.129      112.95497      30946.652      404.75111      13657.143      1.5771232      0.91809653   
     11200  -10192.664     -10303.443      110.77946      34321.572      396.95562      13661.977      1.5765651      0.91809653   
     11300  -10193.53      -10306.26       112.73008      29789.836      403.94528      13688.415      1.5735201      0.91809653   
     11400  -10195.717     -10306.12       110.40282      29404.96       395.60602      13725.674      1.5692488      0.91809653   
     11500  -10197.499     -10306.42       108.92106      30121.908      390.29642      13758.208      1.5655379      0.91809653   
     11600  -10199.795     -10308.41       108.61455      28724.797      389.19812      13778.95       1.5631813      0.91809653   
     11700  -10200.791     -10305.665      104.87477      30072.887      375.79738      13779.184      1.5631547      0.91809653   
     11800  -10201.683     -10307.13       105.44666      28515.026      377.84664      13756.931      1.5656833      0.91809653   
     11900  -10200.676     -10307.351      106.67495      30125.149      382.24794      13716.73       1.5702719      0.91809653   
     12000  -10201.633     -10308.337      106.70412      33356.916      382.35248      13663.355      1.5764061      1.0324728    
     12100  -10196.829     -10307.202      110.37382      33459.755      395.50209      13613.597      1.582168       1.0324728    
     12200  -10196.039     -10304.69       108.65059      31024.473      389.32726      13582.682      1.585769       1.0324728    
     12300  -10194.696     -10304.538      109.84211      32013.456      393.59684      13578.657      1.5862391      1.0324728    
     12400  -10196.154     -10307.624      111.47016      33599.293      399.43062      13598.571      1.5839162      1.0324728    
     12500  -10195.477     -10304.504      109.02633      33929.293      390.67364      13635.994      1.5795692      1.0324728    
     12600  -10198.431     -10306.796      108.36519      27965.569      388.30457      13683.036      1.5741387      1.0324728    
     12700  -10198.802     -10307.048      108.24618      28588.655      387.87812      13724.253      1.5694113      1.0324728    
     12800  -10199.758     -10309          109.24118      27419.957      391.4435       13755.784      1.5658139      1.0324728    
     12900  -10203.118     -10309.785      106.66714      25655.94       382.21998      13770.512      1.5641392      1.0324728    
     13000  -10201.356     -10309.375      108.01895      25702.093      387.06391      13758.503      1.5655043      0.79986367   
     13100  -10198.464     -10304.528      106.0648       26281.664      380.06162      13725.876      1.5692256      0.79986367   
     13200  -10201.432     -10308.127      106.69478      30641.714      382.31899      13685.052      1.5739069      0.79986367   
     13300  -10203.334     -10308.771      105.43714      31493.033      377.81252      13643.167      1.5787388      0.79986367   
     13400  -10199.963     -10308.922      108.95854      35584.959      390.43074      13611.686      1.5823901      0.79986367   
     13500  -10198.014     -10309.64       111.62652      33377.861      399.99088      13596.789      1.5841238      0.79986367   
     13600  -10199.284     -10309.821      110.53704      32431.068      396.08696      13598.133      1.5839672      0.79986367   
     13700  -10197.79      -10304.23       106.43997      33094.274      381.40595      13615.23       1.5819782      0.79986367   
     13800  -10200.349     -10308.277      107.92779      32393.426      386.73725      13647.785      1.5782045      0.79986367   
     13900  -10201.112     -10310.263      109.15168      29908.641      391.12281      13683.168      1.5741235      0.79986367   
     14000  -10202.758     -10310.72       107.96144      33211.159      386.85781      13716.217      1.5703307      0.80245745   
     14100  -10201.787     -10311.252      109.46451      31331.768      392.24378      13737.662      1.5678794      0.80245745   
     14200  -10201.397     -10307.974      106.57748      29849.667      381.8987       13745.801      1.566951       0.80245745   
     14300  -10200.415     -10309.038      108.62337      28946.132      389.22972      13737.467      1.5679016      0.80245745   
     14400  -10199.429     -10306.525      107.0953       27977.876      383.7542       13714.268      1.5705538      0.80245745   
     14500  -10197.814     -10303.177      105.36338      28906.506      377.5482       13681.507      1.5743146      0.80245745   
     14600  -10199.705     -10308.989      109.28391      31033.611      391.59664      13651.333      1.5777943      0.80245745   
     14700  -10200.03      -10308.775      108.74526      29191.949      389.66649      13630.475      1.5802088      0.80245745   
     14800  -10199.167     -10308.808      109.64165      28183.823      392.87853      13621.788      1.5812165      0.80245745   
     14900  -10197.837     -10305.839      108.00182      29527.628      387.00254      13622.704      1.5811102      0.80245745   
     15000  -10199.356     -10309.048      109.69139      31632.661      393.05676      13636.005      1.579568       0.86140973   
     15100  -10202.789     -10309.036      106.24763      29356.418      380.71675      13657.273      1.5771082      0.86140973   
     15200  -10201.756     -10307.03       105.27394      29632.262      377.22771      13677.714      1.5747512      0.86140973   
     15300  -10198.553     -10305.97       107.41676      28936.162      384.90607      13693.786      1.572903       0.86140973   
     15400  -10200.457     -10308.197      107.73916      27820.488      386.06132      13703.293      1.5718118      0.86140973   
     15500  -10201.255     -10308.214      106.95888      29689.828      383.26535      13702.387      1.5719156      0.86140973   
     15600  -10197.232     -10307.173      109.94085      29884.042      393.95064      13690.992      1.573224       0.86140973   
     15700  -10197.369     -10305.978      108.60924      30969.655      389.17908      13676.192      1.5749264      0.86140973   
     15800  -10200.061     -10308.047      107.98647      30877.937      386.94751      13659.114      1.5768956      0.86140973   
     15900  -10197.971     -10305.818      107.84779      28145.432      386.45058      13643.454      1.5787056      0.86140973   
     16000  -10197.151     -10306.53       109.3791       29864.613      391.93771      13631.594      1.5800791      0.85781592   
     16100  -10197.341     -10306.546      109.20502      30106.416      391.31394      13626.553      1.5806637      0.85781592   
     16200  -10196.825     -10307.126      110.30129      29554.338      395.24221      13631.626      1.5800754      0.85781592   
     16300  -10198.013     -10307.085      109.0713       31415.402      390.8348       13642.246      1.5788454      0.85781592   
     16400  -10195.463     -10304.922      109.45918      32131.015      392.22467      13660.053      1.5767872      0.85781592   
     16500  -10196.889     -10306.345      109.45536      28872.288      392.21097      13682.578      1.5741914      0.85781592   
     16600  -10198.8       -10307.36       108.55988      29742.527      389.00222      13701.197      1.5720521      0.85781592   
     16700  -10199.461     -10309.545      110.08368      28594.174      394.46245      13711.14       1.5709122      0.85781592   
     16800  -10198.886     -10303.914      105.02845      28879.993      376.34805      13707.794      1.5712957      0.85781592   
     16900  -10198.438     -10309.701      111.26346      29185.858      398.68994      13695.105      1.5727515      0.85781592   
     17000  -10197.757     -10305.462      107.70435      29543.072      385.93659      13669.91       1.5756502      0.82057483   
     17100  -10198.85      -10308.455      109.60484      33119.471      392.74661      13642.262      1.5788435      0.82057483   
     17200  -10199.285     -10305.888      106.60358      30936.834      381.99221      13618.611      1.5815854      0.82057483   
     17300  -10198.022     -10308.172      110.1506       29454.813      394.70223      13605.099      1.5831562      0.82057483   
     17400  -10198.816     -10305.54       106.72348      31535.749      382.42185      13603.16       1.5833818      0.82057483   
     17500  -10201.711     -10310.418      108.70742      30342.976      389.53091      13615.873      1.5819035      0.82057483   
     17600  -10202.514     -10309.633      107.11906      29942.635      383.83932      13638.907      1.5792318      0.82057483   
     17700  -10202.291     -10310.817      108.52555      26856.904      388.8792       13668.267      1.5758396      0.82057483   
     17800  -10204.136     -10312.575      108.43909      27957.462      388.56939      13694.192      1.5728563      0.82057483   
     17900  -10204.322     -10309.162      104.83957      30245.952      375.67123      13707.986      1.5712736      0.82057483   
     18000  -10200.908     -10310.405      109.49679      27177.137      392.35943      13709.283      1.571125       0.83453465   
     18100  -10201.379     -10308.983      107.6042       29756.35       385.57774      13695.856      1.5726653      0.83453465   
     18200  -10199.509     -10307.87       108.36086      27333.197      388.28906      13676.387      1.574904       0.83453465   
     18300  -10197.98      -10308.605      110.62482      29501.695      396.40151      13653.835      1.5775053      0.83453465   
     18400  -10197.076     -10306.824      109.7485       30142.01       393.26138      13632.619      1.5799603      0.83453465   
     18500  -10200.606     -10308.944      108.33801      31308.172      388.2072       13616.01       1.5818875      0.83453465   
     18600  -10201.555     -10309.509      107.95428      31414.243      386.83217      13607.525      1.582874       0.83453465   
     18700  -10201.038     -10308.688      107.64949      30638.775      385.74003      13608.66       1.5827419      0.83453465   
     18800  -10201.935     -10308.655      106.71991      34043.236      382.40907      13616.528      1.5818273      0.83453465   
     18900  -10197.168     -10305.897      108.7297       29468.066      389.61074      13629.578      1.5803128      0.83453465   
     19000  -10197.022     -10306.635      109.61297      28328.429      392.77575      13650.562      1.5778835      1.0018526    
     19100  -10194.845     -10304.069      109.2241       30062.917      391.3823       13675.238      1.5750364      1.0018526    
     19200  -10193.851     -10304.107      110.2552       30103.283      395.07704      13699.056      1.5722979      1.0018526    
     19300  -10199.093     -10306.495      107.40226      29847.177      384.85413      13717.24       1.5702136      1.0018526    
     19400  -10199.686     -10308.103      108.41693      30022.388      388.48999      13720.468      1.5698441      1.0018526    
     19500  -10197.476     -10306.683      109.20739      28411.422      391.32242      13707.568      1.5713216      1.0018526    
     19600  -10195.447     -10306.775      111.32761      31027.452      398.91981      13690.398      1.5732922      1.0018526    
     19700  -10194.903     -10303.929      109.02636      30928.211      390.67375      13673.375      1.575251       1.0018526    
     19800  -10194.297     -10306.962      112.66517      30878.114      403.7127       13663.028      1.5764439      1.0018526    
     19900  -10193.073     -10304.553      111.47964      31942.281      399.46458      13660.47       1.576739       1.0018526    
     20000  -10193.669     -10304.323      110.6544       29992.242      396.50748      13663.905      1.5763427      0.87716489   
     20100  -10190.414     -10303.438      113.02377      29905.878      404.99766      13672.101      1.5753977      0.87716489   
     20200  -10195.28      -10307.762      112.48196      29666.645      403.05618      13688.022      1.5735653      0.87716489   
     20300  -10196.189     -10307.542      111.35264      27672.021      399.0095       13701.79       1.5719841      0.87716489   
     20400  -10193.839     -10305.829      111.99025      30030.4        401.29424      13711.824      1.5708338      0.87716489   
     20500  -10197.139     -10307.073      109.93475      26661.796      393.9288       13716.843      1.570259       0.87716489   
     20600  -10202.541     -10311.117      108.57538      29843.16       389.05776      13713.432      1.5706497      0.87716489   
     20700  -10201.117     -10311.052      109.9345       29135.721      393.9279       13698.22       1.5723938      0.87716489   
     20800  -10201.861     -10308.333      106.47198      27576.217      381.52066      13671.981      1.5754115      0.87716489   
     20900  -10199.811     -10308.21       108.399        29755.202      388.42575      13639.218      1.5791958      0.87716489   
     21000  -10198.022     -10304.686      106.66434      29983.447      382.20994      13613.212      1.5822127      0.9025243    
     21100  -10197.296     -10308.607      111.31111      29200.664      398.86067      13602.784      1.5834256      0.9025243    
     21200  -10198.438     -10307.246      108.80757      33444.837      389.88977      13610.075      1.5825773      0.9025243    
     21300  -10198.186     -10306.702      108.51576      32255.967      388.84414      13631.921      1.5800411      0.9025243    
     21400  -10199.415     -10309.377      109.96159      28884.044      394.02494      13658.485      1.5769682      0.9025243    
     21500  -10200.931     -10308.445      107.51411      28516.179      385.2549       13679.774      1.5745141      0.9025243    
     21600  -10198.197     -10307.249      109.05213      28695.253      390.7661       13695.698      1.5726834      0.9025243    
     21700  -10196.942     -10307.745      110.80327      31359.934      397.04096      13702.074      1.5719515      0.9025243    
     21800  -10198.568     -10306.953      108.38454      34407.778      388.37392      13698.23       1.5723927      0.9025243    
     21900  -10197.543     -10308.569      111.02644      31638.538      397.84065      13688.181      1.5735471      0.9025243    
     22000  -10196.406     -10307.734      111.32842      34934.007      398.9227       13668.545      1.5758076      0.79610907   
     22100  -10197.011     -10308.151      111.13949      32664.352      398.24571      13644.954      1.578532       0.79610907   
     22200  -10196.927     -10309.463      112.53561      30835.85       403.24843      13621.468      1.5812536      0.79610907   
     22300  -10195.385     -10304.872      109.48675      31547.687      392.32346      13604.877      1.583182       0.79610907   
     22400  -10195.325     -10303.537      108.21201      28617.928      387.75568      13603.601      1.5833305      0.79610907   
     22500  -10195.497     -10305.191      109.69401      29263.349      393.06613      13617.341      1.5817329      0.79610907   
     22600  -10196.383     -10306.122      109.73913      29408.354      393.22782      13642.984      1.57876        0.79610907   
     22700  -10198.558     -10307.336      108.77804      30089.427      389.78393      13673.825      1.575199       0.79610907   
     22800  -10200.125     -10309.091      108.96601      29426.812      390.45749      13702.139      1.571944       0.79610907   
     22900  -10197.867     -10305.376      107.50952      26175.932      385.23848      13719.761      1.569925       0.79610907   
     23000  -10196.248     -10305.126      108.87819      26643.708      390.14282      13726.49       1.5691554      0.81572643   
     23100  -10197.776     -10306.35       108.57455      28575.135      389.0548       13722.941      1.5695613      0.81572643   
     23200  -10198.248     -10307.044      108.7959       27170.934      389.84796      13703.045      1.5718401      0.81572643   
     23300  -10198.671     -10306.833      108.1621       30864.483      387.57685      13673.741      1.5752088      0.81572643   
     23400  -10196.965     -10306.243      109.27779      32160.742      391.57469      13640.376      1.5790618      0.81572643   
     23500  -10196.586     -10306.255      109.66933      31429.535      392.97771      13614.045      1.5821158      0.81572643   
     23600  -10196.528     -10307.644      111.11632      28308.566      398.1627       13596.099      1.5842041      0.81572643   
     23700  -10195.41      -10304.936      109.5263       27636.527      392.46517      13595.797      1.5842394      0.81572643   
     23800  -10198.993     -10310.032      111.03887      29226.729      397.88515      13614.233      1.582094       0.81572643   
     23900  -10199.291     -10308.678      109.3876       31026.245      391.96819      13643.926      1.5786509      0.81572643   
     24000  -10197.858     -10306.05       108.1923       29701.529      387.68508      13676.253      1.5749195      0.79092468   
     24100  -10197.985     -10307.05       109.06435      27883.255      390.8099       13708.949      1.5711633      0.79092468   
     24200  -10198.357     -10304.867      106.51052      27278.772      381.65875      13728.618      1.5689122      0.79092468   
     24300  -10196.978     -10306.001      109.02316      29299.493      390.66229      13734.022      1.5682949      0.79092468   
     24400  -10195.634     -10305.576      109.94202      31835.977      393.95484      13725.952      1.569217       0.79092468   
     24500  -10192.369     -10305.592      113.22286      30233.64       405.71104      13706.262      1.5714713      0.79092468   
     24600  -10195.589     -10306.82       111.23117      27856.549      398.57423      13682.244      1.5742298      0.79092468   
     24700  -10197.966     -10305.858      107.89162      30357.989      386.60764      13654.236      1.5774589      0.79092468   
     24800  -10199.372     -10307.202      107.82976      31287.002      386.38598      13625.949      1.5807337      0.79092468   
     24900  -10200.27      -10305.695      105.42438      31535.302      377.76679      13604.903      1.583179       0.79092468   
     25000  -10199.429     -10307.65       108.22102      29877.35       387.78799      13596.036      1.5842115      0.85885503   
     25100  -10201.926     -10306.419      104.49305      32164.703      374.42954      13596.728      1.5841309      0.85885503   
     25200  -10199.239     -10307.514      108.27507      34331.032      387.98167      13613.891      1.5821337      0.85885503   
     25300  -10202.353     -10310.082      107.72868      31252.301      386.02378      13640.127      1.5790907      0.85885503   
     25400  -10201.935     -10310.96       109.02537      30194.853      390.6702       13664.853      1.5762333      0.85885503   
     25500  -10203.711     -10307.373      103.66193      29314.403      371.45142      13683.361      1.5741013      0.85885503   
     25600  -10203.892     -10309.961      106.06853      28883.324      380.07497      13692.18       1.5730875      0.85885503   
     25700  -10199.79      -10308.589      108.79891      31440.082      389.85871      13690.333      1.5732997      0.85885503   
     25800  -10199.811     -10307.361      107.54993      29428.208      385.38325      13680.218      1.5744629      0.85885503   
     25900  -10199.785     -10310.714      110.92933      31889.553      397.49264      13664.374      1.5762885      0.85885503   
     26000  -10196.572     -10308.482      111.90981      29088.47       401.00601      13644.519      1.5785824      0.81996235   
     26100  -10198.577     -10305.968      107.39095      31704.322      384.8136       13628.628      1.580423       0.81996235   
     26200  -10198.385     -10306.839      108.45393      28864.826      388.62258      13623.573      1.5810093      0.81996235   
     26300  -10198.503     -10305.658      107.15593      31167.528      383.97145      13629.771      1.5802904      0.81996235   
     26400  -10196.121     -10305.779      109.6585       31224.178      392.9389       13645.275      1.5784948      0.81996235   
     26500  -10197.717     -10307.845      110.12756      31929.935      394.61968      13667.297      1.5759515      0.81996235   
     26600  -10198.142     -10307.626      109.48325      28824.99       392.31092      13689.55       1.5733896      0.81996235   
     26700  -10198.301     -10308.644      110.34309      30375.923      395.39197      13706.224      1.5714756      0.81996235   
     26800  -10203.404     -10310.497      107.09321      26686.64       383.74671      13713.543      1.5706369      0.81996235   
     26900  -10201.537     -10309.321      107.78402      29085.045      386.22207      13703.435      1.5717954      0.81996235   
     27000  -10202.405     -10310.415      108.01048      28119.249      387.03356      13680.884      1.5743863      0.80083245   
     27100  -10199.335     -10309.943      110.60879      28058.094      396.34405      13650.725      1.5778646      0.80083245   
     27200  -10200.455     -10309.2        108.74575      31963.364      389.66825      13619.612      1.5814692      0.80083245   
     27300  -10198.625     -10308.419      109.79406      30057.948      393.42464      13595.06       1.5843253      0.80083245   
     27400  -10200.156     -10306.452      106.2962       31918.949      380.89079      13582.462      1.5857947      0.80083245   
     27500  -10202.264     -10309.963      107.69923      31691.82       385.91825      13582.061      1.5858415      0.80083245   
     27600  -10203.311     -10312.234      108.92272      29772.222      390.30236      13592.055      1.5846755      0.80083245   
     27700  -10206.783     -10314.946      108.16272      28749.669      387.57906      13604.839      1.5831864      0.80083245   
     27800  -10206.166     -10311.661      105.4952       31547.377      378.02056      13615.367      1.5819623      0.80083245   
     27900  -10205.837     -10313.258      107.42143      31189.461      384.9228       13626.175      1.5807074      0.80083245   
     28000  -10205.209     -10312.143      106.93448      29316.26       383.17792      13636.745      1.5794822      0.82860463   
     28100  -10202.792     -10312.461      109.66907      31296.253      392.97678      13643.07       1.57875        0.82860463   
     28200  -10202.751     -10309.058      106.30793      32264.943      380.93281      13647.473      1.5782407      0.82860463   
     28300  -10200.898     -10309.129      108.2315       28940.588      387.82555      13651.194      1.5778104      0.82860463   
     28400  -10197.48      -10306.869      109.38864      29052.399      391.97191      13654.407      1.5774392      0.82860463   
     28500  -10198.848     -10309.546      110.69847      28829.344      396.66541      13664.776      1.5762422      0.82860463   
     28600  -10200.375     -10309.161      108.78626      27628.77       389.81339      13675.57       1.5749981      0.82860463   
     28700  -10201.186     -10308.144      106.95762      28581.492      383.26084      13684.332      1.5739896      0.82860463   
     28800  -10201.216     -10312.078      110.86169      28241.465      397.25029      13691.951      1.5731137      0.82860463   
     28900  -10203.781     -10310.009      106.22767      29809.97       380.64523      13694.874      1.572778       0.82860463   
     29000  -10205.133     -10310.018      104.88585      31398.292      375.83707      13690.003      1.5733376      0.84395053   
     29100  -10207.169     -10310.557      103.38781      29392.22       370.46915      13671.879      1.5754232      0.84395053   
     29200  -10204.492     -10311.117      106.62495      27925.292      382.0688       13645.002      1.5785265      0.84395053   
     29300  -10202.116     -10309.934      107.81807      30142.668      386.3441       13615.629      1.5819318      0.84395053   
     29400  -10200.228     -10307.924      107.69536      31911.722      385.90439      13590.351      1.5848742      0.84395053   
     29500  -10197.482     -10304.958      107.47623      32560.545      385.11918      13579.122      1.5861848      0.84395053   
     29600  -10200.179     -10309.535      109.35559      32991.056      391.85348      13587.412      1.5852171      0.84395053   
     29700  -10200.978     -10309.774      108.79636      34839.609      389.84959      13612.435      1.582303       0.84395053   
     29800  -10200.202     -10308.181      107.9786       34117.09       386.91931      13648.291      1.578146       0.84395053   
     29900  -10200.989     -10309.442      108.45271      28089.242      388.61819      13689.203      1.5734296      0.84395053   
     30000  -10198.722     -10304.676      105.95364      28721.77       379.66328      13723.736      1.5694703      0.90956099   
     30100  -10199.769     -10308.772      109.0035       27805.931      390.59183      13749.719      1.5665045      0.90956099   
     30200  -10199.9       -10309.121      109.22172      24802.704      391.37378      13757.585      1.5656088      0.90956099   
     30300  -10199.544     -10305.899      106.35501      29919.244      381.10151      13747.049      1.5668087      0.90956099   
     30400  -10198.867     -10308.049      109.18158      31599.661      391.22996      13722.5        1.5696117      0.90956099   
     30500  -10200.313     -10310.166      109.85335      31078.163      393.63711      13684.697      1.5739477      0.90956099   
     30600  -10200.434     -10308.564      108.12994      33316.594      387.46161      13640.896      1.5790016      0.90956099   
     30700  -10198.823     -10308.25       109.42691      32852.947      392.10904      13602.984      1.5834023      0.90956099   
     30800  -10199.427     -10308.248      108.82036      31553.827      389.9356       13578.438      1.5862647      0.90956099   
     30900  -10198.484     -10307.057      108.57243      31573.353      389.04718      13571.457      1.5870807      0.90956099   
     31000  -10197.724     -10308.929      111.20469      36221.387      398.47936      13586.232      1.5853546      0.85084136   
     31100  -10197.856     -10307.902      110.04559      33387.442      394.32595      13619.038      1.5815358      0.85084136   
     31200  -10198.171     -10309.444      111.27302      31523.826      398.72418      13665.037      1.5762121      0.85084136   
     31300  -10199.279     -10307.677      108.39865      29386.154      388.42449      13710.621      1.5709716      0.85084136   
     31400  -10200.921     -10311.213      110.29203      27050.403      395.20901      13742.814      1.5672916      0.85084136   
     31500  -10200.96      -10308.854      107.89456      25869.045      386.61817      13753.89       1.5660294      0.85084136   
     31600  -10202.493     -10308.343      105.84938      27963.225      379.28968      13738.478      1.5677862      0.85084136   
     31700  -10199.229     -10308.348      109.11921      31217.183      391.00645      13697.352      1.5724935      0.85084136   
     31800  -10198.298     -10309.076      110.77818      28943.666      396.95103      13643.191      1.5787359      0.85084136   
     31900  -10195.49      -10305.041      109.55044      32307.257      392.55169      13589.153      1.5850139      0.85084136   
     32000  -10197.118     -10307.353      110.23547      29969.742      395.00636      13552.365      1.5893165      0.87282221   
     32100  -10197.37      -10306.865      109.49426      29005.615      392.35038      13540.055      1.5907613      0.87282221   
     32200  -10194.797     -10305.103      110.30674      32724.203      395.26173      13552.515      1.5892988      0.87282221   
     32300  -10197.329     -10309.577      112.2472       32022.084      402.21499      13589.435      1.584981       0.87282221   
     32400  -10197.398     -10308.404      111.00631      31655.007      397.76849      13638.874      1.5792357      0.87282221   
     32500  -10200.352     -10308.361      108.00949      28250.095      387.03002      13686.189      1.573776       0.87282221   
     32600  -10202.976     -10309.105      106.1299       27879.695      380.29489      13720.617      1.5698271      0.87282221   
     32700  -10202.157     -10311.367      109.20956      26002.367      391.33023      13731.062      1.568633       0.87282221   
     32800  -10199.346     -10307.448      108.10174      26647.054      387.36056      13713.654      1.5706241      0.87282221   
     32900  -10199.024     -10310.351      111.32703      30115.729      398.91772      13677.976      1.574721       0.87282221   
     33000  -10199.388     -10309.013      109.62562      29223.075      392.82108      13630.381      1.5802197      0.86640075   
     33100  -10196.09      -10307.901      111.81046      29313.718      400.65         13583.684      1.5856521      0.86640075   
     33200  -10199.317     -10308.312      108.99478      32651.368      390.56058      13547.117      1.5899321      0.86640075   
     33300  -10195.832     -10306.267      110.43511      29738.149      395.7217       13526.395      1.5923678      0.86640075   
     33400  -10195.985     -10305.754      109.76888      32938.29       393.33442      13531.788      1.5917332      0.86640075   
     33500  -10197.63      -10310.911      113.2807       31647.03       405.9183       13560.113      1.5884083      0.86640075   
     33600  -10198.884     -10309.349      110.46482      31621.117      395.82816      13603.198      1.5833774      0.86640075   
     33700  -10200.486     -10310.746      110.26046      29356.102      395.09589      13650.27       1.5779173      0.86640075   
     33800  -10195.669     -10307.233      111.56416      28207.307      399.76746      13685.2        1.5738898      0.86640075   
     33900  -10195.189     -10305.154      109.96484      27732.424      394.03662      13706.547      1.5714386      0.86640075   
     34000  -10192.482     -10308.08       115.59874      28868.012      414.22455      13714.254      1.5705555      0.90060144   
     34100  -10196.663     -10309.377      112.71429      30209.514      403.88869      13706.747      1.5714157      0.90060144   
     34200  -10197.439     -10309.02       111.58081      31742.057      399.82708      13684.951      1.5739184      0.90060144   
     34300  -10198.512     -10307.278      108.76637      30493.614      389.74212      13649.208      1.5780401      0.90060144   
     34400  -10198.134     -10308.544      110.41047      31560.031      395.63344      13604.268      1.5832529      0.90060144   
     34500  -10197.885     -10306.763      108.8781       31508.45       390.1425       13561.751      1.5882165      0.90060144   
     34600  -10200.419     -10310.598      110.17806      33851.784      394.80063      13532.571      1.5916411      0.90060144   
     34700  -10201.874     -10308.813      106.93816      37419.02       383.19111      13523.63       1.5926934      0.90060144   
     34800  -10199.984     -10310.796      110.81212      35044.87       397.07266      13540.759      1.5906786      0.90060144   
     34900  -10198.398     -10308.635      110.23618      33219.284      395.00891      13576.395      1.5865034      0.90060144   
     35000  -10199.512     -10309.627      110.11578      30956.485      394.57746      13627.104      1.5805997      0.93096598   
     35100  -10202.619     -10311.549      108.93026      30029.987      390.32941      13683.074      1.5741343      0.93096598   
     35200  -10203.702     -10313.988      110.28628      27358.767      395.18841      13723.065      1.569547       0.93096598   
     35300  -10202.934     -10310.744      107.81072      26452.741      386.31774      13735.79       1.5680931      0.93096598   
     35400  -10207.151     -10312.853      105.70148      28559.308      378.75973      13719.086      1.5700023      0.93096598   
     35500  -10204.992     -10311.839      106.84709      30202.483      382.86479      13671.493      1.5754678      0.93096598   
     35600  -10204.903     -10311.972      107.06938      29394.721      383.6613       13602.448      1.5834647      0.93096598   
     35700  -10200.52      -10311.454      110.93385      30750.765      397.50884      13529.838      1.5919627      0.93096598   
     35800  -10196.672     -10307.708      111.036        35865.233      397.87489      13475.169      1.5984213      0.93096598   
     35900  -10196.202     -10307.611      111.40882      37798.228      399.21082      13457.422      1.6005291      0.93096598   
     36000  -10201.293     -10312.871      111.57827      32516.848      399.81801      13481.508      1.5976697      0.87698123   
     36100  -10203.583     -10311.276      107.69286      32187.589      385.89542      13536.644      1.5911623      0.87698123   
     36200  -10203.672     -10311.913      108.24097      31353.097      387.85948      13608.994      1.582703       0.87698123   
     36300  -10204.059     -10312.072      108.01339      27379.909      387.04396      13680.799      1.5743961      0.87698123   
     36400  -10203.935     -10310.528      106.59229      24691.916      381.95176      13732.708      1.568445       0.87698123   
     36500  -10202.635     -10312.628      109.99303      29763.115      394.13761      13754.135      1.5660016      0.87698123   
     36600  -10202.841     -10311.804      108.96363      30245.659      390.44896      13741.097      1.5674874      0.87698123   
     36700  -10203.817     -10308.678      104.8606       28981.851      375.74659      13697.606      1.5724644      0.87698123   
     36800  -10199.931     -10309.632      109.70028      30262.605      393.08862      13638.905      1.5792321      0.87698123   
     36900  -10198.626     -10307.946      109.32047      29471.68       391.72764      13577.789      1.5863405      0.87698123   
     37000  -10195.963     -10306.003      110.03942      32860.809      394.30383      13530.164      1.5919242      0.84512067   
     37100  -10197.933     -10307.635      109.70219      34516.581      393.09544      13511.491      1.5941243      0.84512067   
     37200  -10200.473     -10308.636      108.16319      33033.352      387.58076      13515.776      1.593619       0.84512067   
     37300  -10202.492     -10312.503      110.01085      29421.469      394.20146      13537.133      1.5911047      0.84512067   
     37400  -10202.497     -10310.406      107.90806      29891.218      386.66653      13568.043      1.58748        0.84512067   
     37500  -10202.308     -10310.848      108.54002      29724.4        388.93106      13603.515      1.5833405      0.84512067   
     37600  -10202.605     -10309.447      106.84153      31490.33       382.84486      13630.448      1.5802119      0.84512067   
     37700  -10201.953     -10307.259      105.30541      31252.106      377.34048      13644.844      1.5785447      0.84512067   
     37800  -10200.089     -10313.153      113.06397      31068.081      405.1417       13648.547      1.5781164      0.84512067   
     37900  -10200.664     -10308.162      107.49801      32389.974      385.19723      13638.767      1.5792481      0.84512067   
     38000  -10205.041     -10314.656      109.61558      33008.743      392.78509      13624.824      1.5808643      0.8600438    
     38100  -10203.268     -10310.403      107.13473      32646.977      383.89549      13604.585      1.583216       0.8600438    
     38200  -10201.131     -10311.372      110.24114      31375.512      395.02668      13586.526      1.5853204      0.8600438    
     38300  -10199.113     -10307.729      108.61625      29587.527      389.20419      13577.076      1.5864238      0.8600438    
     38400  -10199.842     -10308.943      109.10144      28099.976      390.9428       13575.682      1.5865867      0.8600438    
     38500  -10197.471     -10308.322      110.85098      27475.219      397.21191      13583.122      1.5857177      0.8600438    
     38600  -10197.18      -10310.261      113.08046      29531.912      405.20079      13598.849      1.5838837      0.8600438    
     38700  -10197.98      -10309.957      111.97719      31688.581      401.24746      13620.155      1.5814061      0.8600438    
     38800  -10199.17      -10308.028      108.85812      29650.631      390.07089      13642.106      1.5788615      0.8600438    
     38900  -10198.891     -10310.923      112.03171      28829.785      401.44281      13659.945      1.5767996      0.8600438    
     39000  -10197.066     -10308.075      111.00893      30678.368      397.7779       13666.122      1.576087       0.80933271   
     39100  -10199.274     -10309.896      110.62182      30346.18       396.39077      13666.817      1.5760068      0.80933271   
     39200  -10202.098     -10308.918      106.81955      26628.82       382.76611      13657.378      1.577096       0.80933271   
     39300  -10200.68      -10307.723      107.04278      29030.472      383.56599      13632.921      1.5799253      0.80933271   
     39400  -10199.926     -10308.623      108.69741      31529.986      389.49503      13601.786      1.5835418      0.80933271   
     39500  -10201.779     -10310.648      108.86973      32625.805      390.1125       13573.769      1.5868103      0.80933271   
     39600  -10202.652     -10309.928      107.27678      29642.426      384.4045       13553.156      1.5892237      0.80933271   
     39700  -10200.04      -10307.813      107.7732       33052.058      386.18331      13539.985      1.5907696      0.80933271   
     39800  -10199.721     -10306.665      106.94349      33271.649      383.21022      13539.177      1.5908645      0.80933271   
     39900  -10198.667     -10309.647      110.97937      29240.682      397.67196      13554.19       1.5891024      0.80933271   
     40000  -10197.691     -10307.642      109.95077      31417.403      393.9862       13583.139      1.5857157      0.8508077    
     40100  -10199.448     -10309.318      109.87022      31044.039      393.69753      13626.101      1.5807161      0.8508077    
     40200  -10199.54      -10309.212      109.67194      29283.745      392.98707      13675.458      1.575011       0.8508077    
     40300  -10201.942     -10310.564      108.62202      25389.062      389.22489      13718.013      1.5701251      0.8508077    
     40400  -10201.762     -10309.709      107.94667      27156.301      386.8049       13736.094      1.5680583      0.8508077    
     40500  -10202.941     -10312.257      109.31567      26722.791      391.71045      13727.977      1.5689854      0.8508077    
     40600  -10204.233     -10311.454      107.22113      29167.217      384.20508      13691.444      1.573172       0.8508077    
     40700  -10201.995     -10309.962      107.96634      29091.267      386.87539      13632.838      1.5799349      0.8508077    
     40800  -10200.829     -10308.738      107.90951      31233.763      386.67174      13565.279      1.5878035      0.8508077    
     40900  -10197.712     -10304.919      107.20686      33371.446      384.15394      13506.763      1.5946823      0.8508077    
     41000  -10199.539     -10305.969      106.42962      29929.214      381.36888      13478.2        1.5980618      0.80934799   
     41100  -10199.855     -10307.814      107.95921      32269.255      386.84984      13484.254      1.5973443      0.80934799   
     41200  -10202.104     -10310.119      108.01526      31249.985      387.05069      13521.813      1.5929075      0.80934799   
     41300  -10204.293     -10309.015      104.72246      29593.393      375.25161      13578.841      1.5862176      0.80934799   
     41400  -10204.67      -10312.902      108.23156      31093.463      387.82574      13641.779      1.5788993      0.80934799   
     41500  -10203.434     -10312.501      109.06774      27344.572      390.82203      13691.864      1.5731237      0.80934799   
     41600  -10203.875     -10311.148      107.27353      28102.487      384.39286      13716.148      1.5703386      0.80934799   
     41700  -10201.403     -10313.008      111.60516      27194.411      399.91436      13711.78       1.5708388      0.80934799   
     41800  -10202.291     -10312.324      110.0334       26800.776      394.28226      13679.655      1.5745277      0.80934799   
     41900  -10199.667     -10308.239      108.57266      33292.285      389.048        13623.734      1.5809907      0.80934799   
     42000  -10198.752     -10308.31       109.55823      33734.297      392.57961      13563.035      1.5880662      0.8414662    
     42100  -10197.861     -10307.789      109.92805      31675.226      393.90479      13512.891      1.5939591      0.8414662    
     42200  -10197.972     -10306.805      108.83373      29712.306      389.98348      13486.78       1.5970451      0.8414662    
     42300  -10199.044     -10309.514      110.47023      30815.173      395.84757      13489.119      1.5967683      0.8414662    
     42400  -10203.247     -10311.977      108.73003      31739.35       389.61193      13515.26       1.5936798      0.8414662    
     42500  -10206.013     -10312.141      106.12739      31064.811      380.28588      13554.319      1.5890873      0.8414662    
     42600  -10208.284     -10313.882      105.59846      26186.397      378.39059      13594.395      1.5844027      0.8414662    
     42700  -10209.277     -10316.81       107.5336       25441.222      385.32476      13625.261      1.5808135      0.8414662    
     42800  -10211.082     -10315.69       104.60835      26432.98       374.8427       13635.287      1.5796511      0.8414662    
     42900  -10206.417     -10313.69       107.27277      29516.699      384.39012      13624.848      1.5808615      0.8414662    
     43000  -10205.162     -10311.965      106.80289      33487.954      382.70639      13599.642      1.5837914      0.82776495   
     43100  -10204.153     -10312.905      108.75201      32342.592      389.69067      13568.591      1.5874159      0.82776495   
     43200  -10204.855     -10313.637      108.7813       31477.306      389.79561      13538.188      1.5909807      0.82776495   
     43300  -10204.848     -10314.901      110.05267      33473.749      394.35132      13515.231      1.5936832      0.82776495   
     43400  -10204.09      -10313.316      109.22569      31740.34       391.38801      13505.275      1.594858       0.82776495   
     43500  -10203.846     -10310.889      107.04327      31518.743      383.56773      13509.501      1.5943591      0.82776495   
     43600  -10204.684     -10313.201      108.51704      29339.936      388.84869      13530.359      1.5919013      0.82776495   
     43700  -10204.691     -10312.207      107.51634      27117.152      385.26289      13561.358      1.5882625      0.82776495   
     43800  -10201.883     -10310.506      108.62368      32323.627      389.23081      13598.439      1.5839315      0.82776495   
     43900  -10203.611     -10312.192      108.58165      31525.58       389.08021      13636.28       1.579536       0.82776495   
     44000  -10202.196     -10309.932      107.73601      27136.819      386.05004      13664.86       1.5762325      0.83161868   
     44100  -10203.069     -10310.281      107.21236      23394.88       384.17364      13677.183      1.5748124      0.83161868   
     44200  -10201.257     -10311.258      110.00089      27947.655      394.16579      13670.314      1.5756036      0.83161868   
     44300  -10201.827     -10312.233      110.40584      27852.441      395.61683      13645.722      1.5784431      0.83161868   
     44400  -10201.751     -10310.036      108.28547      30209.234      388.01892      13610.286      1.5825528      0.83161868   
     44500  -10198.167     -10310.483      112.31657      29682.741      402.46355      13578.067      1.5863081      0.83161868   
     44600  -10198.707     -10309.279      110.5721       31552.605      396.21261      13554.575      1.5890573      0.83161868   
     44700  -10198.028     -10306.758      108.72948      30447.999      389.60995      13542.092      1.5905221      0.83161868   
     44800  -10199.735     -10308.184      108.44922      32556.561      388.60569      13548.421      1.5897791      0.83161868   
     44900  -10200.038     -10309.497      109.45879      29744.867      392.22327      13574.913      1.5866766      0.83161868   
     45000  -10198.678     -10308.382      109.70382      27584.228      393.10129      13611.944      1.58236        0.81693242   
     45100  -10201.848     -10311.529      109.68113      24725.994      393.01999      13653.29       1.5775683      0.81693242   
     45200  -10203.594     -10308.704      105.10973      25123.215      376.6393       13682.234      1.574231       0.81693242   
     45300  -10204.388     -10313.123      108.73525      27049.522      389.6306       13693.185      1.572972       0.81693242   
     45400  -10203.968     -10312.21       108.24193      28517.1        387.86289      13676.788      1.5748578      0.81693242   
     45500  -10205.432     -10311.352      105.92017      28238.66       379.54335      13634.794      1.5797083      0.81693242   
     45600  -10202.316     -10311.108      108.79243      30095.548      389.8355       13572.885      1.5869137      0.81693242   
     45700  -10201.539     -10308.46       106.92068      29141.56       383.12849      13503.801      1.5950321      0.81693242   
     45800  -10199.497     -10312.829      113.33132      31962.681      406.0997       13447.198      1.601746       0.81693242   
     45900  -10199.052     -10311.948      112.89579      34560.551      404.53906      13422.657      1.6046746      0.81693242   
     46000  -10202.551     -10311.385      108.83379      35205.458      389.98372      13437.259      1.6029309      0.82320276   
     46100  -10201.633     -10310.543      108.91023      32132.226      390.25764      13491.638      1.5964701      0.82320276   
     46200  -10202.404     -10311.441      109.03787      27487.614      390.71499      13574.116      1.5867698      0.82320276   
     46300  -10200.914     -10310.226      109.31224      27871.358      391.69814      13664.41       1.5762845      0.82320276   
     46400  -10203.554     -10312.515      108.96025      28078.33       390.43686      13740.814      1.5675197      0.82320276   
     46500  -10203.377     -10310.918      107.54158      28291.673      385.35333      13778.501      1.5632322      0.82320276   
     46600  -10200.549     -10312.875      112.32573      30019.64       402.49637      13774.197      1.5637206      0.82320276   
     46700  -10199.239     -10308.709      109.47056      32618.376      392.26544      13731.812      1.5685473      0.82320276   
     46800  -10197.575     -10309.487      111.91192      30935.89       401.01358      13667.632      1.5759128      0.82320276   
     46900  -10197.61      -10307.947      110.33677      33038.969      395.36933      13597.42       1.5840502      0.82320276   
     47000  -10198.554     -10309.196      110.64218      28719.152      396.46373      13540.251      1.5907383      0.83004804   
     47100  -10202.579     -10312.183      109.60446      32091.634      392.74525      13502.793      1.5951512      0.83004804   
     47200  -10202.845     -10312.656      109.81085      32729.553      393.4848       13486.716      1.5970527      0.83004804   
     47300  -10203.062     -10312.712      109.65005      31750.097      392.90862      13492.697      1.5963448      0.83004804   
     47400  -10201.872     -10308.707      106.83528      32508.466      382.82246      13517.846      1.5933749      0.83004804   
     47500  -10201.48      -10313.271      111.79072      28780.033      400.57927      13557.33       1.5887344      0.83004804   
     47600  -10206.461     -10311.752      105.29078      29125.386      377.28805      13593.462      1.5845115      0.83004804   
     47700  -10206.065     -10314.312      108.24739      26813.422      387.88247      13619.284      1.5815073      0.83004804   
     47800  -10205.142     -10313.722      108.57982      27908.4        389.07366      13626.318      1.5806909      0.83004804   
     47900  -10201.313     -10309.999      108.68594      32162.219      389.45394      13617.432      1.5817223      0.83004804   
     48000  -10200.516     -10309.254      108.73818      30382.728      389.64113      13603.936      1.5832915      0.84903337   
     48100  -10200.616     -10311.504      110.88778      30767.271      397.34379      13587.968      1.5851521      0.84903337   
     48200  -10199.466     -10309.564      110.09767      33231.094      394.51259      13568.613      1.5874133      0.84903337   
     48300  -10198.031     -10309.794      111.76298      29223.081      400.47985      13552.079      1.5893499      0.84903337   
     48400  -10197.297     -10308.374      111.07738      30911.5        398.02318      13539.79       1.5907925      0.84903337   
     48500  -10196.421     -10308.79       112.36943      34190.344      402.65298      13536.896      1.5911326      0.84903337   
     48600  -10197.009     -10309.867      112.8576       34753.2        404.40221      13546.043      1.5900582      0.84903337   
     48700  -10197.971     -10309.464      111.49352      30816.378      399.5143       13566.376      1.587675       0.84903337   
     48800  -10197.292     -10309.162      111.87009      28636.554      400.86366      13588.628      1.5850752      0.84903337   
     48900  -10199.781     -10307.695      107.91376      27098.058      386.68697      13608.611      1.5827476      0.84903337   
     49000  -10200.224     -10309.135      108.91176      29097.72       390.26311      13620.343      1.5813843      0.9562645    
     49100  -10197.951     -10308.361      110.40959      31691.245      395.63029      13620.004      1.5814237      0.9562645    
     49200  -10200.029     -10311.104      111.07513      30852.185      398.01511      13610.148      1.5825689      0.9562645    
     49300  -10201.401     -10310.959      109.55797      31827.971      392.57867      13591.16       1.5847798      0.9562645    
     49400  -10202.646     -10311.126      108.48018      32610.889      388.71662      13564.95       1.587842       0.9562645    
     49500  -10200.48      -10307.652      107.17136      34764.432      384.02674      13534.469      1.591418       0.9562645    
     49600  -10199.879     -10308.807      108.928        30471.334      390.3213       13513.047      1.5939408      0.9562645    
     49700  -10198.887     -10307.418      108.53058      26698.591      388.89722      13507.725      1.5945688      0.9562645    
     49800  -10199.625     -10311.191      111.5659       28507.149      399.77369      13522.356      1.5928434      0.9562645    
     49900  -10200.986     -10309.64       108.65381      25741.788      389.33879      13549.822      1.5896147      0.9562645    
     50000  -10198.46      -10307.632      109.17217      27031.106      391.19621      13583.834      1.5856345      0.85498059   
     50100  -10200.233     -10309.023      108.78991      29094.091      389.82647      13615.03       1.5820014      0.85498059   
     50200  -10202.386     -10313.956      111.5703       28742.016      399.78943      13637.564      1.5793874      0.85498059   
     50300  -10203.196     -10311.094      107.8983       28101.92       386.63156      13640.919      1.578999       0.85498059   
     50400  -10202.078     -10311.261      109.18356      31765.412      391.23706      13625.754      1.5807562      0.85498059   
     50500  -10203.331     -10313.47       110.13963      30683.742      394.66294      13596.773      1.5841256      0.85498059   
     50600  -10201.324     -10310.299      108.97446      29136.261      390.48777      13556.283      1.5888571      0.85498059   
     50700  -10200.985     -10311.822      110.83667      35564.424      397.16062      13515.968      1.5935963      0.85498059   
     50800  -10202.315     -10309.887      107.57181      33855.539      385.46168      13487.604      1.5969476      0.85498059   
     50900  -10197.617     -10308.032      110.41513      32001.801      395.65013      13476.369      1.5982789      0.85498059   
     51000  -10199.248     -10310.56       111.31178      30769.22       398.8631       13487.079      1.5970097      0.96039235   
     51100  -10201.6       -10308.263      106.66278      30526.703      382.20434      13516.927      1.5934832      0.96039235   
     51200  -10202.065     -10310.852      108.78668      26482.677      389.8149       13561.968      1.588191       0.96039235   
     51300  -10203.194     -10311.161      107.96708      28839.646      386.87805      13608.142      1.5828022      0.96039235   
     51400  -10203.271     -10310.621      107.34944      27489.019      384.66485      13642.538      1.5788115      0.96039235   
     51500  -10203.06      -10314.124      111.06392      28794.86       397.97493      13657.661      1.5770633      0.96039235   
     51600  -10200.574     -10309.965      109.3913       30160.356      391.98142      13647.337      1.5782564      0.96039235   
     51700  -10201.373     -10311.331      109.95814      31920.11       394.0126       13618.383      1.5816119      0.96039235   
     51800  -10199.603     -10310.231      110.62787      30504.324      396.41244      13572.711      1.586934       0.96039235   
     51900  -10199.515     -10311.112      111.59628      31744.313      399.88253      13525.324      1.5924939      0.96039235   
     52000  -10197.468     -10309.062      111.59346      32803.494      399.87241      13490.425      1.5966136      0.95314529   
     52100  -10199.769     -10310.712      110.94262      33555.422      397.54027      13478.723      1.5979997      0.95314529   
     52200  -10200.547     -10311.642      111.09421      31626.755      398.08346      13491.155      1.5965272      0.95314529   
     52300  -10202.005     -10308.783      106.77812      31540.226      382.61764      13523.107      1.592755       0.95314529   
     52400  -10203.668     -10311.267      107.59827      27723.969      385.55649      13572.639      1.5869424      0.95314529   
     52500  -10203.379     -10311.128      107.74852      29099.344      386.09486      13622.743      1.5811057      0.95314529   
     52600  -10202.144     -10310.996      108.85158      28785.507      390.04745      13661.748      1.5765916      0.95314529   
     52700  -10200.345     -10311.325      110.98004      31424.961      397.67438      13683.041      1.5741381      0.95314529   
     52800  -10200.833     -10310.093      109.25981      31699.099      391.51027      13679.967      1.5744918      0.95314529   
     52900  -10202.453     -10313.318      110.86514      28642.839      397.26266      13655.591      1.5773024      0.95314529   
     53000  -10200.422     -10310.556      110.13383      28084.871      394.64213      13612.352      1.5823127      0.84006681   
     53100  -10199.317     -10309.041      109.72481      30069.447      393.17652      13563.65       1.5879941      0.84006681   
     53200  -10195.474     -10309.206      113.7312       31072.307      407.5326       13522.565      1.5928188      0.84006681   
     53300  -10197.235     -10308.503      111.26832      34656.797      398.70735      13498.062      1.5957103      0.84006681   
     53400  -10198.372     -10308.114      109.74191      29476.938      393.23778      13494.515      1.5961298      0.84006681   
     53500  -10199.49      -10311.313      111.82307      28672.11       400.6952       13515.143      1.5936936      0.84006681   
     53600  -10199.358     -10309.657      110.29891      29452.584      395.23368      13551.726      1.5893914      0.84006681   
     53700  -10198.744     -10310.784      112.03955      29853.078      401.47089      13599.736      1.5837805      0.84006681   
     53800  -10199.747     -10308.934      109.18636      32738.197      391.24709      13648.199      1.5781567      0.84006681   
     53900  -10204.618     -10310.409      105.79123      27486.496      379.08133      13685.129      1.573898       0.84006681   
     54000  -10202.852     -10313.109      110.25688      23525.39       395.08307      13699.598      1.5722357      0.8410667    
     54100  -10204.266     -10311.22       106.95386      23913.56       383.24738      13687.037      1.5736785      0.8410667    
     54200  -10201.483     -10313.388      111.90551      24127.385      400.99058      13649.654      1.5779885      0.8410667    
     54300  -10201.497     -10314.791      113.29413      29454.061      405.96644      13595.085      1.5843224      0.8410667    
     54400  -10199.363     -10307.989      108.62523      29133.536      389.23638      13535.817      1.5912594      0.8410667    
     54500  -10199.616     -10310.17       110.5541       29765.4        396.14809      13491.285      1.5965118      0.8410667    
     54600  -10198.215     -10310.163      111.94855      31503.557      401.14481      13472.264      1.5987659      0.8410667    
     54700  -10200.608     -10309.151      108.54313      31643.535      388.94219      13479.858      1.5978653      0.8410667    
     54800  -10200.018     -10308.732      108.714        33561.951      389.55447      13512.442      1.5940122      0.8410667    
     54900  -10202.999     -10312.508      109.50848      29307.534      392.40134      13561.26       1.588274       0.8410667    
     55000  -10203.382     -10311.762      108.37972      28827.952      388.35664      13609.392      1.5826568      0.88865497   
     55100  -10203.92      -10311.19       107.27025      29211.601      384.38107      13646.541      1.5783485      0.88865497   
[...]
    842700  -10204.003     -10315.517      111.51454      31522.833      399.58962      13527.839      1.5921978      0.91323103   
    842800  -10201.21      -10309.447      108.23631      31618.889      387.84275      13512.847      1.5939644      0.91323103   
    842900  -10201.957     -10313.466      111.50867      31247.248      399.5686       13513.292      1.5939119      0.91323103   
    843000  -10203.578     -10311.367      107.789        30824.258      386.23992      13525.107      1.5925195      0.91600008   
    843100  -10202.886     -10309.528      106.64149      30852.356      382.12804      13546.958      1.5899508      0.91600008   
    843200  -10203.105     -10313.448      110.34336      27536.861      395.39297      13576.289      1.5865158      0.91600008   
    843300  -10204.248     -10315.53       111.282        27967.034      398.75637      13602.525      1.5834557      0.91600008   
    843400  -10204.427     -10313.438      109.01062      27068.3        390.61736      13616.817      1.5817938      0.91600008   
    843500  -10203.75      -10315.299      111.54984      28267.074      399.71614      13620.23       1.5813975      0.91600008   
    843600  -10207.331     -10317.366      110.03508      26507.958      394.28829      13609.223      1.5826764      0.91600008   
    843700  -10207.845     -10315.674      107.82869      28936.14       386.38213      13582.205      1.5858247      0.91600008   
    843800  -10206.669     -10314.302      107.6329       29434.868      385.68056      13540.624      1.5906946      0.91600008   
    843900  -10207.465     -10316.083      108.61793      28748.061      389.21023      13492.398      1.5963801      0.91600008   
    844000  -10204.53      -10311.974      107.4443       35649.413      385.00475      13449.222      1.601505       0.90620378   
    844100  -10204.287     -10314.276      109.98906      34923.259      394.12338      13426.977      1.6041583      0.90620378   
    844200  -10203.624     -10312.349      108.72552      31475.065      389.59575      13434.995      1.603201       0.90620378   
    844300  -10204.798     -10315.474      110.67663      26734.271      396.58714      13472.188      1.5987749      0.90620378   
    844400  -10204.195     -10314.587      110.3927       27049.238      395.56977      13525.778      1.5924404      0.90620378   
    844500  -10206.43      -10314.048      107.61774      30790.586      385.62625      13584.957      1.5855034      0.90620378   
    844600  -10207.32      -10317.257      109.93674      29398.829      393.93592      13639.245      1.5791928      0.90620378   
    844700  -10205.754     -10311.941      106.18712      30572.69       380.49991      13668.455      1.5758179      0.90620378   
    844800  -10208.051     -10317.61       109.559        28403.803      392.58237      13672.909      1.5753046      0.90620378   
    844900  -10207.705     -10313.802      106.09705      30305.597      380.17715      13646.13       1.578396       0.90620378   
    845000  -10201.766     -10311.266      109.49996      28913.93       392.37081      13597.329      1.5840609      0.92297928   
    845100  -10203.793     -10312.426      108.63315      30978.135      389.26476      13543.105      1.5904031      0.92297928   
    845200  -10205.511     -10317.598      112.08672      31237.885      401.63992      13497.509      1.5957756      0.92297928   
    845300  -10201.31      -10310.869      109.55886      31949.751      392.58185      13465.44       1.5995761      0.92297928   
    845400  -10201.764     -10311.967      110.20289      31155.751      394.8896       13460.895      1.6001162      0.92297928   
    845500  -10201.425     -10314.239      112.8134       30387.922      404.24384      13482.631      1.5975366      0.92297928   
    845600  -10204.188     -10310.916      106.72811      32716.51       382.43844      13522.285      1.5928518      0.92297928   
    845700  -10206.084     -10315.685      109.60118      27600.546      392.73351      13574.152      1.5867655      0.92297928   
    845800  -10205.823     -10315.924      110.1012       30249.579      394.5252       13622.726      1.5811076      0.92297928   
    845900  -10204.41      -10313.49       109.08         29598.569      390.86597      13653.282      1.5775692      0.92297928   
    846000  -10206.376     -10312.946      106.57027      28139.307      381.87286      13662.075      1.5765538      0.87529929   
    846100  -10207.741     -10316.424      108.68255      28421.405      389.44178      13647.538      1.5782331      0.87529929   
    846200  -10209.093     -10315.939      106.84563      30554.714      382.85953      13610.905      1.5824809      0.87529929   
    846300  -10207.858     -10317.357      109.49907      31143.569      392.3676       13555.39       1.5889618      0.87529929   
    846400  -10209.119     -10316.168      107.04857      30709.168      383.58675      13496.784      1.5958614      0.87529929   
    846500  -10204.985     -10315.053      110.06804      34258.685      394.40638      13446.852      1.6017872      0.87529929   
    846600  -10204.079     -10313.165      109.08535      37526.649      390.88511      13417.665      1.6052716      0.87529929   
    846700  -10201.864     -10311.142      109.27793      35301.555      391.57521      13421.403      1.6048245      0.87529929   
    846800  -10204.53      -10316.321      111.79131      32833.985      400.58137      13461.752      1.6000143      0.87529929   
    846900  -10209.794     -10316.051      106.25608      32299.459      380.74703      13519.551      1.5931739      0.87529929   
    847000  -10210.843     -10317.377      106.53381      30277.574      381.74219      13577.964      1.58632        0.88656583   
    847100  -10212.046     -10319.027      106.98152      30581.058      383.3465       13618.989      1.5815415      0.88656583   
    847200  -10210.256     -10315.358      105.10208      28526.195      376.61188      13631.981      1.5800343      0.88656583   
    847300  -10209.234     -10317.274      108.03953      28309.157      387.13764      13622.218      1.5811666      0.88656583   
    847400  -10208.125     -10315.781      107.65645      30156.427      385.76496      13591.74       1.5847122      0.88656583   
    847500  -10205.238     -10315.532      110.29396      30199.299      395.21595      13551.941      1.5893662      0.88656583   
    847600  -10201.541     -10313.007      111.46557      30983.602      399.41417      13515.23       1.5936833      0.88656583   
    847700  -10201.005     -10312.385      111.37937      29959.413      399.10528      13494.301      1.596155       0.88656583   
    847800  -10201.473     -10311.851      110.37857      31493.119      395.51912      13490.063      1.5966565      0.88656583   
    847900  -10200.737     -10308.425      107.68777      33960.772      385.8772       13502.964      1.5951309      0.88656583   
    848000  -10199.695     -10312.633      112.93866      30849.998      404.69269      13536.417      1.5911889      0.83320885   
    848100  -10201.592     -10313.678      112.0869       26203.24       401.64058      13578.467      1.5862613      0.83320885   
    848200  -10203.491     -10311.595      108.10382      30502.003      387.36802      13615.704      1.5819231      0.83320885   
    848300  -10202.157     -10312.438      110.28102      32385.504      395.16956      13643.696      1.5786776      0.83320885   
    848400  -10203.293     -10315.265      111.97178      32745.67       401.22807      13655.074      1.5773621      0.83320885   
    848500  -10204.302     -10312.544      108.24158      29309.308      387.86167      13647.128      1.5782806      0.83320885   
    848600  -10202.386     -10311.597      109.21107      28126.757      391.33563      13624.277      1.5809276      0.83320885   
    848700  -10203.024     -10314.196      111.17159      25165.115      398.36076      13597.228      1.5840726      0.83320885   
    848800  -10202.693     -10314.983      112.29021      29039.949      402.36908      13568.912      1.5873783      0.83320885   
    848900  -10201.907     -10314.163      112.2562       29547.2        402.24723      13540.384      1.5907227      0.83320885   
    849000  -10200.18      -10309.298      109.11752      31712.759      391.00041      13521.008      1.5930022      0.82319498   
    849100  -10202.982     -10314.538      111.55649      28624.023      399.73997      13517.118      1.5934607      0.82319498   
    849200  -10207.686     -10316.774      109.08762      26641.834      390.89328      13522.726      1.5927998      0.82319498   
    849300  -10207.721     -10312.254      104.53254      31220.717      374.57107      13528.422      1.5921292      0.82319498   
    849400  -10208.137     -10315.555      107.41852      32155.504      384.91238      13537.033      1.5911165      0.82319498   
    849500  -10205.203     -10313.545      108.34226      30655.954      388.22242      13544.716      1.5902139      0.82319498   
    849600  -10203.985     -10315.182      111.19704      33324.55       398.45195      13550.913      1.5894868      0.82319498   
    849700  -10202.868     -10315.038      112.1701       31734.498      401.93872      13558.133      1.5886403      0.82319498   
    849800  -10206.827     -10314.253      107.42638      28979.889      384.94055      13567.146      1.587585       0.82319498   
    849900  -10208.372     -10316.535      108.16305      28319.276      387.58026      13571.127      1.5871192      0.82319498   
    850000  -10209.399     -10317.811      108.4125       29045.612      388.4741       13564.022      1.5879505      0.8522505    
    850100  -10208.308     -10317.989      109.68116      32312.771      393.02008      13543.562      1.5903495      0.8522505    
    850200  -10209.566     -10316.897      107.33169      32145.145      384.60124      13513.053      1.59394        0.8522505    
    850300  -10207.235     -10315.657      108.42203      32697.73       388.50827      13482.412      1.5975625      0.8522505    
    850400  -10208.618     -10316.902      108.28369      31854.503      388.01255      13461.644      1.6000272      0.8522505    
    850500  -10208.172     -10313.106      104.93327      34701.239      376.00701      13455.096      1.6008058      0.8522505    
    850600  -10208.208     -10315.769      107.56097      35059.978      385.42283      13463.154      1.5998477      0.8522505    
    850700  -10210.353     -10316.873      106.51993      30408.864      381.69247      13484.771      1.5972831      0.8522505    
    850800  -10209.142     -10317.977      108.83482      30837.905      389.98739      13516.103      1.5935804      0.8522505    
    850900  -10208.254     -10316.512      108.25841      26780.696      387.92194      13546.55       1.5899987      0.8522505    
    851000  -10208.362     -10312.871      104.50905      25471.314      374.48689      13574.494      1.5867255      0.81192591   
    851100  -10204.247     -10313.956      109.70886      27236.13       393.11935      13594.607      1.584378       0.81192591   
    851200  -10205.481     -10316.32       110.83962      27036.737      397.17118      13607.645      1.58286        0.81192591   
    851300  -10206.907     -10314.022      107.1149       28954.54       383.82443      13612.506      1.5822947      0.81192591   
    851400  -10204.718     -10314.087      109.36893      30137.349      391.90126      13600.45       1.5836973      0.81192591   
    851500  -10204.817     -10314.257      109.43964      30721.33       392.15467      13569.549      1.5873038      0.81192591   
    851600  -10204.338     -10312.084      107.74581      29849.87       386.08516      13530.096      1.5919323      0.81192591   
    851700  -10204.484     -10314.358      109.87468      29401.183      393.71353      13491.357      1.5965034      0.81192591   
    851800  -10201.742     -10313.046      111.30429      30927.149      398.83626      13461.599      1.6000325      0.81192591   
    851900  -10201.079     -10311.962      110.88369      31909.259      397.32912      13451.976      1.6011771      0.81192591   
    852000  -10198.866     -10313.063      114.19707      29609.216      409.20195      13467.962      1.5992766      0.84445828   
    852100  -10200.94      -10309.968      109.0277       29275.622      390.67855      13507.69       1.5945729      0.84445828   
    852200  -10206.089     -10314.437      108.34765      29537.222      388.24172      13565.816      1.5877405      0.84445828   
    852300  -10209.425     -10318.874      109.44819      27510.074      392.1853       13619.84       1.5814427      0.84445828   
    852400  -10210.427     -10316.545      106.11804      31295.237      380.25239      13650.416      1.5779004      0.84445828   
    852500  -10210.976     -10316.466      105.48934      31907.237      377.99956      13652.48       1.5776619      0.84445828   
    852600  -10209.587     -10319.111      109.52387      28747.37       392.45648      13623.423      1.5810268      0.84445828   
    852700  -10209.515     -10317.099      107.58399      29403.037      385.50531      13569.936      1.5872585      0.84445828   
    852800  -10209.227     -10317.847      108.61953      31827.605      389.21595      13504.885      1.5949041      0.84445828   
    852900  -10206.447     -10313.507      107.06011      32914.796      383.62808      13440.647      1.6025268      0.84445828   
    853000  -10201.492     -10313.739      112.24739      34709.911      402.21566      13398.15       1.6076097      0.85720859   
    853100  -10201.36      -10312.41       111.04962      36247.691      397.92367      13388.993      1.6087092      0.85720859   
    853200  -10202.735     -10313.583      110.8484       37735.419      397.20267      13418.042      1.6052264      0.85720859   
    853300  -10205.615     -10314.208      108.59236      32867.096      389.11859      13478.791      1.5979917      0.85720859   
    853400  -10204.119     -10315.055      110.93643      29911.694      397.51809      13557.093      1.5887621      0.85720859   
    853500  -10208.07      -10315.869      107.79896      27417.205      386.2756       13631.719      1.5800646      0.85720859   
    853600  -10205.665     -10315.27       109.6056       22915.007      392.74934      13680.342      1.5744486      0.85720859   
    853700  -10206.017     -10312.113      106.09667      25580.697      380.17581      13695.291      1.5727301      0.85720859   
    853800  -10206.689     -10314.816      108.12694      27076.075      387.45085      13679.055      1.5745968      0.85720859   
    853900  -10207.347     -10315.403      108.05661      28370.732      387.19885      13633.158      1.5798978      0.85720859   
    854000  -10204.1       -10313.077      108.97739      28950.162      390.49828      13568.044      1.5874798      0.87404387   
    854100  -10202.1       -10312.073      109.97254      32309.493      394.06419      13503.554      1.5950614      0.87404387   
    854200  -10204.586     -10314.02       109.43395      32693.128      392.13427      13455.215      1.6007917      0.87404387   
    854300  -10203.961     -10313.997      110.03616      31239.876      394.29215      13431.417      1.603628       0.87404387   
    854400  -10204.247     -10314.812      110.56473      33267.005      396.1862       13436.5        1.6030213      0.87404387   
    854500  -10205.343     -10316.737      111.39368      31274.591      399.15655      13464.633      1.599672       0.87404387   
    854600  -10205.289     -10312.132      106.84326      27997.326      382.85106      13505.452      1.5948372      0.87404387   
    854700  -10206.611     -10315.158      108.54675      27848.993      388.95518      13553.627      1.5891685      0.87404387   
    854800  -10209.849     -10316.803      106.95426      31571.152      383.24882      13593.492      1.584508       0.87404387   
    854900  -10210.167     -10316.991      106.82369      28297.996      382.78094      13615.598      1.5819354      0.87404387   
    855000  -10208.845     -10314.265      105.42018      26618.981      377.75173      13615.607      1.5819344      1.0374382    
    855100  -10206.287     -10314.745      108.45852      28619.567      388.63901      13596.556      1.5841509      1.0374382    
    855200  -10207.43      -10314.753      107.32318      32991.092      384.57074      13566.433      1.5876684      1.0374382    
    855300  -10206.518     -10315.897      109.37855      28372.327      391.93573      13533.569      1.5915238      1.0374382    
    855400  -10205.83      -10315.963      110.13253      29409.593      394.63748      13505.423      1.5948406      1.0374382    
    855500  -10207.868     -10314.534      106.66572      32289.875      382.21488      13487.97       1.5969043      1.0374382    
    855600  -10209.811     -10316.822      107.01113      30275.516      383.45258      13481.524      1.5976678      1.0374382    
    855700  -10208.283     -10314.985      106.70153      32956.683      382.34321      13485.094      1.5972448      1.0374382    
    855800  -10209.392     -10319.843      110.45068      33046.694      395.77751      13501.647      1.5952866      1.0374382    
    855900  -10209.29      -10315.489      106.19866      33436.091      380.54125      13522.783      1.5927932      1.0374382    
    856000  -10205.257     -10316.433      111.17598      32196.192      398.37646      13550.138      1.5895777      0.81622759   
    856100  -10204.972     -10312.981      108.00929      36050.937      387.0293       13578.325      1.5862779      0.81622759   
    856200  -10204.527     -10315.228      110.70169      28415.501      396.67695      13602.813      1.5834222      0.81622759   
    856300  -10201.469     -10312.422      110.95286      30011.15       397.57695      13618.88       1.5815541      0.81622759   
    856400  -10201.638     -10312.505      110.86703      33241.491      397.26942      13625.419      1.5807951      0.81622759   
    856500  -10202.783     -10312.962      110.17861      32991.329      394.8026       13623.636      1.5810021      0.81622759   
    856600  -10202.694     -10315.024      112.33032      29934.084      402.5128       13609.065      1.5826948      0.81622759   
    856700  -10200.11      -10312.287      112.17717      28057.783      401.96403      13586.4        1.5853351      0.81622759   
    856800  -10198.842     -10309.897      111.05547      31452.049      397.94466      13561.985      1.5881891      0.81622759   
    856900  -10200.402     -10313.937      113.53562      33115.34       406.83176      13542.655      1.5904559      0.81622759   
    857000  -10201.446     -10313.933      112.48767      30915.867      403.07666      13528.421      1.5921294      0.91376199   
    857100  -10203.617     -10314.289      110.67276      33422.035      396.5733       13524.959      1.5925369      0.91376199   
    857200  -10203.174     -10314.877      111.70354      30816.859      400.26689      13530.05       1.5919376      0.91376199   
    857300  -10204.247     -10313.637      109.39007      29244.989      391.97703      13539.702      1.5908029      0.91376199   
    857400  -10203.472     -10311.452      107.98051      32215.406      386.92618      13554.108      1.589112       0.91376199   
    857500  -10205.243     -10315.91       110.66727      29518.804      396.55361      13573.666      1.5868224      0.91376199   
    857600  -10207.243     -10313.098      105.85483      30595.713      379.3092       13586.452      1.5853291      0.91376199   
    857700  -10209.95      -10316.162      106.2117       32122.661      380.58799      13590.173      1.5848949      0.91376199   
    857