LAMMPS (27 Jun 2024)
KOKKOS mode with Kokkos version 4.3.1 is enabled (src/KOKKOS/kokkos.cpp:72)
  will use up to 1 GPU(s) per node
WARNING: When using a single thread, the Kokkos Serial backend (i.e. Makefile.kokkos_mpi_only) gives better performance than the OpenMP backend (src/KOKKOS/kokkos.cpp:202)
  using 1 OpenMP thread(s) per MPI task
Reading data file ...
  triclinic box = (0 0 0) to (20.086446 20.107908 21.036805) with tilt (-0.12289673 -0.12587322 0.25756352)
  1 by 1 by 1 MPI processor grid
  reading atoms ...
  972 atoms
  read_data CPU = 0.008 seconds
ACE/AL version: 2023.11.25
Loading /pc2/users/a/acepdw01/work/phase_diagram/pot_dir/interim_potential_ladder_step_1.yaml
Total number of basis functions
	H: 23 (r=1) 664 (r>1)
	O: 23 (r=1) 664 (r>1)
Mapping LAMMPS atom type #1(H) -> ACE species type #0
Mapping LAMMPS atom type #2(O) -> ACE species type #1
Loading ASI /pc2/users/a/acepdw01/work/phase_diagram/pot_dir/interim_potential_ladder_step_1.asi
LINEAR ASI is loaded

CITE-CITE-CITE-CITE-CITE-CITE-CITE-CITE-CITE-CITE-CITE-CITE-CITE

Your simulation uses code contributions which should be cited:
- Type Label Framework: https://doi.org/10.1021/acs.jpcb.3c08419
The log file lists these citations in BibTeX format.

CITE-CITE-CITE-CITE-CITE-CITE-CITE-CITE-CITE-CITE-CITE-CITE-CITE

Switching to 'neigh_modify every 1 delay 0 check yes' setting during minimization
Neighbor list info ...
  update: every = 1 steps, delay = 0 steps, check = yes
  max neighbors/atom: 2000, page size: 100000
  master list distance cutoff = 6.5
  ghost atom cutoff = 6.5
  binsize = 6.5, bins = 4 4 4
  1 neighbor lists, perpetual/occasional/extra = 1 0 0
  (1) pair pace/extrapolation/kk, perpetual
      attributes: full, newton on, kokkos_device
      pair build: full/bin/kk/device
      stencil: full/bin/3d
      bin: kk/device
Setting up cg/kk style minimization ...
  Unit style    : metal
  Current step  : 0
WARNING: Fix with atom-based arrays not compatible with sending data in Kokkos communication, switching to classic exchange/border communication (src/KOKKOS/comm_kokkos.cpp:754)
WARNING: Fix with atom-based arrays not compatible with Kokkos sorting on device, switching to classic host sorting (src/KOKKOS/atom_kokkos.cpp:216)
Per MPI rank memory allocation (min/avg/max) = 777.8 | 777.8 | 777.8 Mbytes
   Step         TotEng         PotEng         KinEng         Press           Temp          Volume        Density     c_max_pace_gamma
         0  -4674.4783     -4674.4783      0             -4207.0767      0              8496.6904      1.140744       0.70893416   
       100  -4698.4118     -4698.4118      0             -5361.4596      0              8496.6904      1.140744       0.70893416   
       200  -4698.4284     -4698.4284      0             -5286.6896      0              8496.6904      1.140744       0.70893416   
       300  -4698.4286     -4698.4286      0             -5280.3747      0              8496.6904      1.140744       0.70893416   
       344  -4698.4286     -4698.4286      0             -5279.8075      0              8496.6904      1.140744       0.70893416   
Loop time of 1.8072 on 1 procs for 344 steps with 972 atoms

99.6% CPU use with 1 MPI tasks x 1 OpenMP threads

Minimization stats:
  Stopping criterion = force tolerance
  Energy initial, next-to-last, final = 
     -4674.47831881433  -4698.42855640536  -4698.42855640926
  Force two-norm initial, final = 12.278537 0.00048663507
  Force max component initial, final = 0.80662295 7.0562336e-05
  Final line search alpha, max atom move = 1 7.0562336e-05
  Iterations, force evaluations = 344 688

MPI task timing breakdown:
Section |  min time  |  avg time  |  max time  |%varavg| %total
---------------------------------------------------------------
Pair    | 1.5563     | 1.5563     | 1.5563     |   0.0 | 86.12
Neigh   | 0.0021972  | 0.0021972  | 0.0021972  |   0.0 |  0.12
Comm    | 0.017593   | 0.017593   | 0.017593   |   0.0 |  0.97
Output  | 0.00038647 | 0.00038647 | 0.00038647 |   0.0 |  0.02
Modify  | 0.14309    | 0.14309    | 0.14309    |   0.0 |  7.92
Other   |            | 0.08766    |            |       |  4.85

Nlocal:            972 ave         972 max         972 min
Histogram: 1 0 0 0 0 0 0 0 0 0
Nghost:           3295 ave        3295 max        3295 min
Histogram: 1 0 0 0 0 0 0 0 0 0
Neighs:              0 ave           0 max           0 min
Histogram: 1 0 0 0 0 0 0 0 0 0
FullNghs:       121804 ave      121804 max      121804 min
Histogram: 1 0 0 0 0 0 0 0 0 0

Total # of neighbors = 121804
Ave neighs/atom = 125.31276
Neighbor list builds = 6
Dangerous builds = 0
Setting up Verlet run ...
  Unit style    : metal
  Current step  : 344
  Time step     : 0.0005
WARNING: Fix with atom-based arrays not compatible with Kokkos sorting on device, switching to classic host sorting (src/KOKKOS/atom_kokkos.cpp:216)
Per MPI rank memory allocation (min/avg/max) = 777 | 777 | 777 Mbytes
   Step         TotEng         PotEng         KinEng         Press           Temp          Volume        Density     c_max_pace_gamma
       344  -4665.7955     -4698.4286      32.633016     -1177.516       260            8496.6904      1.140744       0.70893416   
       400  -4662.5117     -4678.4518      15.940166     -2177.6009      127.00154      8479.5391      1.1430513      0.70893416   
       500  -4656.3        -4675.7091      19.409186     -232.12515      154.64057      8382.2281      1.1563212      0.70893416   
       600  -4651.1762     -4673.2963      22.12011       1038.9069      176.23956      8216.466       1.1796493      0.70893416   
       700  -4646.8045     -4671.8637      25.059214      2156.7462      199.65655      8033.7238      1.2064826      0.70893416   
       800  -4643.5282     -4671.2443      27.716102      4898.559       220.82502      7893.4859      1.2279174      0.70893416   
       900  -4640.7059     -4668.7974      28.09147       9479.8934      223.81573      7813.1949      1.2405359      0.70893416   
      1000  -4637.9316     -4666.4968      28.565258      9148.565       227.59058      7791.0754      1.2440578      0.72888489   
      1100  -4636.6684     -4667.128       30.45961       7417.6813      242.68362      7823.7334      1.2388649      0.72888489   
      1200  -4634.9829     -4666.5276      31.544685      7450.1144      251.32884      7896.1179      1.2275081      0.72888489   
      1300  -4634.2282     -4666.6557      32.427466      6317.6031      258.3623       7987.3523      1.213487       0.72888489   
      1400  -4634.5731     -4665.7537      31.180628      6817.054       248.42826      8078.9352      1.1997309      0.72888489   
      1500  -4634.0874     -4663.7756      29.688122      6121.1064      236.53688      8154.6775      1.1885876      0.72888489   
      1600  -4633.9123     -4664.172       30.259703      4749.0422      241.09089      8208.3948      1.1808092      0.72888489   
      1700  -4632.8946     -4664.0737      31.179084      3699.805       248.41595      8235.7701      1.1768843      0.72888489   
      1800  -4632.4509     -4664.1499      31.698931      4052.9271      252.55778      8233.7505      1.177173       0.72888489   
      1900  -4632.235      -4665.4284      33.193359      1287.2554      264.46447      8202.6239      1.18164        0.72888489   
      2000  -4631.8418     -4664.1546      32.312872      3383.1309      257.44928      8140.7342      1.1906234      0.65040131   
      2100  -4632.9224     -4664.2275      31.305137      4799.0697      249.42027      8066.3291      1.2016059      0.65040131   
      2200  -4632.7959     -4663.9708      31.174888      5470.8156      248.38252      8000.3361      1.2115177      0.65040131   
      2300  -4632.711      -4663.9169      31.205908      8605.4939      248.62967      7958.1573      1.2179388      0.65040131   
      2400  -4633.6628     -4666.8941      33.23133       7573.4134      264.767        7947.4229      1.2195838      0.65040131   
      2500  -4633.4966     -4665.0073      31.51072       11322.94       251.05823      7962.5376      1.2172688      0.65040131   
      2600  -4633.0949     -4664.6344      31.539486      4903.8754      251.28742      7998.5511      1.211788       0.65040131   
      2700  -4633.6318     -4665.1893      31.557533      5533.0979      251.43121      8049.0153      1.2041906      0.65040131   
      2800  -4633.4919     -4666.1271      32.635202      9166.0861      260.01742      8106.1114      1.1957088      0.65040131   
      2900  -4632.459      -4664.8301      32.371122      1974.429       257.91339      8156.2447      1.1883592      0.65040131   
      3000  -4633.425      -4665.5297      32.104696      3054.1553      255.79067      8194.5906      1.1827984      0.80539032   
      3100  -4632.8892     -4664.6457      31.756455      1659.6394      253.01609      8209.2672      1.1806837      0.80539032   
      3200  -4632.6759     -4665.1368      32.460881      3452.4604      258.62853      8194.8836      1.1827561      0.80539032   
      3300  -4632.5075     -4664.0728      31.565235      6648.188       251.49257      8160.1672      1.187788       0.80539032   
      3400  -4631.97       -4663.887       31.917022      5782.4253      254.2954       8117.3771      1.1940493      0.80539032   
      3500  -4632.624      -4664.6423      32.018333      3673.5954      255.10258      8071.1432      1.2008892      0.80539032   
      3600  -4631.8101     -4663.4932      31.683096      8473.4551      252.43162      8025.4621      1.2077247      0.80539032   
      3700  -4632.5621     -4664.1627      31.600567      4067.9651      251.77408      7988.7135      1.2132803      0.80539032   
      3800  -4632.2435     -4664.8022      32.558731      6774.7867      259.40814      7975.4789      1.2152936      0.80539032   
      3900  -4632.9885     -4665.4881      32.499659      5803.3333      258.93749      7993.2307      1.2125946      0.80539032   
      4000  -4632.4678     -4664.4501      31.982239      7044.5005      254.815        8032.1059      1.2067257      0.69602269   
      4100  -4633.0281     -4665.6571      32.628984      4439.418       259.96787      8082.1447      1.1992545      0.69602269   
      4200  -4633.6133     -4664.2051      30.591853      3614.8402      243.73725      8126.3661      1.1927285      0.69602269   
      4300  -4633.7051     -4664.8333      31.128187      2843.3416      248.01043      8150.7797      1.189156       0.69602269   
      4400  -4632.1968     -4663.8921      31.695315      2913.6372      252.52896      8147.314       1.1896618      0.69602269   
      4500  -4631.9859     -4664.5199      32.534009      3878.6198      259.21117      8130.1717      1.1921702      0.69602269   
      4600  -4632.1775     -4665.0759      32.898318      4616.2012      262.11376      8112.3591      1.1947879      0.69602269   
      4700  -4631.6994     -4665.5049      33.805497      3570.866       269.34162      8102.426       1.1962526      0.69602269   
      4800  -4631.9799     -4665.1084      33.128455      4538.5829      263.94736      8099.8383      1.1966348      0.69602269   
      4900  -4631.7947     -4663.9133      32.118607      8167.074       255.9015       8099.0705      1.1967482      0.69602269   
      5000  -4630.9554     -4662.6353      31.679913      3391.5872      252.40626      8094.6532      1.1974013      0.85366423   
      5100  -4631.1053     -4663.0296      31.924341      4233.0125      254.35371      8082.0341      1.1992709      0.85366423   
      5200  -4630.2172     -4663.5782      33.360929      7095.6393      265.79957      8058.952       1.2027058      0.85366423   
      5300  -4629.7499     -4661.0803      31.330405      7921.6617      249.62158      8038.899       1.205706       0.85366423   
      5400  -4630.1387     -4662.7277      32.589022      7329.8757      259.64948      8034.6082      1.2063498      0.85366423   
      5500  -4629.8258     -4663.1027      33.276907      4317.2044      265.13013      8048.2689      1.2043023      0.85366423   
      5600  -4629.2032     -4662.4458      33.242588      8551.4817      264.85669      8082.4903      1.1992032      0.85366423   
      5700  -4631.2559     -4664.2648      33.008885      3446.2457      262.9947       8132.6212      1.1918111      0.85366423   
      5800  -4628.9418     -4662.2712      33.329392      3519.1508      265.5483       8179.5394      1.1849748      0.85366423   
      5900  -4629.1439     -4661.8141      32.670192      4283.2164      260.29619      8210.3585      1.1805268      0.85366423   
      6000  -4630.6348     -4662.2847      31.649965      4532.2492      252.16765      8216.0931      1.1797028      0.69545961   
      6100  -4630.1884     -4663.0904      32.901946      4475.9639      262.14267      8191.279       1.1832766      0.69545961   
      6200  -4631.6152     -4664.1846      32.569362      4816.9622      259.49284      8139.6437      1.1907829      0.69545961   
      6300  -4630.9761     -4664.2604      33.284302      4079.9371      265.18905      8076.2592      1.2001285      0.69545961   
      6400  -4631.403      -4663.965       32.562062      8566.9685      259.43468      8020.9886      1.2083982      0.69545961   
      6500  -4630.7397     -4663.9128      33.173055      5755.5214      264.3027       7989.317       1.2131886      0.69545961   
      6600  -4631.5685     -4664.2         32.631462      10318.484      259.98762      7983.73        1.2140376      0.69545961   
      6700  -4630.5353     -4663.4493      32.914081      7694.4029      262.23935      8005.3815      1.2107541      0.69545961   
      6800  -4631.3526     -4663.6252      32.272596      3131.6565      257.12839      8045.1054      1.2047758      0.69545961   
      6900  -4628.7737     -4662.1147      33.340946      2969.3073      265.64036      8091.3392      1.1978917      0.69545961   
      7000  -4629.9114     -4663.1141      33.202733      5398.7082      264.53916      8132.827       1.191781       0.77847861   
      7100  -4630.0441     -4662.4299      32.385822      5970.9237      258.0305       8161.4028      1.1876081      0.77847861   
      7200  -4630.2579     -4664.2475      33.989638      3019.079       270.80874      8177.847       1.1852201      0.77847861   
      7300  -4631.4229     -4664.1156      32.692734      2245.9979      260.4758       8178.9211      1.1850644      0.77847861   
      7400  -4630.399      -4662.7366      32.337517      5041.0246      257.64564      8161.6191      1.1875767      0.77847861   
      7500  -4630.5404     -4662.9271      32.386696      5123.3181      258.03747      8132.165       1.191878       0.77847861   
      7600  -4630.9592     -4663.4439      32.484737      7015.6333      258.8186       8098.64        1.1968119      0.77847861   
      7700  -4630.2222     -4662.7646      32.542457      7583.3977      259.27848      8068.9239      1.2012195      0.77847861   
      7800  -4630.4201     -4664.0751      33.655066      4149.1542      268.14307      8049.7262      1.2040842      0.77847861   
      7900  -4631.3336     -4664.0869      32.753306      6622.7696      260.9584       8043.8625      1.204962       0.77847861   
      8000  -4631.8386     -4662.8775      31.038931      5626.3341      247.2993       8047.7741      1.2043763      0.79427324   
      8100  -4631.8447     -4663.2783      31.433602      3593.7751      250.4438       8055.6793      1.2031944      0.79427324   
      8200  -4631.8969     -4663.7049      31.807993      4488.7882      253.42672      8061.4968      1.2023261      0.79427324   
      8300  -4631.2707     -4663.9697      32.699012      4906.6874      260.52581      8065.7333      1.2016946      0.79427324   
      8400  -4631.5591     -4664.7355      33.17644       6217.219       264.32967      8079.1027      1.1997061      0.79427324   
      8500  -4631.6054     -4663.7907      32.185225      2713.3707      256.43227      8098.679       1.1968061      0.79427324   
      8600  -4631.5857     -4664.1078      32.522051      7155.0411      259.11589      8118.0037      1.1939571      0.79427324   
      8700  -4631.8501     -4664.1002      32.250144      6192.6428      256.94951      8136.1011      1.1913014      0.79427324   
      8800  -4631.1445     -4664.1519      33.007388      1953.2779      262.98277      8145.0066      1.1899988      0.79427324   
      8900  -4631.4669     -4664.0557      32.588827      3224.9816      259.64792      8132.9044      1.1917696      0.79427324   
      9000  -4632.1224     -4663.8115      31.689121      4565.7106      252.47962      8104.2626      1.1959815      0.78241004   
      9100  -4631.5979     -4663.8326      32.234695      8353.6659      256.82642      8073.1758      1.2005868      0.78241004   
      9200  -4630.8656     -4663.8142      32.948603      6013.3215      262.5144       8049.0434      1.2041864      0.78241004   
      9300  -4631.2746     -4663.9903      32.715681      5647.0776      260.65863      8040.956       1.2053975      0.78241004   
      9400  -4631.9984     -4663.9166      31.918271      6515.1065      254.30534      8044.1216      1.2049232      0.78241004   
      9500  -4632.0262     -4663.5171      31.490961      6315.9346      250.9008       8055.2491      1.2032587      0.78241004   
      9600  -4630.7798     -4663.7433      32.963468      2827.9476      262.63284      8073.8455      1.2004872      0.78241004   
      9700  -4630.7712     -4664.4721      33.700864      3738.3321      268.50796      8099.0864      1.1967459      0.78241004   
      9800  -4630.735      -4663.4285      32.693515      1895.5456      260.48202      8125.0951      1.1929151      0.78241004   
      9900  -4630.0623     -4662.6228      32.560431      4104.7793      259.42168      8144.8573      1.1900207      0.78241004   
     10000  -4628.4826     -4660.8013      32.318663      1510.3924      257.49542      8151.9406      1.1889866      0.81456354   
     10100  -4629.0225     -4661.4451      32.422618      5070.9662      258.32367      8138.691       1.1909223      0.81456354   
     10200  -4629.1198     -4662.7071      33.587297      4480.4511      267.60313      8108.4023      1.1953709      0.81456354   
     10300  -4628.7156     -4663.2073      34.491705      4735.6928      274.8089       8071.3703      1.2008554      0.81456354   
     10400  -4629.4856     -4663.0177      33.532101      3297.4364      267.16336      8038.0659      1.2058309      0.81456354   
     10500  -4630.3242     -4663.2304      32.906191      9187.4454      262.17649      8007.4112      1.2104472      0.81456354   
     10600  -4631.6931     -4663.0556      31.362494      3289.9496      249.87725      7988.1865      1.2133603      0.81456354   
     10700  -4630.42       -4663.6216      33.20162       5093.1467      264.53029      7993.0616      1.2126203      0.81456354   
     10800  -4632.1659     -4664.3565      32.190541      5836.7027      256.47463      8020.4563      1.2084784      0.81456354   
     10900  -4632.4258     -4663.3025      30.876676      2760.0672      246.00655      8059.5245      1.2026204      0.81456354   
     11000  -4631.5051     -4663.3644      31.859302      1855.953       253.83552      8097.9304      1.1969167      0.94139077   
     11100  -4631.8219     -4663.7047      31.882864      5419.0777      254.02324      8123.4861      1.1931514      0.94139077   
     11200  -4632.5055     -4663.3123      30.806759      4084.5409      245.44949      8133.4814      1.1916851      0.94139077   
     11300  -4632.9762     -4664.0307      31.05454       5412.8024      247.42366      8132.0474      1.1918952      0.94139077   
     11400  -4634.2124     -4665.1702      30.957871      3867.9463      246.65347      8123.3477      1.1931717      0.94139077   
     11500  -4633.6476     -4665.1099      31.462279      3510.1448      250.67228      8104.6914      1.1959183      0.94139077   
     11600  -4633.2466     -4665.2301      31.983574      3812.0582      254.82564      8075.1953      1.2002866      0.94139077   
     11700  -4632.4091     -4664.3819      31.972777      8586.1668      254.73961      8038.1604      1.2058167      0.94139077   
     11800  -4631.3798     -4663.0906      31.710758      5087.6574      252.65201      8008.508       1.2102814      0.94139077   
     11900  -4631.0642     -4664.7119      33.647727      4102.1611      268.08459      7994.5464      1.212395       0.94139077   
     12000  -4630.5534     -4663.0115      32.458137      3630.6392      258.60667      8004.8057      1.2108412      0.76601861   
     12100  -4630.404      -4662.6864      32.282373      4572.1477      257.20629      8035.6551      1.2061927      0.76601861   
     12200  -4629.2997     -4663.3464      34.046707      6910.3646      271.26343      8077.1531      1.1999956      0.76601861   
     12300  -4630.6144     -4663.8227      33.208335      1988.1126      264.58379      8119.9798      1.1936666      0.76601861   
     12400  -4631.1508     -4664.8509      33.700135      3556.3855      268.50215      8154.3663      1.1886329      0.76601861   
     12500  -4632.6163     -4663.8261      31.209743      2569.7642      248.66023      8175.6515      1.1855384      0.76601861   
     12600  -4632.018      -4664.5325      32.514557      3644.3499      259.05619      8179.9832      1.1849105      0.76601861   
     12700  -4632.4846     -4662.9571      30.472514      2674.1878      242.78643      8165.425       1.1870231      0.76601861   
     12800  -4632.9452     -4663.8301      30.884861      3183.5782      246.07176      8134.0091      1.1916078      0.76601861   
     12900  -4632.43       -4664.1396      31.709594      4016.9695      252.64273      8096.0049      1.1972014      0.76601861   
     13000  -4632.8989     -4665.1922      32.293247      1705.0662      257.29293      8059.2378      1.2026632      0.79041226   
     13100  -4632.0049     -4663.36        31.355086      5674.5813      249.81823      8027.0344      1.2074881      0.79041226   
     13200  -4632.5809     -4664.1578      31.576959      3909.2406      251.58598      8002.5665      1.21118        0.79041226   
     13300  -4632.8913     -4665.3063      32.415054      5219.5325      258.26341      7991.8038      1.2128111      0.79041226   
     13400  -4633.3252     -4664.9492      31.624039      8168.1348      251.96109      8001.0493      1.2114097      0.79041226   
     13500  -4633.2799     -4664.2078      30.927826      6032.3429      246.41408      8032.0643      1.2067319      0.79041226   
     13600  -4632.5743     -4664.3885      31.814198      2420.14        253.47616      8075.3474      1.200264       0.79041226   
     13700  -4634.1011     -4665.0255      30.924326      2416.4148      246.3862       8113.056       1.1946853      0.79041226   
     13800  -4633.1984     -4665.2888      32.09038       5934.0677      255.6766       8134.7487      1.1914994      0.79041226   
     13900  -4632.2433     -4663.7176      31.47438       4147.0878      250.7687       8139.1023      1.1908621      0.79041226   
     14000  -4631.2238     -4663.5618      32.337996      2993.6008      257.64946      8134.0308      1.1916046      0.66376874   
     14100  -4629.6399     -4662.8744      33.234466      6410.3195      264.79199      8122.535       1.1932911      0.66376874   
     14200  -4630.2795     -4662.823       32.543508      2980.8827      259.28685      8105.2945      1.1958293      0.66376874   
     14300  -4629.6069     -4662.1287      32.52175       3121.6315      259.1135       8078.6574      1.1997722      0.66376874   
     14400  -4629.9498     -4662.9132      32.963448      7179.4975      262.63268      8047.0515      1.2044844      0.66376874   
     14500  -4630.0989     -4662.4126      32.313659      5796.7153      257.45556      8026.6554      1.2075451      0.66376874   
     14600  -4629.6099     -4662.8331      33.223192      7145.3247      264.70216      8030.3721      1.2069862      0.66376874   
     14700  -4630.276      -4663.9776      33.701571      5559.0136      268.51359      8053.1161      1.2035774      0.66376874   
     14800  -4630.659      -4663.3343      32.675311      4762.638       260.33698      8082.3961      1.1992172      0.66376874   
     14900  -4629.4521     -4662.6463      33.19414       4916.1853      264.4707       8109.3563      1.1952303      0.66376874   
     15000  -4629.4705     -4663.112       33.641514      5101.9922      268.0351       8132.1071      1.1918865      0.70236906   
     15100  -4629.8568     -4663.8017      33.944976      3984.9126      270.45289      8147.802       1.1895906      0.70236906   
     15200  -4629.1181     -4662.2173      33.099205      5868.7186      263.71431      8158.568       1.1880208      0.70236906   
     15300  -4629.4287     -4661.9677      32.538979      536.94328      259.25077      8162.652       1.1874264      0.70236906   
     15400  -4629.1797     -4663.0188      33.839131      7645.0553      269.60959      8159.58        1.1878734      0.70236906   
     15500  -4629.5548     -4662.7662      33.211334      5967.3477      264.60769      8143.9201      1.1901576      0.70236906   
     15600  -4629.6706     -4663.8721      34.201579      3182.8733      272.49736      8112.2739      1.1948004      0.70236906   
     15700  -4628.8882     -4662.5127      33.624547      5781.2892      267.89991      8068.1569      1.2013337      0.70236906   
     15800  -4628.9424     -4662.5371      33.594759      4917.2228      267.66258      8028.6064      1.2072517      0.70236906   
     15900  -4628.4465     -4662.2999      33.853363      6771.2215      269.72298      8007.0283      1.2105051      0.70236906   
     16000  -4628.4474     -4662.0014      33.55399       8929.0954      267.33776      8006.6083      1.2105686      0.77310734   
     16100  -4629.109      -4662.6661      33.55708       3305.0225      267.36238      8027.8485      1.2073656      0.77310734   
     16200  -4628.3512     -4662.8494      34.498239      7588.5544      274.86096      8066.471       1.2015847      0.77310734   
     16300  -4630.0475     -4663.0467      32.999214      5412.8589      262.91764      8118.2284      1.1939241      0.77310734   
     16400  -4630.2848     -4662.6781      32.39335       3452.8496      258.09049      8171.4049      1.1861545      0.77310734   
     16500  -4629.9434     -4663.2448      33.301419      2197.6065      265.32543      8209.2823      1.1806816      0.77310734   
     16600  -4630.39       -4663.9128      33.522793      3199.2485      267.0892       8227.4143      1.1780795      0.77310734   
     16700  -4630.7146     -4663.4806      32.766026      4436.612       261.05974      8218.6544      1.1793352      0.77310734   
     16800  -4630.3078     -4663.6338      33.325966      3889.3463      265.521        8180.8653      1.1847828      0.77310734   
     16900  -4629.5828     -4663.0854      33.502537      3778.0816      266.92781      8125.0632      1.1929198      0.77310734   
     17000  -4629.8041     -4663.7762      33.972061      6573.7806      270.66869      8065.7332      1.2016947      0.74360254   
     17100  -4629.7591     -4662.737       32.977895      4952.9391      262.74779      8016.1093      1.2091338      0.74360254   
     17200  -4631.4673     -4664.2415      32.774174      8970.8449      261.12466      7984.6938      1.2138911      0.74360254   
     17300  -4631.1712     -4663.3029      32.131663      5944.879       256.00553      7973.3149      1.2156234      0.74360254   
     17400  -4630.2548     -4663.1752      32.920377      3987.3378      262.28951      7984.379       1.2139389      0.74360254   
     17500  -4631.0365     -4664.2984      33.261832      3982.1757      265.01002      8015.1869      1.2092729      0.74360254   
     17600  -4630.6677     -4663.6918      33.024162      6576.827       263.11641      8059.2467      1.2026618      0.74360254   
     17700  -4630.6207     -4663.4115      32.79089       3145.9056      261.25784      8108.9324      1.1952928      0.74360254   
     17800  -4630.7111     -4663.4202      32.709192      6131.0718      260.60692      8152.2699      1.1889386      0.74360254   
     17900  -4632.1737     -4664.1073      31.933697      4469.7112      254.42825      8177.4307      1.1852804      0.74360254   
     18000  -4633.8007     -4665.2017      31.401006      2684.3524      250.18409      8185.4681      1.1841166      0.77234232   
     18100  -4632.3122     -4664.0529      31.740702      2821.8276      252.89059      8175.9644      1.185493       0.77234232   
     18200  -4632.065      -4664.6126      32.547519      2311.1342      259.31881      8152.4303      1.1889152      0.77234232   
     18300  -4630.3521     -4663.5886      33.236491      5541.0151      264.80812      8114.2691      1.1945066      0.77234232   
     18400  -4630.7222     -4663.7645      33.042346      6390.802       263.26129      8073.5726      1.2005278      0.77234232   
     18500  -4630.5472     -4663.2602      32.712964      8090.1651      260.63698      8037.1958      1.2059615      0.77234232   
     18600  -4630.8929     -4663.2942      32.401307      5355.7086      258.15388      8007.0856      1.2104964      0.77234232   
     18700  -4630.2584     -4663.3483      33.089886      5561.0197      263.64006      7994.4717      1.2124064      0.77234232   
     18800  -4629.3332     -4663.2977      33.964493      6150.9486      270.6084       8000.1951      1.211539       0.77234232   
     18900  -4631.3988     -4664.7728      33.374029      5865.1715      265.90394      8022.9045      1.2081097      0.77234232   
     19000  -4632.1428     -4664.1676      32.024771      5649.3741      255.15387      8056.9784      1.2030004      0.77419926   
     19100  -4632.5183     -4664.0461      31.527868      3352.7597      251.19485      8098.6241      1.1968142      0.77419926   
     19200  -4632.6992     -4664.101       31.401831      6796.9403      250.19067      8136.7954      1.1911997      0.77419926   
     19300  -4632.1372     -4663.9241      31.786908      4123.1999      253.25873      8168.5676      1.1865665      0.77419926   
     19400  -4631.7191     -4664.0306      32.311448      1711.031       257.43794      8189.4479      1.1835411      0.77419926   
     19500  -4632.3108     -4663.8917      31.580882      1463.7271      251.61724      8194.3677      1.1828305      0.77419926   
     19600  -4630.6108     -4663.5379      32.927094      4631.2536      262.34304      8178.1577      1.185175       0.77419926   
     19700  -4631.9993     -4664.6161      32.616869      5948.9388      259.87135      8146.2277      1.1898205      0.77419926   
     19800  -4630.8633     -4664.1057      33.242386      3645.4984      264.85509      8101.6927      1.1963609      0.77419926   
     19900  -4631.7299     -4663.8685      32.138589      3838.3779      256.0607       8049.1049      1.2041772      0.77419926   
     20000  -4631.8629     -4664.1604      32.297476      6075.6325      257.32662      8004.581       1.2108752      0.69219566   
     20100  -4631.4196     -4663.4055      31.985913      6907.983       254.84427      7976.0116      1.2152124      0.69219566   
     20200  -4630.4274     -4664.9703      34.542837      4779.7222      275.21629      7969.4648      1.2162107      0.69219566   
     20300  -4631.737      -4663.8857      32.1487        9071.6919      256.14126      7987.0521      1.2135326      0.69219566   
     20400  -4630.9285     -4663.6334      32.704942      4816.5448      260.57306      8029.014       1.2071904      0.69219566   
     20500  -4631.3127     -4663.8353      32.522588      1225.2168      259.12017      8086.5581      1.1986         0.69219566   
     20600  -4631.0921     -4663.3754      32.283268      5791.6573      257.21342      8140.0795      1.1907191      0.69219566   
     20700  -4631.2326     -4664.4566      33.224054      4814.8812      264.70903      8183.2188      1.184442       0.69219566   
     20800  -4631.7236     -4662.6324      30.908751      3384.1069      246.26211      8203.7016      1.1814848      0.69219566   
     20900  -4630.8412     -4663.4802      32.638979      2357.7925      260.04751      8200.2413      1.1819833      0.69219566   
     21000  -4631.398      -4663.3758      31.977795      4071.183       254.7796       8179.6294      1.1849618      0.6579371    
     21100  -4631.9481     -4663.7815      31.833348      3852.7201      253.62873      8143.1717      1.190267       0.6579371    
     21200  -4630.313      -4662.2121      31.899146      2855.1183      254.15297      8100.4175      1.1965492      0.6579371    
     21300  -4631.3906     -4664.5597      33.169069      4383.8257      264.27095      8070.6967      1.2009556      0.6579371    
     21400  -4631.4991     -4664.8431      33.344012      5662.4878      265.66478      8052.5888      1.2036562      0.6579371    
     21500  -4629.7571     -4663.3182      33.561045      6634.1064      267.39397      8045.9257      1.204653       0.6579371    
     21600  -4630.4085     -4662.7888      32.380382      6117.4523      257.98716      8048.8104      1.2042212      0.6579371    
     21700  -4629.0331     -4662.238       33.204932      4847.0299      264.55668      8052.784       1.203627       0.6579371    
     21800  -4630.5581     -4663.8772      33.319061      7766.4723      265.46599      8058.3519      1.2027954      0.6579371    
     21900  -4632.2879     -4663.8102      31.522302      4802.4308      251.1505       8069.7791      1.2010922      0.6579371    
     22000  -4632.8233     -4664.7282      31.904831      5303.9332      254.19826      8084.1861      1.1989517      0.74734672   
     22100  -4632.8655     -4664.5218      31.656272      6325.4644      252.2179       8094.9339      1.1973598      0.74734672   
     22200  -4631.9307     -4664.6782      32.747514      3563.7111      260.91225      8107.1067      1.195562       0.74734672   
     22300  -4633.141      -4664.6554      31.514381      3334.7243      251.08739      8114.5128      1.1944708      0.74734672   
     22400  -4633.5327     -4665.6686      32.1359        3391.4845      256.03928      8114.1291      1.1945273      0.74734672   
     22500  -4633.7508     -4665.3382      31.587423      5639.7915      251.66935      8105.2235      1.1958397      0.74734672   
     22600  -4634.7627     -4665.577       30.814303      2562.1281      245.5096       8089.1943      1.1982094      0.74734672   
     22700  -4632.2824     -4663.7439      31.461511      6545.6949      250.66616      8065.6152      1.2017122      0.74734672   
     22800  -4634.7983     -4664.7562      29.957897      3794.9253      238.68628      8039.388       1.2056326      0.74734672   
     22900  -4633.9141     -4663.8289      29.914857      1545.2257      238.34336      8014.4009      1.2093915      0.74734672   
     23000  -4633.4674     -4665.4054      31.938002      8002.7827      254.46255      8002.8676      1.2111344      0.74926128   
     23100  -4633.8106     -4663.9474      30.136757      10719.915      240.11132      8006.5234      1.2105814      0.74926128   
     23200  -4633.0676     -4664.2737      31.206097      8381.0996      248.63117      8027.4717      1.2074223      0.74926128   
     23300  -4633.284      -4663.9129      30.628892      7651.1961      244.03236      8060.9619      1.2024059      0.74926128   
     23400  -4632.1491     -4664.6294      32.480323      6581.2311      258.78343      8094.9747      1.1973538      0.74926128   
     23500  -4631.7736     -4663.4556      31.68197       5606.6936      252.42264      8123.3638      1.1931693      0.74926128   
     23600  -4631.6912     -4663.5338      31.842578      2309.1734      253.70227      8140.921       1.190596       0.74926128   
     23700  -4630.9277     -4663.9343      33.006593      3035.0202      262.97643      8146.8161      1.1897345      0.74926128   
     23800  -4631.1968     -4664.8486      33.65188       4126.1332      268.11769      8141.4382      1.1905204      0.74926128   
     23900  -4630.1409     -4663.6         33.459103      1268.3289      266.58176      8124.1538      1.1930533      0.74926128   
     24000  -4628.7383     -4662.7278      33.989544      8489.6915      270.80799      8092.5233      1.1977165      0.69011221   
     24100  -4629.0909     -4662.3193      33.228385      7036.1473      264.74353      8055.4406      1.2032301      0.69011221   
     24200  -4629.0459     -4662.4327      33.386777      4004.7755      266.00551      8026.2764      1.2076021      0.69011221   
     24300  -4629.0362     -4662.9121      33.875912      4100.7601      269.90263      8010.7352      1.2099449      0.69011221   
     24400  -4628.5191     -4661.0071      32.488006      5830.4941      258.84464      8007.4825      1.2104364      0.69011221   
     24500  -4629.3358     -4663.401       34.065146      8182.8093      271.41034      8012.0178      1.2097512      0.69011221   
     24600  -4630.3029     -4663.6661      33.363172      4602.8199      265.81744      8020.2992      1.2085021      0.69011221   
     24700  -4631.1899     -4663.925       32.735085      5870.9759      260.81322      8036.622       1.2060476      0.69011221   
     24800  -4632.0464     -4663.5136      31.467272      5595.0768      250.71206      8061.4667      1.2023306      0.69011221   
     24900  -4631.7923     -4663.6586      31.866318      6578.7944      253.89142      8088.9867      1.1982401      0.69011221   
     25000  -4631.497      -4663.7829      32.285873      1937.049       257.23417      8110.0556      1.1951272      0.70771782   
     25100  -4632.5723     -4664.3776      31.805352      4989.6805      253.40567      8116.5819      1.1941663      0.70771782   
     25200  -4631.5578     -4665.0891      33.531257      5020.7361      267.15663      8112.0455      1.1948341      0.70771782   
     25300  -4631.8421     -4664.0071      32.165011      6543.2829      256.27122      8102.3054      1.1962704      0.70771782   
     25400  -4632.3409     -4663.4995      31.158584      1920.8764      248.25263      8089.5096      1.1981627      0.70771782   
     25500  -4631.0296     -4663.4919      32.462227      2152.2698      258.63926      8073.0379      1.2006073      0.70771782   
     25600  -4631.299      -4664.9616      33.66266       4529.6353      268.20357      8056.6602      1.2030479      0.70771782   
     25700  -4631.0656     -4663.6337      32.568043      4163.5124      259.48233      8040.7733      1.2054249      0.70771782   
     25800  -4631.3541     -4662.8977      31.543645      6405.9141      251.32055      8026.1835      1.2076161      0.70771782   
     25900  -4630.9117     -4664.4969      33.585232      2951.609       267.58668      8019.7862      1.2085794      0.70771782   
     26000  -4631.7402     -4665.5719      33.831746      2539.5493      269.55075      8025.1298      1.2077747      0.76675524   
     26100  -4631.3861     -4663.2017      31.815659      6240.4265      253.48779      8042.9164      1.2051037      0.76675524   
     26200  -4632.9497     -4664.845       31.895352      3624.8688      254.12274      8064.4974      1.2018788      0.76675524   
     26300  -4632.5986     -4664.2195      31.620838      7687.3019      251.93558      8085.6262      1.1987381      0.76675524   
     26400  -4632.586      -4664.7197      32.133619      5303.9031      256.02111      8103.9817      1.196023       0.76675524   
     26500  -4632.5275     -4663.6874      31.159875      2960.4882      248.26291      8113.8843      1.1945633      0.76675524   
     26600  -4633.5232     -4665.292       31.768851      4936.1085      253.11485      8117.0455      1.1940981      0.76675524   
     26700  -4634.1928     -4666.2503      32.057503      4169.1899      255.41466      8116.0762      1.1942407      0.76675524   
     26800  -4632.6311     -4664.6484      32.017317      4685.5478      255.09448      8105.8831      1.1957424      0.76675524   
     26900  -4633.4921     -4664.9097      31.417618      4942.8366      250.31645      8091.2869      1.1978995      0.76675524   
     27000  -4632.3759     -4665.5299      33.154018      3508.2523      264.15102      8068.7916      1.2012392      0.66415314   
     27100  -4632.3939     -4663.0112      30.617254      5589.4466      243.93963      8043.4608      1.2050221      0.66415314   
     27200  -4632.0795     -4663.9622      31.882732      8070.5944      254.02219      8028.3151      1.2072955      0.66415314   
     27300  -4632.0711     -4664.6723      32.601212      6090.7077      259.7466       8027.1564      1.2074697      0.66415314   
     27400  -4632.1782     -4664.4996      32.321456      1265.7167      257.51768      8038.7249      1.2057321      0.66415314   
     27500  -4632.9128     -4665.3054      32.39253       7525.1217      258.08396      8052.3881      1.2036862      0.66415314   
     27600  -4632.0118     -4663.3953      31.383533      6177.3653      250.04488      8060.6626      1.2024506      0.66415314   
     27700  -4632.6389     -4665.3712      32.73236       4046.881       260.79151      8069.573       1.2011228      0.66415314   
     27800  -4631.2714     -4665.0274      33.756001      7014.8751      268.94726      8080.7584      1.1994602      0.66415314   
     27900  -4630.5966     -4663.1326      32.535987      3915.7634      259.22693      8093.4434      1.1975803      0.66415314   
     28000  -4630.6565     -4664.4714      33.814811      5942.0637      269.41582      8103.8349      1.1960447      0.67647772   
     28100  -4630.6829     -4663.2144      32.531491      7286.3896      259.19111      8104.614       1.1959297      0.67647772   
     28200  -4630.5279     -4664.4507      33.9228        5096.6396      270.27622      8100.0647      1.1966014      0.67647772   
     28300  -4632.0742     -4664.5654      32.491133      4979.5939      258.86956      8091.2568      1.1979039      0.67647772   
     28400  -4630.8531     -4664.5132      33.660032      7215.9772      268.18264      8086.6133      1.1985918      0.67647772   
     28500  -4631.148      -4663.9721      32.824112      3036.9103      261.52253      8083.8278      1.1990048      0.67647772   
     28600  -4631.2822     -4663.1617      31.879506      4198.0964      253.99649      8073.3342      1.2005633      0.67647772   
     28700  -4630.128      -4663.3296      33.201579      6429.8448      264.52996      8056.8599      1.2030181      0.67647772   
     28800  -4630.8202     -4663.4692      32.64894       4752.6927      260.12687      8035.4309      1.2062263      0.67647772   
     28900  -4631.5145     -4663.2983      31.783786      4858.3336      253.23385      8012.6042      1.2096627      0.67647772   
     29000  -4631.0781     -4663.1904      32.112254      6972.3203      255.85088      7999.2202      1.2116867      0.797227     
     29100  -4630.0135     -4663.7533      33.739824      6829.4833      268.81837      8000.4337      1.2115029      0.797227     
     29200  -4629.341      -4663.0457      33.704635      5242.6513      268.538        8021.7396      1.2082851      0.797227     
     29300  -4628.4191     -4662.0148      33.595765      5323.3312      267.6706       8061.4662      1.2023307      0.797227     
     29400  -4629.4721     -4662.691       33.218922      4014.3441      264.66814      8114.9533      1.1944059      0.797227     
     29500  -4629.7384     -4664.4097      34.671346      1954.8644      276.24017      8172.8877      1.1859393      0.797227     
     29600  -4629.639      -4662.4956      32.856601      5284.5475      261.78139      8218.267       1.1793908      0.797227     
     29700  -4631.4711     -4663.544       32.072902      3668.1957      255.53735      8239.4999      1.1763515      0.797227     
     29800  -4631.2075     -4662.6049      31.397479      2521.6054      250.156        8220.4075      1.1790837      0.797227     
     29900  -4630.6083     -4663.7093      33.101028      3521.6081      263.72884      8161.3826      1.1876111      0.797227     
     30000  -4630.7682     -4664.4602      33.692033      8391.5638      268.4376       8089.6613      1.1981402      0.92896143   
     30100  -4630.4667     -4663.4921      33.025479      3392.6162      263.12691      8032.161       1.2067174      0.92896143   
     30200  -4628.9703     -4662.193       33.222665      5843.3539      264.69796      8001.2334      1.2113818      0.92896143   
     30300  -4630.0812     -4663.172       33.090776      4868.4113      263.64715      7995.1599      1.212302       0.92896143   
     30400  -4631.5414     -4663.1351      31.593642      6130.2525      251.7189       8010.6015      1.2099651      0.92896143   
     30500  -4630.97       -4663.5047      32.534696      5683.7813      259.21664      8043.0174      1.2050886      0.92896143   
     30600  -4632.7592     -4664.1958      31.436561      6452.3624      250.46737      8081.1287      1.1994053      0.92896143   
     30700  -4631.2021     -4665.2313      34.029211      4691.9143      271.12403      8114.0411      1.1945402      0.92896143   
     30800  -4631.8184     -4663.4364      31.618045      1221.7006      251.91333      8137.1717      1.1911446      0.92896143   
     30900  -4631.9739     -4663.6164      31.642446      1381.7329      252.10774      8141.3341      1.1905356      0.92896143   
     31000  -4632.6542     -4665.3676      32.713332      5070.2469      260.63991      8125.8628      1.1928024      0.7100419    
     31100  -4633.0714     -4665.1914      32.119924      4555.205       255.912        8100.4588      1.1965431      0.7100419    
     31200  -4633.4721     -4664.9667      31.494635      5046.8998      250.93008      8076.2293      1.2001329      0.7100419    
     31300  -4633.1965     -4664.9039      31.707394      8080.1782      252.62521      8056.5116      1.2030701      0.7100419    
     31400  -4632.2299     -4663.6552      31.42525       7232.8887      250.37725      8043.3096      1.2050448      0.7100419    
     31500  -4630.6282     -4663.7346      33.106443      3741.0738      263.77198      8036.9567      1.2059973      0.7100419    
     31600  -4630.1969     -4661.531       31.334113      9559.8516      249.65113      8037.6279      1.2058966      0.7100419    
     31700  -4631.232      -4663.6268      32.394842      6162.8615      258.10237      8048.6051      1.204252       0.7100419    
     31800  -4631.8736     -4664.3426      32.469029      4943.6676      258.69345      8064.9162      1.2018164      0.7100419    
     31900  -4631.6981     -4665.2947      33.596635      5905.7496      267.67753      8084.7466      1.1988685      0.7100419    
     32000  -4631.107      -4663.0973      31.990298      4438.8926      254.87921      8098.0527      1.1968987      0.79336919   
     32100  -4630.451      -4663.459       33.007993      4286.8561      262.98759      8100.0562      1.1966026      0.79336919   
     32200  -4629.4369     -4662.2911      32.854259      8661.1818      261.76273      8100.6958      1.1965081      0.79336919   
     32300  -4629.9008     -4663.5429      33.642146      4443.5436      268.04013      8107.1752      1.1955519      0.79336919   
     32400  -4630.2226     -4664.4591      34.236581      4310.2427      272.77623      8118.4365      1.1938935      0.79336919   
     32500  -4628.6595     -4662.2005      33.540998      4429.3367      267.23425      8130.5263      1.1921182      0.79336919   
     32600  -4628.5693     -4661.485       32.9157        3680.7344      262.25225      8132.7244      1.191796       0.79336919   
     32700  -4628.2621     -4661.4462      33.184076      4715.0342      264.39051      8121.2267      1.1934833      0.79336919   
     32800  -4627.7802     -4662.8849      35.104713      5014.206       279.69297      8099.5628      1.1966755      0.79336919   
     32900  -4629.4103     -4662.7427      33.3324        3014.8339      265.57226      8077.0945      1.2000043      0.79336919   
     33000  -4629.6132     -4663.2993      33.68612       6364.246       268.39049      8056.6723      1.2030461      0.76144328   
     33100  -4628.5208     -4662.7798      34.25906       5897.802       272.95533      8043.7405      1.2049802      0.76144328   
     33200  -4628.7324     -4663.1057      34.373276      6209.5164      273.86533      8042.6127      1.2051492      0.76144328   
     33300  -4629.5737     -4662.0441      32.470397      2021.4303      258.70435      8055.2778      1.2032544      0.76144328   
     33400  -4628.0637     -4662.0737      34.009935      5090.9207      270.97045      8078.7221      1.1997626      0.76144328   
     33500  -4628.9581     -4662.888       33.929885      2657.2869      270.33266      8108.5051      1.1953558      0.76144328   
     33600  -4629.224      -4662.7504      33.526327      3547.4396      267.11736      8132.3685      1.1918482      0.76144328   
     33700  -4629.4598     -4663.2351      33.775315      1349.8001      269.10114      8146.376       1.1897988      0.76144328   
     33800  -4629.3696     -4662.8947      33.525091      5015.5116      267.10751      8145.496       1.1899273      0.76144328   
     33900  -4629.7132     -4662.7838      33.070678      5264.9154      263.48703      8129.2731      1.192302       0.76144328   
     34000  -4629.0711     -4662.2877      33.216597      4150.8372      264.64962      8105.7632      1.1957601      0.67348018   
     34100  -4628.7877     -4663.0031      34.215433      6699.6062      272.60773      8082.4491      1.1992093      0.67348018   
     34200  -4629.2533     -4663.5905      34.337195      8893.3039      273.57786      8067.2472      1.2014691      0.67348018   
     34300  -4628.9947     -4661.7594      32.764674      2833.3851      261.04897      8057.5515      1.2029149      0.67348018   
     34400  -4628.045      -4663.3081      35.263113      5151.9288      280.95501      8057.0635      1.2029877      0.67348018   
     34500  -4628.7657     -4663.0777      34.311966      6775.1929      273.37685      8070.5335      1.2009799      0.67348018   
     34600  -4629.8247     -4662.6232      32.798472      2990.9428      261.31825      8087.5183      1.1984577      0.67348018   
     34700  -4631.7773     -4664.2295      32.452151      5316.7187      258.55898      8102.5816      1.1962297      0.67348018   
     34800  -4630.1271     -4663.1524      33.025242      6884.41        263.12502      8114.0256      1.1945425      0.67348018   
     34900  -4630.4167     -4664.7119      34.2952        5011.5344      273.24327      8123.5418      1.1931432      0.67348018   
     35000  -4629.84       -4662.4689      32.628918      5917.4641      259.96735      8126.7566      1.1926712      0.7291995    
     35100  -4629.4076     -4661.6467      32.239061      2824.7832      256.86121      8121.9073      1.1933833      0.7291995    
     35200  -4629.2004     -4661.4669      32.266466      5662.1405      257.07955      8114.4089      1.1944861      0.7291995    
     35300  -4630.2632     -4662.6074      32.344272      6186.5648      257.69946      8111.6987      1.1948852      0.7291995    
     35400  -4630.1356     -4663.4885      33.352929      6701.8905      265.73582      8115.6576      1.1943023      0.7291995    
     35500  -4629.7554     -4662.6608      32.905397      4125.2188      262.17016      8122.0599      1.1933609      0.7291995    
     35600  -4630.1583     -4662.745       32.586737      3946.6615      259.63127      8120.8657      1.1935364      0.7291995    
     35700  -4630.2068     -4662.2578      32.050994      3916.7706      255.3628       8104.2972      1.1959764      0.7291995    
     35800  -4631.5554     -4663.1126      31.557208      5611.3875      251.42862      8076.9052      1.2000325      0.7291995    
     35900  -4631.6998     -4663.8424      32.142613      4808.2315      256.09276      8047.8192      1.2043696      0.7291995    
     36000  -4631.2967     -4664.147       32.850308      8947.0672      261.73125      8025.4124      1.2077321      0.72358799   
     36100  -4631.0849     -4663.5207      32.435763      5532.518       258.42841      8023.1932      1.2080662      0.72358799   
     36200  -4629.641      -4661.8436      32.202541      3934.3929      256.57024      8041.5579      1.2053073      0.72358799   
     36300  -4630.3826     -4662.8708      32.48826       2906.2129      258.84667      8067.9366      1.2013665      0.72358799   
     36400  -4630.8013     -4663.1109      32.309656      5061.5812      257.42366      8090.8971      1.1979572      0.72358799   
     36500  -4630.795      -4664.0526      33.257578      8758.4899      264.97612      8105.9447      1.1957333      0.72358799   
     36600  -4631.4669     -4663.7386      32.271703      3525.1893      257.12128      8117.2215      1.1940722      0.72358799   
     36700  -4630.2442     -4663.066       32.821764      4858.4395      261.50382      8127.7419      1.1925266      0.72358799   
     36800  -4630.118      -4663.5852      33.46717       7570.2075      266.64603      8132.1301      1.1918831      0.72358799   
     36900  -4630.8666     -4663.2837      32.417095      3682.5344      258.27967      8126.0092      1.1927809      0.72358799   
     37000  -4629.2756     -4662.6025      33.326904      5813.0755      265.52848      8111.2819      1.1949466      0.73221987   
     37100  -4629.6277     -4661.8738      32.246071      4318.5531      256.91706      8087.5755      1.1984492      0.73221987   
     37200  -4631.14       -4662.8902      31.750162      6606.1513      252.96595      8059.9626      1.202555       0.73221987   
     37300  -4630.7477     -4663.3084      32.560752      8233.0623      259.42424      8041.1746      1.2053648      0.73221987   
     37400  -4629.8745     -4663.3674      33.492894      4653.3643      266.85098      8035.5         1.206216       0.73221987   
     37500  -4630.3952     -4663.1874      32.792192      4913.6951      261.26821      8042.2386      1.2052053      0.73221987   
     37600  -4630.4622     -4663.2985      32.836348      5579.4669      261.62002      8062.5392      1.2021707      0.73221987   
     37700  -4630.5669     -4663.0658      32.498853      6031.1092      258.93107      8089.2357      1.1982032      0.73221987   
     37800  -4630.2584     -4663.5615      33.30309       3391.355       265.33874      8116.7487      1.1941417      0.73221987   
     37900  -4630.4451     -4662.225       31.779854      3574.7827      253.20253      8143.1292      1.1902732      0.73221987   
     38000  -4630.5657     -4664.1277      33.562033      2462.3062      267.40184      8160.0378      1.1878068      0.7142402    
     38100  -4629.6409     -4662.2134      32.57258       839.59496      259.51848      8158.1375      1.1880835      0.7142402    
     38200  -4629.5116     -4662.8194      33.307764      3799.9528      265.37598      8143.945       1.190154       0.7142402    
     38300  -4630.5718     -4663.8011      33.229349      4782.3363      264.75121      8121.938       1.1933788      0.7142402    
     38400  -4629.9238     -4663.4558      33.532049      5023.5523      267.16294      8094.5886      1.1974109      0.7142402    
     38500  -4629.3867     -4662.0766      32.689931      4553.4354      260.45347      8073.1068      1.2005971      0.7142402    
     38600  -4630.9042     -4664.1681      33.26386       8061.5576      265.02618      8062.7998      1.2021318      0.7142402    
     38700  -4631.0671     -4662.9629      31.895804      5007.8649      254.12634      8055.1618      1.2032717      0.7142402    
     38800  -4630.5403     -4663.0851      32.544746      5032.7781      259.29672      8042.3951      1.2051818      0.7142402    
     38900  -4630.2689     -4663.1111      32.84218       6346.6419      261.66649      8025.7884      1.2076755      0.7142402    
     39000  -4630.4084     -4662.8907      32.482232      6716.6644      258.79865      8016.6765      1.2090482      0.77825777   
     39100  -4630.5066     -4663.4236      32.917022      6753.6058      262.26279      8030.3445      1.2069904      0.77825777   
     39200  -4629.701      -4663.746       34.044915      3348.9964      271.24915      8066.4801      1.2015834      0.77825777   
     39300  -4629.0847     -4662.2482      33.163536      4419.5433      264.22686      8108.9113      1.1952959      0.77825777   
     39400  -4627.2916     -4661.2697      33.978184      4036.6674      270.71747      8139.4844      1.1908062      0.77825777   
     39500  -4628.7468     -4661.6932      32.946362      2902.0103      262.49655      8156.0463      1.1883881      0.77825777   
     39600  -4629.3013     -4663.4478      34.146566      2418.984       272.05905      8153.5559      1.1887511      0.77825777   
     39700  -4630.6112     -4663.4599      32.84869       7084.5139      261.71836      8136.3295      1.1912679      0.77825777   
     39800  -4629.9792     -4663.2279      33.248759      4703.702       264.90586      8117.9928      1.1939587      0.77825777   
     39900  -4630.4499     -4663.4911      33.041133      4928.936       263.25163      8097.7734      1.1969399      0.77825777   
     40000  -4629.9266     -4662.0164      32.089828      6085.0932      255.67221      8068.542       1.2012763      0.70532521   
     40100  -4629.5862     -4663.1704      33.584275      6148.3614      267.57905      8036.978       1.2059942      0.70532521   
     40200  -4627.9525     -4663.3753      35.422805      94.029477      282.22734      8016.3532      1.209097       0.70532521   
     40300  -4626.6372     -4661.0547      34.4175        5630.5996      274.21768      8022.0567      1.2082373      0.70532521   
     40400  -4627.4223     -4661.6511      34.228839      4641.3293      272.71454      8051.8327      1.2037692      0.70532521   
     40500  -4629.0325     -4661.9792      32.946691      4586.5599      262.49917      8081.3616      1.1993707      0.70532521   
     40600  -4628.5847     -4662.0072      33.422535      6897.755       266.29041      8098.5512      1.196825       0.70532521   
     40700  -4628.6919     -4662.2076      33.515607      7000.3201      267.03195      8109.478       1.1952124      0.70532521   
     40800  -4629.1819     -4662.9324      33.750477      3155.1453      268.90325      8115.8437      1.1942749      0.70532521   
     40900  -4628.8131     -4663.9635      35.1504        4266.4809      280.05698      8122.3973      1.1933113      0.70532521   
     41000  -4629.4252     -4662.7994      33.374177      8960.8014      265.90511      8135.1696      1.1914378      0.68077429   
     41100  -4629.7558     -4663.6237      33.86796       2479.9863      269.83928      8150.4479      1.1892044      0.68077429   
     41200  -4628.7686     -4661.3363      32.567712      3336.4067      259.4797       8155.8968      1.1884099      0.68077429   
     41300  -4628.6296     -4662.8575      34.227958      4488.989       272.70753      8145.2724      1.18996        0.68077429   
     41400  -4630.1662     -4663.4426      33.276418      5559.9257      265.12624      8118.963       1.1938161      0.68077429   
     41500  -4631.2525     -4664.1051      32.852606      5598.2521      261.74956      8085.5977      1.1987424      0.68077429   
     41600  -4631.5829     -4664.4889      32.905973      8691.9552      262.17476      8049.7804      1.2040761      0.68077429   
     41700  -4631.5366     -4664.2617      32.725116      4773.9836      260.73379      8024.2856      1.2079017      0.68077429   
     41800  -4631.4893     -4663.9352      32.445831      8957.2295      258.50862      8016.7122      1.2090428      0.68077429   
     41900  -4631.7944     -4663.7395      31.945109      6335.8675      254.51917      8020.2529      1.2085091      0.68077429   
     42000  -4631.7254     -4663.789       32.063613      3887.1669      255.46335      8033.1608      1.2065672      0.73361306   
     42100  -4631.2406     -4663.6019      32.361326      5767.9276      257.83534      8056.4078      1.2030856      0.73361306   
     42200  -4631.2393     -4663.7842      32.544866      8036.7994      259.29768      8087.346       1.1984832      0.73361306   
     42300  -4632.1143     -4663.9672      31.852896      4564.2928      253.78448      8121.9063      1.1933834      0.73361306   
     42400  -4631.582      -4663.6654      32.083471      964.35795      255.62156      8139.7786      1.1907631      0.73361306   
     42500  -4632.7728     -4663.9224      31.149634      3654.1184      248.18132      8130.8375      1.1920726      0.73361306   
     42600  -4632.11       -4663.6666      31.556654      3074.2946      251.42421      8100.3005      1.1965665      0.73361306   
     42700  -4633.1988     -4665.0776      31.878837      5860.6642      253.99116      8065.8592      1.2016759      0.73361306   
     42800  -4631.5891     -4664.2274      32.638241      4577.5229      260.04163      8036.0173      1.2061383      0.73361306   
     42900  -4630.9731     -4662.0297      31.056621      6075.8685      247.44024      8015.2978      1.2092562      0.73361306   
     43000  -4631.4282     -4664.4416      33.013383      5293.5079      263.03053      8009.4519      1.2101388      0.77649945   
     43100  -4631.5794     -4664.1733      32.593946      3325.5981      259.68872      8017.5915      1.2089102      0.77649945   
     43200  -4633.1523     -4665.1499      31.997645      6140.532       254.93775      8034.5436      1.2063596      0.77649945   
     43300  -4631.5166     -4664.4814      32.964821      5930.3019      262.64362      8059.8894      1.2025659      0.77649945   
     43400  -4632.1507     -4664.5473      32.39657       6222.2571      258.11614      8088.9412      1.1982469      0.77649945   
     43500  -4631.2668     -4664.2064      32.939624      1826.0961      262.44286      8113.7767      1.1945791      0.77649945   
     43600  -4630.3458     -4664.2218      33.875988      2286.7764      269.90324      8126.0252      1.1927785      0.77649945   
     43700  -4630.2329     -4663.9058      33.672847      2068.1411      268.28474      8123.4115      1.1931623      0.77649945   
     43800  -4631.0761     -4664.4157      33.339612      4264.0599      265.62973      8111.407       1.1949281      0.77649945   
     43900  -4630.9634     -4664.2646      33.301212      5125.1101      265.32378      8098.6802      1.1968059      0.77649945   
     44000  -4631.8573     -4664.3103      32.453017      5271.4479      258.56588      8090.164       1.1980658      0.72317144   
     44100  -4631.7577     -4664.2119      32.454274      6032.8486      258.57589      8081.0699      1.199414       0.72317144   
     44200  -4632.1526     -4665.2558      33.103262      8821.615       263.74663      8069.7958      1.2010897      0.72317144   
     44300  -4631.8089     -4665.0095      33.200546      5902.9047      264.52173      8060.2634      1.2025101      0.72317144   
     44400  -4630.8691     -4662.9815      32.11244       4648.4257      255.85237      8053.8102      1.2034737      0.72317144   
     44500  -4630.5841     -4664.0234      33.439314      7863.2263      266.42409      8057.0552      1.202989       0.72317144   
     44600  -4631.5074     -4663.9409      32.433475      3323.3014      258.41018      8072.113       1.2007449      0.72317144   
     44700  -4631.6874     -4662.0959      30.40843       3904.9638      242.27585      8086.0499      1.1986753      0.72317144   
     44800  -4631.8989     -4663.8376      31.938715      4955.7888      254.46823      8093.2825      1.1976041      0.72317144   
     44900  -4632.2811     -4664.9008      32.619714      2162.7019      259.89402      8094.0274      1.1974939      0.72317144   
     45000  -4632.0563     -4664.0067      31.95048       5524.8868      254.56197      8088.6972      1.198283       0.69394954   
     45100  -4631.4701     -4662.4698      30.99966       3991.5852      246.98641      8079.0364      1.1997159      0.69394954   
     45200  -4631.6047     -4662.8007      31.196056      3429.4761      248.55118      8069.1555      1.201185       0.69394954   
     45300  -4631.1699     -4663.5293      32.359431      4263.952       257.82024      8058.3681      1.202793       0.69394954   
     45400  -4630.1757     -4664.3446      34.16891       5146.873       272.23707      8048.5309      1.2042631      0.69394954   
     45500  -4628.6679     -4662.7969      34.128982      7626.8501      271.91894      8048.9384      1.2042021      0.69394954   
     45600  -4629.274      -4661.146       31.872077      3128.4282      253.9373       8060.0362      1.202544       0.69394954   
     45700  -4630.1537     -4662.3935      32.239789      2625.4529      256.867        8072.3176      1.2007144      0.69394954   
     45800  -4630.5299     -4662.531       32.001107      2954.1522      254.96533      8083.1683      1.1991026      0.69394954   
     45900  -4629.568      -4662.9771      33.409079      3672.3229      266.1832       8089.3704      1.1981833      0.69394954   
     46000  -4631.6454     -4663.9842      32.338842      7423.7174      257.6562       8090.7844      1.1979739      0.69359984   
     46100  -4631.0575     -4663.8413      32.783763      5423.6337      261.20106      8092.9428      1.1976544      0.69359984   
     46200  -4629.3249     -4662.9927      33.667733      4167.5279      268.244        8094.3306      1.197449       0.69359984   
     46300  -4630.1472     -4663.0205      32.873242      5001.851       261.91397      8094.1811      1.1974712      0.69359984   
     46400  -4630.5144     -4663.6226      33.108209      5470.2839      263.78605      8087.2049      1.1985041      0.69359984   
     46500  -4631.5798     -4665.4729      33.893122      5098.5808      270.03976      8076.3844      1.2001098      0.69359984   
     46600  -4632.404      -4664.1899      31.785906      5458.7723      253.25074      8070.312       1.2010128      0.69359984   
     46700  -4632.2814     -4664.5709      32.289497      9061.9934      257.26305      8066.2498      1.2016177      0.69359984   
     46800  -4632.6796     -4664.4619      31.782249      2938.1405      253.2216       8059.6998      1.2025942      0.69359984   
     46900  -4631.0302     -4663.6737      32.643503      4580.3555      260.08356      8053.4229      1.2035315      0.69359984   
     47000  -4630.7459     -4662.4461      31.700178      7251.1173      252.56771      8050.1957      1.204014       0.7970008    
     47100  -4630.682      -4662.7652      32.083246      7943.0928      255.61976      8054.7852      1.203328       0.7970008    
     47200  -4631.2579     -4663.7337      32.475816      4402.4681      258.74752      8070.4327      1.2009949      0.7970008    
     47300  -4630.6128     -4662.9342      32.321364      1441.8468      257.51695      8087.9279      1.198397       0.7970008    
     47400  -4630.1724     -4663.1275      32.95516       6514.0533      262.56664      8101.2741      1.1964227      0.7970008    
     47500  -4631.3666     -4665.0202      33.653614      2968.946       268.1315       8106.3842      1.1956685      0.7970008    
     47600  -4631.1263     -4664.7299      33.603585      5041.6681      267.7329       8104.5191      1.1959437      0.7970008    
     47700  -4630.7489     -4663.9913      33.24245       7648.0121      264.85559      8100.5326      1.1965322      0.7970008    
     47800  -4631.307      -4664.02        32.712956      5682.4474      260.63691      8097.4011      1.196995       0.7970008    
     47900  -4630.7672     -4664.148       33.38082       7145.7228      265.95804      8095.7844      1.197234       0.7970008    
     48000  -4631.0683     -4664.6928      33.624493      8490.1565      267.89948      8094.0253      1.1974942      0.76486115   
     48100  -4632.0796     -4664.1748      32.09516       5430.7131      255.71469      8088.7272      1.1982786      0.76486115   
     48200  -4632.3942     -4664.4868      32.092599      4003.1035      255.69429      8076.6535      1.2000699      0.76486115   
     48300  -4632.6108     -4665.6528      33.042065      3653.6487      263.25906      8058.9299      1.2027091      0.76486115   
     48400  -4631.2218     -4664.1939      32.972031      4637.0265      262.70107      8050.1817      1.2040161      0.76486115   
     48500  -4630.927      -4663.9462      33.019219      5650.0328      263.07703      8055.008       1.2032947      0.76486115   
     48600  -4630.758      -4663.5642      32.806264      6979.4837      261.38033      8077.2479      1.1999815      0.76486115   
     48700  -4631.1519     -4663.5648      32.412912      2605.2623      258.24634      8113.827       1.1945717      0.76486115   
     48800  -4631.1213     -4664.0814      32.960095      5022.3071      262.60597      8145.5804      1.189915       0.76486115   
     48900  -4632.4018     -4664.5622      32.160387      4690.9415      256.23438      8161.7151      1.1875627      0.76486115   
     49000  -4632.1136     -4664.5296      32.416043      3216.0003      258.27129      8168.7996      1.1865328      0.87735579   
     49100  -4631.8874     -4663.8891      32.001678      1792.5394      254.96988      8161.4147      1.1876064      0.87735579   
     49200  -4631.3006     -4663.2601      31.959492      1861.3746      254.63377      8135.6108      1.1913732      0.87735579   
     49300  -4631.7438     -4663.4398      31.696019      3853.2346      252.53458      8101.4422      1.1963979      0.87735579   
     49400  -4629.0253     -4662.4892      33.463939      5511.3617      266.62028      8066.3149      1.201608       0.87735579   
     49500  -4629.6279     -4663.4249      33.796977      6195.8756      269.27373      8039.7537      1.2055778      0.87735579   
     49600  -4629.1442     -4662.6399      33.495694      7835.9257      266.87329      8029.1386      1.2071716      0.87735579   
     49700  -4629.3322     -4662.5524      33.220154      6320.2621      264.67795      8039.8403      1.2055648      0.87735579   
     49800  -4629.4485     -4662.612       33.16348       3966.5206      264.22641      8068.6125      1.2012658      0.87735579   
     49900  -4630.1494     -4663.3061      33.156748      2206.4978      264.17278      8102.6427      1.1962206      0.87735579   
     50000  -4629.9469     -4662.3756      32.428683      6917.7879      258.372        8131.6283      1.1919567      0.94207249   
     50100  -4630.3314     -4663.3564      33.025004      8873.6447      263.12312      8152.5487      1.188898       0.94207249   
     50200  -4629.868      -4663.7848      33.916892      7046.1497      270.22914      8163.447       1.1873108      0.94207249   
     50300  -4630.0797     -4663.6771      33.597412      2611.8715      267.68372      8166.6307      1.1868479      0.94207249   
     50400  -4629.7902     -4662.7126      32.922354      3085.3338      262.30527      8157.087       1.1882365      0.94207249   
     50500  -4629.6515     -4663.7756      34.124019      1886.7503      271.8794       8130.3769      1.1921401      0.94207249   
     50600  -4628.0935     -4662.2396      34.146112      7570.167       272.05543      8086.7306      1.1985744      0.94207249   
     50700  -4629.3264     -4662.3363      33.009906      5860.5432      263.00283      8048.95        1.2042004      0.94207249   
     50800  -4629.1524     -4662.7984      33.645967      6881.6158      268.07058      8025.1179      1.2077764      0.94207249   
     50900  -4629.0551     -4662.8524      33.797278      7385.7892      269.27613      8014.8738      1.2093201      0.94207249   
     51000  -4629.2704     -4662.9682      33.697821      3453.4319      268.48371      8024.6568      1.2078458      0.83337183   
     51100  -4631.1322     -4662.6445      31.512241      4159.4975      251.07034      8044.8484      1.2048143      0.83337183   
     51200  -4629.7954     -4662.2753      32.479913      4105.867       258.78017      8064.5147      1.2018762      0.83337183   
     51300  -4629.4466     -4663.5076      34.061065      6384.3193      271.37782      8079.6942      1.1996182      0.83337183   
     51400  -4629.055      -4662.6282      33.573245      4737.9754      267.49117      8092.9648      1.1976511      0.83337183   
     51500  -4630.1438     -4663.136       32.992234      4204.5924      262.86203      8103.8238      1.1960463      0.83337183   
     51600  -4630.1147     -4664.0083      33.89364       2983.2478      270.04388      8113.3756      1.1946382      0.83337183   
     51700  -4629.3737     -4663.7258      34.352097      4845.2145      273.69659      8122.5169      1.1932937      0.83337183   
     51800  -4630.703      -4662.193       31.490057      1745.6841      250.8936       8129.4337      1.1922784      0.83337183   
     51900  -4629.8426     -4662.9034      33.06077       3431.0827      263.40808      8125.41        1.1928688      0.83337183   
     52000  -4628.1065     -4662.2729      34.166317      5258.2105      272.21641      8111.5812      1.1949025      0.74778131   
     52100  -4626.3765     -4661.529       35.152491      3102.4601      280.07364      8090.3045      1.1980449      0.74778131   
     52200  -4626.8494     -4661.6505      34.801168      4617.9296      277.27451      8063.4371      1.2020368      0.74778131   
     52300  -4626.9759     -4659.8803      32.904485      8884.3613      262.1629       8037.1925      1.205962       0.74778131   
     52400  -4626.2907     -4660.1813      33.890669      5400.6169      270.02021      8027.8118      1.2073712      0.74778131   
     52500  -4626.8261     -4660.8073      33.981193      7549.2562      270.74145      8039.0032      1.2056903      0.74778131   
     52600  -4627.7594     -4661.4346      33.675193      6005.742       268.30343      8071.6384      1.2008155      0.74778131   
     52700  -4628.9734     -4662.2328      33.25946       6857.6006      264.99112      8116.593       1.1941647      0.74778131   
     52800  -4629.9435     -4662.8105      32.867065      5871.1164      261.86476      8157.7744      1.1881364      0.74778131   
     52900  -4630.362      -4662.7268      32.364857      4431.6154      257.86347      8181.9292      1.1846287      0.74778131   
     53000  -4630.7309     -4662.7997      32.068787      2715.3348      255.50457      8183.2285      1.1844406      0.70390192   
     53100  -4630.926      -4663.9049      32.978835      2940.4626      262.75528      8160.72        1.1877075      0.70390192   
     53200  -4629.3549     -4664.4904      35.135484      5995.0273      279.93814      8116.2663      1.1942127      0.70390192   
     53300  -4630.1979     -4662.8158      32.617922      7528.1264      259.87974      8065.1175      1.2017864      0.70390192   
     53400  -4629.5786     -4661.4592      31.88066       6139.0014      254.00569      8027.1745      1.207467       0.70390192   
     53500  -4629.3835     -4662.5336      33.150074      2649.4536      264.1196       8008.2646      1.2103182      0.70390192   
     53600  -4629.4577     -4662.9007      33.442927      5070.8975      266.45287      8008.1316      1.2103383      0.70390192   
     53700  -4629.8567     -4662.5798      32.723191      5990.3307      260.71846      8020.313       1.2085         0.70390192   
     53800  -4630.0272     -4661.4527      31.425504      7524.9767      250.37928      8040.4199      1.2054779      0.70390192   
     53900  -4630.2093     -4663.6548      33.44547       4457.1269      266.47314      8066.6699      1.2015551      0.70390192   
     54000  -4629.6246     -4662.8267      33.202089      5874.7848      264.53403      8091.9186      1.197806       0.97884722   
     54100  -4629.9306     -4662.811       32.880381      4653.8966      261.97085      8113.3987      1.1946348      0.97884722   
     54200  -4630.5146     -4663.5636      33.049077      7163.6383      263.31492      8127.5619      1.192553       0.97884722   
     54300  -4630.5903     -4663.5613      32.970972      4610.5112      262.69263      8136.8274      1.191195       0.97884722   
     54400  -4631.6416     -4663.2105      31.568934      4762.288       251.52204      8144.2258      1.1901129      0.97884722   
     54500  -4630.526      -4662.6952      32.169161      5489.0046      256.30428      8146.9863      1.1897097      0.97884722   
     54600  -4631.2184     -4663.243       32.024633      3145.1337      255.15277      8137.1681      1.1911452      0.97884722   
     54700  -4631.2962     -4663.8524      32.5562        1772.1952      259.38797      8116.4161      1.1941907      0.97884722   
     54800  -4630.8532     -4663.2485      32.395287      5364.1787      258.10592      8089.0301      1.1982337      0.97884722   
     54900  -4629.8871     -4663.361       33.473868      6559.5393      266.6994       8062.1308      1.2022316      0.97884722   
     55000  -4630.3952     -4663.9451      33.549901      4236.7365      267.30518      8038.9875      1.2056927      0.69490748   
     55100  -4629.7711     -4663.6626      33.891518      8040.6656      270.02698      8025.9091      1.2076574      0.69490748   
     55200  -4631.8084     -4663.8713      32.062914      5334.4758      255.45777      8025.8487      1.2076665      0.69490748   
     55300  -4631.5532     -4664.6884      33.135148      2977.9227      264.00068      8038.4851      1.205768       0.69490748   
     55400  -4631.0598     -4663.5081      32.448284      6175.4916      258.52817      8063.7828      1.2019853      0.69490748   
     55500  -4630.2597     -4663.6787      33.419024      6911.5193      266.26243      8092.5584      1.1977113      0.69490748   
     55600  -4629.5842     -4662.5299      32.945718      1699.3665      262.49142      8114.1794      1.1945199      0.69490748   
     55700  -4629.8547     -4662.607       32.752308      5547.3971      260.95045      8122.3788      1.193314       0.69490748   
     55800  -4630.0402     -4663.0163      32.976141      3766.8848      262.73381      8117.9461      1.1939656      0.69490748   
     55900  -4630.2871     -4662.5974      32.310216      1753.5723      257.42812      8109.1818      1.195256       0.69490748   
     56000  -4630.0532     -4662.9932      32.939967      6156.0892      262.44559      8097.0406      1.1970483      0.70881025   
     56100  -4630.8393     -4662.9562      32.116911      4894.2072      255.88799      8081.6781      1.1993237      0.70881025   
     56200  -4629.6286     -4663.7751      34.146511      4569.7581      272.0586       8060.9169      1.2024126      0.70881025   
     56300  -4629.0285     -4662.4386      33.410144      1512.8974      266.19168      8035.9738      1.2061448      0.70881025   
     56400  -4628.3846     -4661.5147      33.130083      8229.6486      263.96032      8010.9428      1.2099136      0.70881025   
     56500  -4628.3667     -4662.1786      33.81189       7734.8217      269.39255      8002.6344      1.2111697      0.70881025   
     56600  -4629.5124     -4662.6688      33.156396      5930.7965      264.16997      8016.579       1.2090629      0.70881025   
     56700  -4630.8714     -4663.3283      32.456901      3263.3285      258.59682      8046.619       1.2045492      0.70881025   
     56800  -4631.5084     -4663.5382      32.029779      2517.7976      255.19377      8076.3967      1.200108       0.70881025   
     56900  -4632.6971     -4663.851       31.153871      3765.1599      248.21507      8095.707       1.1972455      0.70881025   
[...]
   2186300  -4629.9842     -4663.2895      33.305268      891.98414      265.35609      8146.9008      1.1897222      0.78141149   
   2186400  -4630.4989     -4663.256       32.757086      1417.2696      260.98851      8150.4347      1.1892063      0.78141149   
   2186500  -4630.9        -4662.8679      31.967962      4533.2193      254.70126      8137.5656      1.191087       0.78141149   
   2186600  -4630.2959     -4663.0021      32.706208      5060.6991      260.58315      8116.8354      1.194129       0.78141149   
   2186700  -4629.3976     -4663.3709      33.973279      3425.309       270.67839      8093.0625      1.1976367      0.78141149   
   2186800  -4629.6993     -4662.202       32.502746      7579.4398      258.96209      8072.5356      1.200682       0.78141149   
   2186900  -4629.4027     -4661.8384      32.43564       5639.8966      258.42743      8065.8621      1.2016754      0.78141149   
   2187000  -4629.4284     -4663.1002      33.671749      4789.986       268.27599      8070.7387      1.2009494      0.80359309   
   2187100  -4630.6173     -4664.6182      34.000862      4040.8864      270.89816      8084.0135      1.1989773      0.80359309   
   2187200  -4631.6704     -4662.9618      31.291408      3676.7604      249.31088      8094.0863      1.1974852      0.80359309   
   2187300  -4631.0067     -4663.0963      32.089648      3874.6917      255.67077      8092.8698      1.1976652      0.80359309   
   2187400  -4631.3002     -4663.7238      32.423626      6912.1594      258.33171      8080.9743      1.1994282      0.80359309   
   2187500  -4630.7801     -4664.0338      33.253758      3870.1769      264.94569      8066.1723      1.2016292      0.80359309   
   2187600  -4631.6031     -4664.3347      32.731612      6370.3111      260.78555      8061.06        1.2023913      0.80359309   
   2187700  -4632.07       -4663.6441      31.574112      4236.2108      251.56329      8071.7755      1.2007951      0.80359309   
   2187800  -4632.8667     -4663.9889      31.122273      4678.2446      247.96331      8094.1754      1.197472       0.80359309   
   2187900  -4632.9694     -4663.4806      30.511227      5451.8897      243.09487      8117.6601      1.1940077      0.80359309   
   2188000  -4632.888      -4665.4919      32.603849      5756.8407      259.76762      8139.0214      1.1908739      0.70561832   
   2188100  -4631.9168     -4663.8315      31.914681      3407.871       254.27674      8148.6404      1.1894682      0.70561832   
   2188200  -4632.3418     -4665.1865      32.844757      4282.9517      261.68703      8141.7952      1.1904682      0.70561832   
   2188300  -4631.9403     -4663.0823      31.142039      4869.7269      248.1208       8124.9641      1.1929343      0.70561832   
   2188400  -4632.0344     -4663.744       31.709618      2058.2804      252.64293      8097.649       1.1969583      0.70561832   
   2188500  -4631.2732     -4662.6891      31.415907      4939.2443      250.30282      8066.5603      1.2015714      0.70561832   
   2188600  -4630.7052     -4663.6635      32.958314      2671.6703      262.59178      8045.5166      1.2047142      0.70561832   
   2188700  -4630.7737     -4662.7729      31.999183      4280.6794      254.95         8039.6052      1.2056         0.70561832   
   2188800  -4630.9423     -4664.5373      33.59498       8767.4431      267.66434      8048.6286      1.2042484      0.70561832   
   2188900  -4632.4146     -4664.0766      31.66205       2967.5565      252.26393      8070.9935      1.2009114      0.70561832   
   2189000  -4632.4299     -4663.7132      31.283219      5721.4069      249.24564      8090.9584      1.1979481      0.78863745   
   2189100  -4632.2053     -4664.0452      31.839864      6044.53        253.68065      8102.1368      1.1962953      0.78863745   
   2189200  -4632.0884     -4664.3859      32.297493      5330.8167      257.32676      8106.5548      1.1956434      0.78863745   
   2189300  -4633.3039     -4664.6031      31.299201      7064.156       249.37297      8106.128       1.1957063      0.78863745   
   2189400  -4633.352      -4665.2414      31.889409      3452.8037      254.07539      8098.5712      1.196822       0.78863745   
   2189500  -4634.4864     -4665.0791      30.592749      7027.7459      243.74439      8083.2776      1.1990864      0.78863745   
   2189600  -4635.1236     -4665.8567      30.733157      4547.0564      244.86308      8062.5031      1.2021761      0.78863745   
   2189700  -4633.513      -4665.1061      31.593093      5368.4283      251.71452      8041.3358      1.2053406      0.78863745   
   2189800  -4632.6649     -4665.2674      32.60251       4510.9669      259.75694      8030.8396      1.206916       0.78863745   
   2189900  -4632.6651     -4664.7549      32.089837      7831.744       255.67228      8033.36        1.2065373      0.78863745   
   2190000  -4634.0031     -4665.7149      31.711821      4182.0612      252.66048      8047.0439      1.2044856      0.88794102   
   2190100  -4631.9824     -4664.2314      32.249007      4988.8771      256.94045      8064.6828      1.2018512      0.88794102   
   2190200  -4632.7827     -4664.9848      32.20208       3754.05        256.56656      8078.047       1.1998628      0.88794102   
   2190300  -4631.7682     -4664.0304      32.262204      4796.6165      257.0456       8082.7712      1.1991616      0.88794102   
   2190400  -4630.4422     -4662.8953      32.453073      6812.2979      258.56632      8086.5483      1.1986014      0.88794102   
   2190500  -4631.4672     -4663.8758      32.408624      3165.5302      258.21218      8095.6758      1.1972501      0.88794102   
   2190600  -4630.7452     -4663.7404      32.99521       5491.8011      262.88574      8103.3615      1.1961145      0.88794102   
   2190700  -4630.4037     -4664.4352      34.031477      7644.4465      271.14208      8106.6829      1.1956245      0.88794102   
   2190800  -4630.2008     -4663.6896      33.488727      3499.1503      266.81778      8105.423       1.1958103      0.88794102   
   2190900  -4630.1398     -4663.4051      33.265294      5220.8549      265.0376       8091.3845      1.197885       0.88794102   
   2191000  -4629.44       -4663.2695      33.829567      7440.9796      269.53339      8072.1444      1.2007402      0.69563957   
   2191100  -4629.8204     -4664.1177      34.297258      5144.204       273.25966      8067.3897      1.2014479      0.69563957   
   2191200  -4630.5923     -4664.052       33.459662      5586.0896      266.58621      8077.1385      1.1999978      0.69563957   
   2191300  -4630.8464     -4663.3864      32.539986      3688.0024      259.25879      8094.084       1.1974855      0.69563957   
   2191400  -4632.5095     -4664.1697      31.660249      1889.6448      252.24958      8101.9592      1.1963216      0.69563957   
   2191500  -4632.0015     -4664.0145      32.012962      4887.119       255.05979      8093.253       1.1976085      0.69563957   
   2191600  -4632.9363     -4665.0238      32.087442      7230.0422      255.6532       8074.6165      1.2003726      0.69563957   
   2191700  -4632.2956     -4664.9773      32.681735      3060.3214      260.38816      8051.9983      1.2037445      0.69563957   
   2191800  -4633.2514     -4665.6274      32.375962      5326.6485      257.95195      8039.0024      1.2056904      0.69563957   
   2191900  -4632.7753     -4665.1011      32.325785      6681.1518      257.55217      8030.1398      1.2070211      0.69563957   
   2192000  -4632.3076     -4665.1548      32.847238      5977.5112      261.70679      8024.8775      1.2078126      0.81874772   
   2192100  -4632.4456     -4663.9338      31.488214      6616.1454      250.87891      8025.5952      1.2077046      0.81874772   
   2192200  -4633.0823     -4664.7791      31.696846      4769.808       252.54117      8038.7162      1.2057334      0.81874772   
   2192300  -4632.2428     -4664.2045      31.961691      6359.2479      254.65129      8063.2831      1.2020598      0.81874772   
   2192400  -4631.4421     -4664.2111      32.769013      4124.1379      261.08354      8096.8709      1.1970734      0.81874772   
   2192500  -4631.0031     -4663.8199      32.816826      4001.5641      261.46449      8131.1336      1.1920292      0.81874772   
   2192600  -4630.6419     -4663.4518      32.80987       171.74707      261.40907      8154.9162      1.1885528      0.81874772   
   2192700  -4630.324      -4663.4043      33.080298      5245.3452      263.56367      8156.7293      1.1882886      0.81874772   
   2192800  -4630.4003     -4663.4784      33.078042      3887.6973      263.5457       8143.0059      1.1902912      0.81874772   
   2192900  -4631.5483     -4664.1507      32.602346      4042.7485      259.75564      8119.0026      1.1938102      0.81874772   
   2193000  -4632.3846     -4664.635       32.250359      9086.8939      256.95122      8088.2966      1.1983424      0.9031674    
   2193100  -4633.1898     -4663.9146      30.724787      5431.5565      244.79639      8059.9795      1.2025525      0.9031674    
   2193200  -4632.594      -4665.4891      32.895128      4831.38        262.08835      8042.5772      1.2051545      0.9031674    
   2193300  -4632.9632     -4665.4027      32.43946       6089.5258      258.45786      8038.6105      1.2057492      0.9031674    
   2193400  -4632.7737     -4664.7295      31.955842      8136.4841      254.60469      8049.4982      1.2041183      0.9031674    
   2193500  -4632.551      -4664.6968      32.14574       8493.4045      256.11768      8066.1906      1.2016265      0.9031674    
   2193600  -4632.444      -4664.0598      31.615724      1993.4353      251.89484      8075.9022      1.2001815      0.9031674    
   2193700  -4633.2359     -4664.842       31.606062      5077.6499      251.81785      8074.9221      1.2003272      0.9031674    
   2193800  -4633.4715     -4665.7667      32.295245      6278.7988      257.30884      8070.078       1.2010477      0.9031674    
   2193900  -4632.8016     -4664.2797      31.478048      4111.2146      250.79792      8070.648       1.2009628      0.9031674    
   2194000  -4632.5722     -4664.2501      31.677878      4834.5477      252.39004      8079.0154      1.199719       0.725529     
   2194100  -4632.1686     -4664.4878      32.319149      2562.6336      257.4993       8089.1196      1.1982204      0.725529     
   2194200  -4632.1127     -4664.5017      32.388949      4038.7748      258.05542      8097.1857      1.1970268      0.725529     
   2194300  -4632.3324     -4664.5691      32.236763      5882.1131      256.8429       8100.2507      1.1965739      0.725529     
   2194400  -4632.6992     -4664.7649      32.065685      7509.0141      255.47985      8095.122       1.197332       0.725529     
   2194500  -4633.302      -4664.9325      31.630557      4065.9374      252.01301      8083.5708      1.1990429      0.725529     
   2194600  -4632.4247     -4664.6479      32.223146      5757.6691      256.7344       8070.9545      1.2009172      0.725529     
   2194700  -4632.5145     -4664.9421      32.427539      2873.1028      258.36289      8061.0719      1.2023895      0.725529     
   2194800  -4631.9626     -4663.8974      31.93472       5416.3236      254.4364       8051.9278      1.203755       0.725529     
   2194900  -4631.7125     -4664.4101      32.697644      7043.2397      260.51491      8048.2145      1.2043104      0.725529     
   2195000  -4632.4368     -4664.5062      32.069388      5233.5425      255.50936      8053.1546      1.2035716      0.85401449   
   2195100  -4632.2912     -4664.6093      32.318049      7261.1384      257.49054      8059.9171      1.2025618      0.85401449   
   2195200  -4631.7046     -4664.351       32.646395      3610.3981      260.1066       8068.3184      1.2013096      0.85401449   
   2195300  -4631.681      -4664.0611      32.380133      1192.1007      257.98518      8078.623       1.1997773      0.85401449   
   2195400  -4632.037      -4664.0341      31.997086      6724.9093      254.93329      8089.6686      1.1981391      0.85401449   
   2195500  -4632.0878     -4665.3124      33.224593      2092.9177      264.71333      8095.0022      1.1973497      0.85401449   
   2195600  -4632.1797     -4663.8149      31.635231      4385.456       252.05025      8092.252       1.1977566      0.85401449   
   2195700  -4631.1365     -4664.0786      32.942132      6593.5545      262.46284      8087.422       1.198472       0.85401449   
   2195800  -4630.9947     -4662.7614      31.766693      6369.7216      253.09767      8087.3519      1.1984823      0.85401449   
   2195900  -4630.9183     -4663.2411      32.322863      3617.3734      257.52889      8091.4476      1.1978757      0.85401449   
   2196000  -4631.0305     -4663.6419      32.611341      3427.5337      259.82731      8098.0861      1.1968937      0.90627585   
   2196100  -4631.1556     -4663.5458      32.39022       5455.5333      258.06554      8098.5948      1.1968185      0.90627585   
   2196200  -4630.6978     -4663.1331      32.435311      4062.529       258.42481      8089.2385      1.1982028      0.90627585   
   2196300  -4629.9593     -4662.9257      32.966452      5301.0989      262.65662      8079.4062      1.199661       0.90627585   
   2196400  -4631.4433     -4663.1557      31.712387      3613.2578      252.66499      8083.4182      1.1990656      0.90627585   
   2196500  -4631.0638     -4664.6081      33.544226      5344.7888      267.25996      8097.532       1.1969756      0.90627585   
   2196600  -4631.1495     -4664.4325      33.282975      5796.6164      265.17847      8112.055       1.1948327      0.90627585   
   2196700  -4631.4669     -4662.89        31.42302       6303.1234      250.35949      8116.9825      1.1941073      0.90627585   
   2196800  -4631.7022     -4664.4085      32.706345      2804.4392      260.58424      8107.3092      1.1955321      0.90627585   
   2196900  -4630.8219     -4663.4006      32.578697      4504.9764      259.56721      8083.6983      1.199024       0.90627585   
   2197000  -4630.6123     -4663.1934      32.581078      5063.389       259.58619      8063.1975      1.2020725      0.7577541    
   2197100  -4629.6926     -4662.5944      32.90184       6550.3397      262.14182      8058.805       1.2027278      0.7577541    
   2197200  -4630.4179     -4663.6684      33.250502      7082.9894      264.91975      8070.3668      1.2010047      0.7577541    
   2197300  -4629.4086     -4662.6639      33.255245      3972.6219      264.95754      8083.0448      1.199121       0.7577541    
   2197400  -4630.1573     -4662.9506      32.79326       5917.2559      261.27672      8091.4151      1.1978805      0.7577541    
   2197500  -4630.1654     -4663.5786      33.413191      3691.2734      266.21596      8094.2491      1.1974611      0.7577541    
   2197600  -4631.3723     -4663.7386      32.366331      7165.5211      257.87521      8086.7018      1.1985787      0.7577541    
   2197700  -4630.3104     -4662.3056      31.995199      7115.2657      254.91826      8078.434       1.1998054      0.7577541    
   2197800  -4630.1048     -4663.6431      33.538354      5005.3514      267.21318      8086.7757      1.1985677      0.7577541    
   2197900  -4631.53       -4663.8541      32.324136      4142.0747      257.53903      8107.3235      1.19553        0.7577541    
   2198000  -4632.3885     -4664.6548      32.266232      5857.4197      257.07769      8124.4785      1.1930056      0.75954282   
   2198100  -4633.7244     -4664.9922      31.267782      3613.1371      249.12264      8120.0889      1.1936505      0.75954282   
   2198200  -4632.2227     -4664.427       32.204288      6214.7897      256.58415      8094.2293      1.197464       0.75954282   
   2198300  -4631.9829     -4664.4909      32.50799       4934.9455      259.00387      8067.1402      1.2014851      0.75954282   
   2198400  -4632.3251     -4664.9317      32.606622      7531.1563      259.78971      8043.0981      1.2050765      0.75954282   
   2198500  -4631.2283     -4663.23        32.001701      9630.3167      254.97007      8026.7309      1.2075337      0.75954282   
   2198600  -4631.2121     -4663.7631      32.550954      4163.0346      259.34618      8022.0481      1.2082386      0.75954282   
   2198700  -4630.2438     -4663.9446      33.700746      3678.7422      268.50702      8024.2965      1.2079001      0.75954282   
   2198800  -4629.9105     -4662.6709      32.76031       7163.2627      261.0142       8039.713       1.2055839      0.75954282   
   2198900  -4630.0778     -4663.3886      33.310815      2259.178       265.40029      8070.6124      1.2009681      0.75954282   
   2199000  -4631.501      -4663.4956      31.994584      4126.2188      254.91336      8111.0222      1.1949848      0.68341602   
   2199100  -4631.7783     -4665.617       33.838667      4053.372       269.60589      8147.5056      1.1896338      0.68341602   
   2199200  -4632.5334     -4664.4683      31.934963      2017.9664      254.43833      8162.2083      1.1874909      0.68341602   
   2199300  -4630.727      -4664.8766      34.149595      5706.5183      272.08318      8149.3845      1.1893596      0.68341602   
   2199400  -4630.0447     -4663.5793      33.534591      4478.407       267.1832       8121.5042      1.1934425      0.68341602   
   2199500  -4630.7656     -4664.3176      33.552013      7350.7417      267.32201      8098.3086      1.1968608      0.68341602   
   2199600  -4630.5384     -4664.0563      33.517818      7277.3499      267.04956      8086.0984      1.1986681      0.68341602   
   2199700  -4630.4356     -4663.5169      33.081231      4847.857       263.57111      8078.1555      1.1998467      0.68341602   
   2199800  -4628.8733     -4662.571       33.697734      2354.6159      268.48302      8069.0987      1.2011934      0.68341602   
   2199900  -4630.3216     -4662.8373      32.515685      5041.573       259.06518      8061.2528      1.2023625      0.68341602   
   2200000  -4629.7397     -4663.2694      33.529744      8777.6165      267.14458      8056.8859      1.2030142      0.66929292   
   2200100  -4629.2842     -4663.2899      34.00572       5079.2294      270.93686      8062.9512      1.2021093      0.66929292   
   2200200  -4630.4976     -4662.3662      31.868539      3856.5503      253.90911      8075.558       1.2002327      0.66929292   
   2200300  -4631.0819     -4663.3575      32.275552      3583.7408      257.15194      8090.6961      1.197987       0.66929292   
   2200344  -4630.4587     -4662.6006      32.141924      3413.9551      256.08727      8095.7251      1.1972428      0.66929292   
Loop time of 6852.43 on 1 procs for 2000000 steps with 972 atoms

Performance: 12.609 ns/day, 1.903 hours/ns, 291.867 timesteps/s, 283.695 katom-step/s
99.8% CPU use with 1 MPI tasks x 1 OpenMP threads

MPI task timing breakdown:
Section |  min time  |  avg time  |  max time  |%varavg| %total
---------------------------------------------------------------
Pair    | 4832.9     | 4832.9     | 4832.9     |   0.0 | 70.53
Neigh   | 67.192     | 67.192     | 67.192     |   0.0 |  0.98
Comm    | 91.242     | 91.242     | 91.242     |   0.0 |  1.33
Output  | 4.6424     | 4.6424     | 4.6424     |   0.0 |  0.07
Modify  | 1809.2     | 1809.2     | 1809.2     |   0.0 | 26.40
Other   |            | 47.19      |            |       |  0.69

Nlocal:            972 ave         972 max         972 min
Histogram: 1 0 0 0 0 0 0 0 0 0
Nghost:           3403 ave        3403 max        3403 min
Histogram: 1 0 0 0 0 0 0 0 0 0
Neighs:              0 ave           0 max           0 min
Histogram: 1 0 0 0 0 0 0 0 0 0
FullNghs:       131392 ave      131392 max      131392 min
Histogram: 1 0 0 0 0 0 0 0 0 0

Total # of neighbors = 131392
Ave neighs/atom = 135.17695
Neighbor list builds = 196531
Dangerous builds = 179191
Total wall time: 2:05:41
