LAMMPS (27 Jun 2024)
KOKKOS mode with Kokkos version 4.3.1 is enabled (src/KOKKOS/kokkos.cpp:72)
  will use up to 1 GPU(s) per node
WARNING: When using a single thread, the Kokkos Serial backend (i.e. Makefile.kokkos_mpi_only) gives better performance than the OpenMP backend (src/KOKKOS/kokkos.cpp:202)
  using 1 OpenMP thread(s) per MPI task
package kokkos
package kokkos newton on neigh half

units		metal						## E in [eV], t in [ps], P in [10000 Pa], l in [A]
atom_style	atomic						## mass x y z vx vy vz

neighbor	0.5 bin						## neighbor list, skin = 0.5 Angstrom
neigh_modify	every 2 delay 10 check yes			## update of neighbor list

############################## main variables
variable        seed equal 67537

variable	temperature equal 415
variable	tempDamp equal 0.1

variable        pressure equal 28000
variable        pressureDamp equal 1.0 				# This is 1 ps

##############################

read_data water.dat
Reading data file ...
  orthogonal box = (0 0 0) to (19.665067 19.665067 19.640133)
  1 by 1 by 1 MPI processor grid
  reading atoms ...
  1296 atoms
  read_data CPU = 0.008 seconds

mass		1 1.008    # H
mass		2 15.9994  # O


pair_style	pace/extrapolation
ACE/AL version: 2023.11.25
pair_coeff	* * /pc2/users/a/acepdw01/work/phase_diagram/pot_dir/interim_potential_ladder_step_1.yaml /pc2/users/a/acepdw01/work/phase_diagram/pot_dir/interim_potential_ladder_step_1.asi H O
Loading /pc2/users/a/acepdw01/work/phase_diagram/pot_dir/interim_potential_ladder_step_1.yaml
Total number of basis functions
	H: 23 (r=1) 664 (r>1)
	O: 23 (r=1) 664 (r>1)
Mapping LAMMPS atom type #1(H) -> ACE species type #0
Mapping LAMMPS atom type #2(O) -> ACE species type #1
Loading ASI /pc2/users/a/acepdw01/work/phase_diagram/pot_dir/interim_potential_ladder_step_1.asi
LINEAR ASI is loaded

fix pace_gamma all pair 1000 pace/extrapolation gamma 1
compute max_pace_gamma all reduce max f_pace_gamma
variable dump_skip equal "c_max_pace_gamma < 10"

dump pace_dump all custom 1000 extrapolative_structures.dump id type x y z f_pace_gamma
dump_modify pace_dump skip v_dump_skip
dump_modify pace_dump element H O

variable max_pace_gamma equal c_max_pace_gamma

timestep	0.0005						## timestep = 0.0005*ps = 0.5 fs

thermo		100
thermo_style custom step etotal pe ke press temp vol density c_max_pace_gamma


min_style cg
minimize 0.0 5.0e-4 10000 100000

CITE-CITE-CITE-CITE-CITE-CITE-CITE-CITE-CITE-CITE-CITE-CITE-CITE

Your simulation uses code contributions which should be cited:

- Type Label Framework: https://doi.org/10.1021/acs.jpcb.3c08419

@Article{Gissinger24,
 author = {Jacob R. Gissinger, Ilia Nikiforov, Yaser Afshar, Brendon Waters, Moon-ki Choi, Daniel S. Karls, Alexander Stukowski, Wonpil Im, Hendrik Heinz, Axel Kohlmeyer, and Ellad B. Tadmor},
 title = {Type Label Framework for Bonded Force Fields in LAMMPS},
 journal = {J. Phys. Chem. B},
 year =    2024,
 volume =  128,
 number =  13,
 pages =   {3282–-3297}
}

CITE-CITE-CITE-CITE-CITE-CITE-CITE-CITE-CITE-CITE-CITE-CITE-CITE

Switching to 'neigh_modify every 1 delay 0 check yes' setting during minimization
Neighbor list info ...
  update: every = 1 steps, delay = 0 steps, check = yes
  max neighbors/atom: 2000, page size: 100000
  master list distance cutoff = 6.5
  ghost atom cutoff = 6.5
  binsize = 6.5, bins = 4 4 4
  1 neighbor lists, perpetual/occasional/extra = 1 0 0
  (1) pair pace/extrapolation/kk, perpetual
      attributes: full, newton on, kokkos_device
      pair build: full/bin/kk/device
      stencil: full/bin/3d
      bin: kk/device
WARNING: Fix with atom-based arrays not compatible with sending data in Kokkos communication, switching to classic exchange/border communication (src/KOKKOS/comm_kokkos.cpp:754)
WARNING: Fix with atom-based arrays not compatible with Kokkos sorting on device, switching to classic host sorting (src/KOKKOS/atom_kokkos.cpp:216)
Per MPI rank memory allocation (min/avg/max) = 1123 | 1123 | 1123 Mbytes
   Step         TotEng         PotEng         KinEng         Press           Temp          Volume        Density     c_max_pace_gamma
         0  -6250.4972     -6250.4972      0              21939.986      0              7595.1311      1.7015372      0.62320148   
        33  -6250.6452     -6250.6452      0              22350.057      0              7595.1311      1.7015372      0.62320148   
Loop time of 0.258588 on 1 procs for 33 steps with 1296 atoms

99.7% CPU use with 1 MPI tasks x 1 OpenMP threads

Minimization stats:
  Stopping criterion = force tolerance
  Energy initial, next-to-last, final = 
     -6250.49717465847  -6250.64523648355  -6250.64523648875
  Force two-norm initial, final = 0.82052426 0.0003006328
  Force max component initial, final = 0.040662504 1.1270972e-05
  Final line search alpha, max atom move = 1 1.1270972e-05
  Iterations, force evaluations = 33 66

MPI task timing breakdown:
Section |  min time  |  avg time  |  max time  |%varavg| %total
---------------------------------------------------------------
Pair    | 0.23245    | 0.23245    | 0.23245    |   0.0 | 89.89
Neigh   | 0          | 0          | 0          |   0.0 |  0.00
Comm    | 0.0016658  | 0.0016658  | 0.0016658  |   0.0 |  0.64
Output  | 0          | 0          | 0          |   0.0 |  0.00
Modify  | 0.014513   | 0.014513   | 0.014513   |   0.0 |  5.61
Other   |            | 0.009963   |            |       |  3.85

Nlocal:           1296 ave        1296 max        1296 min
Histogram: 1 0 0 0 0 0 0 0 0 0
Nghost:           4514 ave        4514 max        4514 min
Histogram: 1 0 0 0 0 0 0 0 0 0
Neighs:              0 ave           0 max           0 min
Histogram: 1 0 0 0 0 0 0 0 0 0
FullNghs:       251424 ave      251424 max      251424 min
Histogram: 1 0 0 0 0 0 0 0 0 0

Total # of neighbors = 251424
Ave neighs/atom = 194
Neighbor list builds = 0
Dangerous builds = 0

################## equilibration of main calculation

fix             3 all nph aniso ${pressure} ${pressure} ${pressureDamp}
fix             3 all nph aniso 28000 ${pressure} ${pressureDamp}
fix             3 all nph aniso 28000 28000 ${pressureDamp}
fix             3 all nph aniso 28000 28000 1
fix             4 all temp/csvr ${temperature} ${temperature} ${tempDamp} ${seed}
fix             4 all temp/csvr 415 ${temperature} ${tempDamp} ${seed}
fix             4 all temp/csvr 415 415 ${tempDamp} ${seed}
fix             4 all temp/csvr 415 415 0.1 ${seed}
fix             4 all temp/csvr 415 415 0.1 67537
velocity 	all create ${temperature} ${seed} dist gaussian
velocity 	all create 415 ${seed} dist gaussian
velocity 	all create 415 67537 dist gaussian

run 20000
WARNING: Fix with atom-based arrays not compatible with Kokkos sorting on device, switching to classic host sorting (src/KOKKOS/atom_kokkos.cpp:216)
Per MPI rank memory allocation (min/avg/max) = 1123 | 1123 | 1123 Mbytes
   Step         TotEng         PotEng         KinEng         Press           Temp          Volume        Density     c_max_pace_gamma
        33  -6181.1776     -6250.6452      69.467633      32119.421      415            7595.1311      1.7015372      0.62320148   
       100  -6171.3233     -6200.4496      29.126292      38063.838      174.00062      7602.573       1.6998716      0.62320148   
       200  -6158.8276     -6203.1703      44.342691      37607.868      264.90346      7671.5796      1.6845811      0.62320148   
       300  -6151.9644     -6202.9581      50.993726      31199.554      304.63678      7795.9675      1.6577029      0.62320148   
       400  -6143.9607     -6195.6486      51.687905      34306.805      308.78381      7939.2538      1.6277849      0.62320148   
       500  -6141.052      -6198.3997      57.347773      25664.362      342.59589      8065.0536      1.6023945      0.62320148   
       600  -6136.3012     -6193.259       56.957808      25394.018      340.26624      8150.4794      1.5855997      0.62320148   
       700  -6134.1043     -6193.3045      59.200206      23639.851      353.66234      8197.3282      1.5765378      0.62320148   
       800  -6130.8193     -6190.0596      59.240275      27476.385      353.90171      8208.578       1.5743772      0.62320148   
       900  -6127.6054     -6190.7932      63.187807      24363.304      377.48428      8195.0806      1.5769702      0.62320148   
      1000  -6124.4806     -6188.5701      64.08958       24358.89       382.87148      8163.6565      1.5830404      0.92372821   
      1100  -6121.1665     -6187.0281      65.861562      26934.707      393.45731      8125.1724      1.5905383      0.92372821   
      1200  -6116.0964     -6182.797       66.700671      32943.313      398.47015      8092.2298      1.5970132      0.92372821   
      1300  -6116.859      -6184.1311      67.272127      33605.611      401.88404      8078.2856      1.5997699      0.92372821   
      1400  -6116.2189     -6182.7487      66.52984       32013.137      397.44961      8084.9088      1.5984593      0.92372821   
      1500  -6116.1017     -6182.9335      66.831749      31536.704      399.25321      8109.6614      1.5935805      0.92372821   
      1600  -6117.012      -6185.976       68.964039      27454.124      411.99153      8146.9195      1.5862926      0.92372821   
      1700  -6118.0911     -6183.9921      65.900984      25389.952      393.69282      8189.4608      1.5780524      0.92372821   
      1800  -6116.6161     -6183.5754      66.959234      27266.899      400.01481      8229.0281      1.5704647      0.92372821   
      1900  -6117.2976     -6185.995       68.697377      26175.818      410.39848      8258.2956      1.5648989      0.92372821   
      2000  -6113.5041     -6182.5672      69.063129      25714.2        412.58349      8272.4913      1.5622135      0.89011401   
      2100  -6115.3122     -6183.5442      68.232055      27284.659      407.61865      8270.4889      1.5625918      0.89011401   
      2200  -6115.0703     -6184.27        69.199749      27264.892      413.39966      8256.4632      1.5652462      0.89011401   
      2300  -6115.5241     -6185.0818      69.557725      27195.785      415.53821      8234.6103      1.5694001      0.89011401   
      2400  -6111.5613     -6180.1805      68.619215      33046.545      409.93154      8210.4416      1.5740198      0.89011401   
      2500  -6112.6685     -6182.8995      70.23094       27237.664      419.56         8192.8079      1.5774076      0.89011401   
      2600  -6111.1493     -6178.6911      67.541832      31751.578      403.49525      8183.5428      1.5791935      0.89011401   
      2700  -6108.9609     -6180.3782      71.417281      31780.521      426.64721      8187.0059      1.5785255      0.89011401   
      2800  -6113.0722     -6182.7439      69.671686      34400.675      416.21901      8202.8092      1.5754844      0.89011401   
      2900  -6114.639      -6183.2822      68.643181      35020.41       410.07472      8226.8348      1.5708834      0.89011401   
      3000  -6114.0125     -6181.7268      67.714283      31473.878      404.52548      8253.0127      1.5659006      0.89636091   
      3100  -6112.7843     -6182.1602      69.375851      26966.885      414.45169      8272.4325      1.5622246      0.89636091   
      3200  -6114.3579     -6183.1896      68.831769      28652.74       411.20134      8285.9744      1.5596715      0.89636091   
      3300  -6114.4015     -6180.7591      66.357573      28589.384      396.42048      8289.6539      1.5589792      0.89636091   
      3400  -6115.2216     -6182.9624      67.740879      28920.589      404.68436      8285.5875      1.5597443      0.89636091   
      3500  -6113.2829     -6182.3479      69.064995      23941.153      412.59464      8272.1044      1.5622866      0.89636091   
      3600  -6113.9326     -6181.5862      67.653592      27778.209      404.16291      8249.043       1.5666542      0.89636091   
      3700  -6111.9006     -6181.5733      69.672689      29346.147      416.225        8223.6881      1.5714844      0.89636091   
      3800  -6115.3641     -6181.6322      66.268067      31709.256      395.88577      8201.1748      1.5757984      0.89636091   
      3900  -6112.9594     -6183.6311      70.671692      30880.809      422.19305      8185.612       1.5787943      0.89636091   
      4000  -6113.6257     -6183.676       70.050376      29194.677      418.48131      8179.6651      1.5799422      0.85228107   
      4100  -6113.4874     -6180.8422      67.354835      32087.65       402.37813      8186.3126      1.5786592      0.85228107   
      4200  -6114.2394     -6182.4874      68.248025      34825.405      407.71406      8205.8789      1.574895       0.85228107   
      4300  -6113.277      -6184.9571      71.680072      30135.576      428.21712      8233.738       1.5695663      0.85228107   
      4400  -6112.3032     -6180.3217      68.018463      27095.922      406.34265      8267.208       1.5632119      0.85228107   
      4500  -6112.176      -6183.4374      71.261345      23452.811      425.71564      8305.9398      1.5559224      0.85228107   
      4600  -6111.448      -6179.3653      67.917236      24260.175      405.73792      8334.9262      1.5505114      0.85228107   
      4700  -6114.2917     -6182.2347      67.943024      23738.48       405.89198      8351.4759      1.5474388      0.85228107   
      4800  -6114.5245     -6181.3746      66.850096      25658.211      399.36282      8350.1614      1.5476824      0.85228107   
      4900  -6115.4775     -6183.2515      67.773998      25783.29       404.88221      8329.8575      1.5514549      0.85228107   
      5000  -6113.847      -6181.8062      67.959149      28582.177      405.98831      8291.7522      1.5585847      0.88033299   
      5100  -6115.7191     -6182.1299      66.410725      29149.43       396.73801      8241.9585      1.5680008      0.88033299   
      5200  -6113.1636     -6182.2116      69.048035      28163.888      412.49332      8190.947       1.577766       0.88033299   
      5300  -6112.7996     -6181.1332      68.33362       30303.407      408.2254       8149.0146      1.5858847      0.88033299   
      5400  -6112.1855     -6180.1451      67.959616      31821.186      405.99109      8126.9884      1.5901829      0.88033299   
      5500  -6112.7615     -6181.7857      69.02411       34618.757      412.35039      8132.7878      1.589049       0.88033299   
      5600  -6112.8963     -6182.3477      69.451437      34671.914      414.90324      8167.2749      1.582339       0.88033299   
      5700  -6113.1618     -6182.3078      69.145996      30701.865      413.07854      8218.6255      1.5724525      0.88033299   
      5800  -6113.7873     -6180.2098      66.422505      26579.591      396.80838      8275.3637      1.5616713      0.88033299   
      5900  -6113.0943     -6182.5467      69.452385      23865.041      414.9089       8327.811       1.5518361      0.88033299   
      6000  -6114.5532     -6180.8911      66.337948      22534.492      396.30324      8361.6454      1.5455568      0.82121517   
      6100  -6113.9153     -6184.1019      70.18667       25018.632      419.29553      8371.6053      1.543718       0.82121517   
      6200  -6110.9991     -6181.0251      70.025919      27364.142      418.3352       8357.036       1.5464093      0.82121517   
      6300  -6110.3238     -6181.1794      70.855664      30066.373      423.2921       8323.2152      1.552693       0.82121517   
      6400  -6108.5927     -6180.6333      72.040542      27219.44       430.37057      8282.3429      1.5603553      0.82121517   
      6500  -6107.4708     -6178.3887      70.917893      31696.904      423.66386      8241.7425      1.5680419      0.82121517   
      6600  -6107.0672     -6178.4665      71.399327      30620.592      426.53995      8210.9756      1.5739175      0.82121517   
      6700  -6108.3085     -6179.7908      71.482327      29238.969      427.03579      8197.6914      1.576468       0.82121517   
      6800  -6107.9778     -6179.5942      71.616345      29970.13       427.83642      8203.1862      1.575412       0.82121517   
      6900  -6108.0201     -6179.8855      71.865439      30314.165      429.3245       8222.7246      1.5716686      0.82121517   
      7000  -6109.8344     -6178.8174      68.983061      29721.283      412.10516      8254.3785      1.5656415      0.9135247    
      7100  -6111.2432     -6180.9206      69.677435      25688.65       416.25336      8290.0751      1.5589         0.9135247    
      7200  -6110.501      -6180.5037      70.002656      26319.192      418.19623      8320.4723      1.5532048      0.9135247    
      7300  -6112.416      -6181.1534      68.737386      28054.928      410.6375       8341.0158      1.5493794      0.9135247    
      7400  -6114.2198     -6182.0591      67.83933       28414.265      405.27251      8347.0064      1.5482674      0.9135247    
      7500  -6113.6306     -6181.2669      67.636351      27474.249      404.05991      8334.7391      1.5505462      0.9135247    
      7600  -6111.9112     -6183.2624      71.351188      24805.336      426.25237      8308.4024      1.5554612      0.9135247    
      7700  -6111.6965     -6182.8597      71.163245      26574.478      425.12959      8273.5866      1.5620067      0.9135247    
      7800  -6109.1551     -6179.0118      69.856659      29195.064      417.32404      8237.6722      1.5688167      0.9135247    
      7900  -6111.9606     -6180.0989      68.138324      30285.067      407.0587       8210.6871      1.5739728      0.9135247    
      8000  -6111.2868     -6181.1686      69.881745      29673.14       417.47391      8194.7518      1.5770335      0.80635384   
      8100  -6113.4849     -6182.4046      68.919689      30113.477      411.72658      8192.1255      1.5775391      0.80635384   
      8200  -6114.3003     -6183.0431      68.742794      36411.998      410.6698       8202.2109      1.5755993      0.80635384   
      8300  -6114.4938     -6186.8526      72.358801      28306.343      432.27185      8221.3882      1.5719241      0.80635384   
      8400  -6112.7175     -6183.0631      70.345598      30220.596      420.24497      8244.0299      1.5676069      0.80635384   
      8500  -6116.6309     -6183.5789      66.94807       25509.363      399.94812      8269.4463      1.5627888      0.80635384   
      8600  -6116.6066     -6183.8075      67.200972      24822.342      401.45895      8288.8819      1.5591244      0.80635384   
      8700  -6114.921      -6181.5491      66.628163      28308.246      398.03699      8299.0398      1.557216       0.80635384   
      8800  -6115.8447     -6182.7008      66.856059      34015.432      399.39844      8300.1301      1.5570115      0.80635384   
      8900  -6115.0071     -6182.0659      67.05875       30977.48       400.60932      8291.5276      1.5586269      0.80635384   
      9000  -6115.0997     -6184.0654      68.965671      25936.071      412.00127      8274.6913      1.5617982      0.85313283   
      9100  -6114.7096     -6181.4282      66.718601      25878.429      398.57727      8253.0591      1.5658918      0.85313283   
      9200  -6115.6331     -6183.0727      67.439662      26137.91       402.88489      8229.5032      1.570374       0.85313283   
      9300  -6114.7018     -6181.7113      67.009463      27513.177      400.31488      8210.7699      1.5739569      0.85313283   
      9400  -6111.8073     -6180.1713      68.364038      29469.752      408.40711      8201.2334      1.5757871      0.85313283   
      9500  -6112.5227     -6180.9381      68.415425      28537.921      408.7141       8204.5859      1.5751432      0.85313283   
      9600  -6112.0937     -6180.6479      68.554285      28553.05       409.54365      8219.9085      1.572207       0.85313283   
      9700  -6111.9344     -6181.1703      69.235968      29469.257      413.61603      8243.8801      1.5676353      0.85313283   
      9800  -6112.7479     -6183.0683      70.320362      27440.498      420.0942       8271.6052      1.5623809      0.85313283   
      9900  -6111.9546     -6179.9827      68.028125      24800.074      406.40037      8298.6458      1.55729        0.85313283   
     10000  -6115.062      -6183.7686      68.706589      25611.031      410.45351      8322.0166      1.5529166      0.8539797    
     10100  -6111.0659     -6181.4139      70.348024      25277.96       420.25945      8332.7313      1.5509198      0.8539797    
     10200  -6112.7067     -6181.4016      68.694936      23777.96       410.3839       8329.7812      1.5514691      0.8539797    
     10300  -6111.3764     -6179.8299      68.453539      24629.386      408.94179      8315.4748      1.5541383      0.8539797    
     10400  -6108.9937     -6180.75        71.756341      25985.353      428.67275      8292.4239      1.5584584      0.8539797    
     10500  -6108.9758     -6178.9547      69.978967      25957.724      418.05471      8266.5779      1.5633311      0.8539797    
     10600  -6110.4842     -6180.708       70.223795      22115.522      419.51731      8243.4258      1.5677217      0.8539797    
     10700  -6112.2148     -6181.5302      69.315411      26623.158      414.09062      8224.871       1.5712584      0.8539797    
     10800  -6112.2525     -6182.2683      70.015865      27410.065      418.27514      8214.6666      1.5732103      0.8539797    
     10900  -6112.8223     -6180.6447      67.822465      23671.926      405.17176      8214.7273      1.5731986      0.8539797    
     11000  -6114.7477     -6182.0131      67.265395      26106.445      401.84381      8225.5956      1.57112        0.90877445   
     11100  -6114.4358     -6182.371       67.935134      27424.731      405.84484      8242.4352      1.5679102      0.90877445   
     11200  -6114.6558     -6182.532       67.876174      29854.699      405.49261      8264.248       1.5637718      0.90877445   
     11300  -6115.6436     -6183.1611      67.51749       30033.97       403.34983      8285.6807      1.5597267      0.90877445   
     11400  -6117.1022     -6186.1671      69.06481       30326.315      412.59353      8300.7599      1.5568934      0.90877445   
     11500  -6115.7775     -6185.4163      69.638747      23227.946      416.02223      8303.3191      1.5564135      0.90877445   
     11600  -6111.1336     -6180.9628      69.829136      28196.967      417.15962      8298.151       1.5573828      0.90877445   
     11700  -6111.2722     -6180.0556      68.783426      30239.807      410.91254      8291.444       1.5586426      0.90877445   
     11800  -6111.0795     -6180.137       69.057493      29339.49       412.54982      8283.3921      1.5601577      0.90877445   
     11900  -6107.7811     -6178.8764      71.095286      28893.938      424.7236       8275.5472      1.5616367      0.90877445   
     12000  -6109.34       -6179.2497      69.909669      33970.641      417.64072      8272.5341      1.5622055      0.88139954   
     12100  -6109.8798     -6181.1092      71.22939       30200.909      425.52474      8274.757       1.5617858      0.88139954   
     12200  -6111.006      -6181.0161      70.010031      25794.277      418.24029      8278.5071      1.5610783      0.88139954   
     12300  -6111.2398     -6179.9406      68.700812      22756.824      410.41901      8287.022       1.5594743      0.88139954   
     12400  -6112.6827     -6181.862       69.179275      24152.219      413.27734      8296.6824      1.5576585      0.88139954   
     12500  -6111.7352     -6180.9079      69.172758      28794.898      413.23841      8302.6162      1.5565453      0.88139954   
     12600  -6111.8335     -6182.0097      70.176172      26447.098      419.23281      8304.8631      1.5561241      0.88139954   
     12700  -6112.6204     -6181.0004      68.379989      22213.842      408.5024       8302.4085      1.5565842      0.88139954   
     12800  -6112.0432     -6182.3366      70.293409      24671.082      419.93319      8295.1678      1.5579429      0.88139954   
     12900  -6111.688      -6181.1528      69.46483       27725.261      414.98325      8284.2619      1.5599939      0.88139954   
     13000  -6113.2894     -6182.3581      69.068672      28210.444      412.6166       8271.7674      1.5623503      0.8281655    
     13100  -6110.651      -6180.8979      70.246891      33211.286      419.65529      8258.8343      1.5647969      0.8281655    
     13200  -6108.8273     -6180.4931      71.665803      33428.883      428.13187      8248.8279      1.5666951      0.8281655    
     13300  -6109.4266     -6180.6874      71.260815      35033.603      425.71248      8247.7403      1.5669016      0.8281655    
     13400  -6110.5224     -6182.5503      72.027855      29512.66       430.29478      8256.8689      1.5651693      0.8281655    
     13500  -6111.3896     -6182.2812      70.891556      27824.138      423.50652      8269.4217      1.5627934      0.8281655    
     13600  -6110.6729     -6182.3786      71.705686      25733.718      428.37014      8279.5276      1.5608859      0.8281655    
     13700  -6109.5078     -6180.4961      70.988225      28656.405      424.08402      8287.9391      1.5593017      0.8281655    
     13800  -6110.0455     -6180.0576      70.012097      25599.916      418.25263      8294.79        1.5580139      0.8281655    
     13900  -6109.691      -6181.063       71.371908      23569.641      426.37614      8299.2143      1.5571833      0.8281655    
     14000  -6110.3656     -6179.7725      69.406843      25213.057      414.63684      8298.175       1.5573783      0.7702288    
     14100  -6107.7455     -6177.6459      69.900421      28819.885      417.58548      8289.8547      1.5589414      0.7702288    
     14200  -6111.6333     -6182.3177      70.684439      27748.959      422.2692       8279.0604      1.560974       0.7702288    
     14300  -6110.6191     -6181.6857      71.066621      29563.01       424.55236      8266.6342      1.5633204      0.7702288    
     14400  -6112.5908     -6183.8442      71.253422      27172.043      425.66831      8253.9777      1.5657176      0.7702288    
     14500  -6114.678      -6182.6876      68.009631      25667.614      406.28989      8242.4985      1.5678981      0.7702288    
     14600  -6117.6415     -6182.5581      64.916634      29056.964      387.81231      8231.5024      1.5699926      0.7702288    
     14700  -6116.0553     -6182.5216      66.466297      33273.09       397.07         8220.1038      1.5721697      0.7702288    
     14800  -6113.6145     -6182.1768      68.562373      30923.502      409.59197      8210.6472      1.5739804      0.7702288    
     14900  -6114.615      -6182.2033      67.58834       30212.789      403.77309      8208.3123      1.5744281      0.7702288    
     15000  -6114.2334     -6184.2619      70.028504      28094.142      418.35064      8213.8812      1.5733607      0.9122705    
     15100  -6115.6983     -6183.0801      67.381816      26505.975      402.53932      8222.2135      1.5717663      0.9122705    
     15200  -6113.9271     -6182.2944      68.367289      30016.59       408.42653      8234.3191      1.5694556      0.9122705    
     15300  -6114.8649     -6182.5288      67.663857      29280.134      404.22423      8249.1156      1.5666404      0.9122705    
     15400  -6112.9291     -6180.3036      67.37457       26713.367      402.49603      8261.0432      1.5643784      0.9122705    
     15500  -6111.4874     -6182.8248      71.33744       29249.468      426.17023      8271.0585      1.5624842      0.9122705    
     15600  -6112.4922     -6183.0169      70.524675      26645.389      421.31477      8280.1029      1.5607774      0.9122705    
     15700  -6110.4625     -6181.0497      70.587161      26192.768      421.68806      8285.148       1.559827       0.9122705    
     15800  -6109.8026     -6179.6466      69.844043      26088.789      417.24868      8284.6496      1.5599209      0.9122705    
     15900  -6108.4092     -6180.2123      71.80311       24052.925      428.95215      8282.4693      1.5603315      0.9122705    
     16000  -6109.1325     -6180.4371      71.304548      24535.768      425.97374      8280.1278      1.5607728      0.85981886   
     16100  -6110.9257     -6181.6101      70.68435       24097.823      422.26867      8277.1616      1.5613321      0.85981886   
     16200  -6109.9143     -6180.0269      70.112678      28315.318      418.8535       8270.8594      1.5625218      0.85981886   
     16300  -6110.0502     -6178.5352      68.48504       25154.791      409.12998      8264.4391      1.5637356      0.85981886   
     16400  -6110.893      -6183.19        72.297003      24111.214      431.90267      8261.0837      1.5643708      0.85981886   
     16500  -6112.5601     -6180.9515      68.39147       24215.897      408.571        8254.8404      1.5655539      0.85981886   
     16600  -6111.4578     -6179.8482      68.390348      28116.35       408.56429      8248.7037      1.5667187      0.85981886   
     16700  -6112.7894     -6179.1573      66.367837      31923.484      396.4818       8248.1543      1.566823       0.85981886   
     16800  -6112.9956     -6180.0937      67.098134      28647.879      400.8446       8251.9274      1.5661066      0.85981886   
     16900  -6111.3915     -6183.0316      71.640039      29346.521      427.97796      8257.7238      1.5650073      0.85981886   
     17000  -6113.8651     -6181.1411      67.27595       28527.391      401.90687      8261.506       1.5642908      0.79536288   
     17100  -6113.9517     -6182.8126      68.860952      31049.538      411.37568      8259.3561      1.564698       0.79536288   
     17200  -6110.603      -6179.9081      69.30513       27876.47       414.0292       8251.6866      1.5661523      0.79536288   
     17300  -6108.3157     -6177.4002      69.084509      30146.431      412.71121      8243.986       1.5676152      0.79536288   
     17400  -6109.6066     -6180.2967      70.690105      29527.184      422.30305      8243.2656      1.5677522      0.79536288   
     17500  -6111.5306     -6182.1917      70.661114      26420.242      422.12986      8248.5022      1.5667569      0.79536288   
     17600  -6108.2651     -6179.6233      71.358219      28878.099      426.29437      8255.0824      1.565508       0.79536288   
     17700  -6108.6895     -6178.7943      70.10474       35156.088      418.80608      8266.1869      1.563405       0.79536288   
     17800  -6111.1979     -6182.3074      71.109467      31618.674      424.80832      8279.9255      1.5608109      0.79536288   
     17900  -6110.7388     -6178.6336      67.894747      29723.702      405.60357      8293.0696      1.5583371      0.79536288   
     18000  -6110.432      -6183.4814      73.049394      27988.938      436.39746      8308.8863      1.5553707      0.82717131   
     18100  -6108.4951     -6180.9195      72.424378      30464.958      432.66361      8320.7076      1.5531609      0.82717131   
     18200  -6111.4003     -6180.3094      68.909064      26866.681      411.6631       8330.7378      1.5512909      0.82717131   
     18300  -6107.9942     -6180.2729      72.27876       25000.575      431.79368      8330.9039      1.55126        0.82717131   
     18400  -6110.91       -6178.416       67.505977      22839.841      403.28106      8323.7628      1.5525908      0.82717131   
     18500  -6110.3582     -6179.7894      69.431149      20600.969      414.78204      8311.0793      1.5549602      0.82717131   
     18600  -6110.3621     -6180.229       69.866918      26671.31       417.38533      8291.2165      1.5586854      0.82717131   
     18700  -6113.2591     -6181.0349      67.775793      26613.913      404.89294      8269.8616      1.5627103      0.82717131   
     18800  -6112.0006     -6182.6101      70.609457      27202.706      421.82126      8249.5577      1.5665565      0.82717131   
     18900  -6113.1573     -6184.1772      71.019926      30059.25       424.2734       8232.5815      1.5697868      0.82717131   
     19000  -6111.408      -6182.4012      70.993225      29537.793      424.11389      8220.6838      1.5720588      0.82428497   
     19100  -6113.8413     -6181.4099      67.568532      27375.546      403.65476      8218.429       1.5724901      0.82428497   
     19200  -6112.1578     -6182.4657      70.307872      29909.241      420.01959      8226.802       1.5708896      0.82428497   
     19300  -6110.6478     -6181.0366      70.388851      28736.938      420.50336      8243.0232      1.5677983      0.82428497   
     19400  -6113.0519     -6181.6209      68.569013      26877.442      409.63164      8266.9565      1.5632595      0.82428497   
     19500  -6114.7528     -6183.4198      68.667004      27523.99       410.21703      8289.3935      1.5590282      0.82428497   
     19600  -6114.8319     -6184.6214      69.789505      25646.568      416.92286      8299.8275      1.5570683      0.82428497   
     19700  -6116.9751     -6181.1062      64.131079      24494.563      383.1194       8298.2628      1.5573619      0.82428497   
     19800  -6118.7328     -6185.8124      67.079558      24838.54       400.73362      8282.9433      1.5602422      0.82428497   
     19900  -6115.2611     -6182.9146      67.653468      26988.448      404.16217      8250.2091      1.5664328      0.82428497   
     20000  -6116.6958     -6184.2336      67.537811      25347.461      403.47123      8209.2282      1.5742525      0.79728182   
     20033  -6117.1985     -6182.7839      65.585417      29790.878      391.80762      8195.9005      1.5768124      0.79728182   
Loop time of 85.6889 on 1 procs for 20000 steps with 1296 atoms

Performance: 10.083 ns/day, 2.380 hours/ns, 233.403 timesteps/s, 302.490 katom-step/s
99.8% CPU use with 1 MPI tasks x 1 OpenMP threads

MPI task timing breakdown:
Section |  min time  |  avg time  |  max time  |%varavg| %total
---------------------------------------------------------------
Pair    | 65.614     | 65.614     | 65.614     |   0.0 | 76.57
Neigh   | 0.86361    | 0.86361    | 0.86361    |   0.0 |  1.01
Comm    | 0.85654    | 0.85654    | 0.85654    |   0.0 |  1.00
Output  | 0.025353   | 0.025353   | 0.025353   |   0.0 |  0.03
Modify  | 17.885     | 17.885     | 17.885     |   0.0 | 20.87
Other   |            | 0.4441     |            |       |  0.52

Nlocal:           1296 ave        1296 max        1296 min
Histogram: 1 0 0 0 0 0 0 0 0 0
Nghost:           4465 ave        4465 max        4465 min
Histogram: 1 0 0 0 0 0 0 0 0 0
Neighs:              0 ave           0 max           0 min
Histogram: 1 0 0 0 0 0 0 0 0 0
FullNghs:       234746 ave      234746 max      234746 min
Histogram: 1 0 0 0 0 0 0 0 0 0

Total # of neighbors = 234746
Ave neighs/atom = 181.13117
Neighbor list builds = 1998
Dangerous builds = 1992

unfix 3
unfix 4

################## main calculation

dump 		3 all custom 1000 traj.lammpstrj id type element x y z
dump_modify     3 element H O

fix             3 all nph aniso ${pressure} ${pressure} ${pressureDamp}
fix             3 all nph aniso 28000 ${pressure} ${pressureDamp}
fix             3 all nph aniso 28000 28000 ${pressureDamp}
fix             3 all nph aniso 28000 28000 1
fix             4 all temp/csvr ${temperature} ${temperature} ${tempDamp} ${seed}
fix             4 all temp/csvr 415 ${temperature} ${tempDamp} ${seed}
fix             4 all temp/csvr 415 415 ${tempDamp} ${seed}
fix             4 all temp/csvr 415 415 0.1 ${seed}
fix             4 all temp/csvr 415 415 0.1 67537
velocity 	all create ${temperature} ${seed} dist gaussian
velocity 	all create 415 ${seed} dist gaussian
velocity 	all create 415 67537 dist gaussian

run             2000000
WARNING: Fix with atom-based arrays not compatible with Kokkos sorting on device, switching to classic host sorting (src/KOKKOS/atom_kokkos.cpp:216)
Per MPI rank memory allocation (min/avg/max) = 1140 | 1140 | 1140 Mbytes
   Step         TotEng         PotEng         KinEng         Press           Temp          Volume        Density     c_max_pace_gamma
     20033  -6113.3163     -6182.7839      69.467633      30296.822      415            8195.9005      1.5768124      0.79728182   
     20100  -6113.9439     -6182.1743      68.230437      26384.033      407.60898      8198.1661      1.5763767      0.79728182   
     20200  -6114.1695     -6181.9262      67.75668       28015.286      404.77876      8209.1923      1.5742594      0.79728182   
     20300  -6115.3136     -6183.7173      68.4037        29211.587      408.64405      8223.5778      1.5715055      0.79728182   
     20400  -6112.7727     -6180.6613      67.88858       27825.908      405.56673      8239.3866      1.5684903      0.79728182   
     20500  -6114.9083     -6183.4815      68.573158      26940.668      409.6564       8260.5492      1.564472       0.79728182   
     20600  -6114.6329     -6181.8168      67.183866      27873.1        401.35676      8278.8784      1.5610083      0.79728182   
     20700  -6116.7689     -6185.3558      68.586959      29280.238      409.73885      8292.3595      1.5584705      0.79728182   
     20800  -6117.0416     -6184.891       67.849378      29447.984      405.33254      8294.7707      1.5580175      0.79728182   
     20900  -6116.9572     -6183.328       66.370751      28002.36       396.49921      8285.2295      1.5598117      0.79728182   
     21000  -6116.253      -6183.0079      66.754925      25002.634      398.79427      8268.6185      1.5629452      0.81444458   
     21100  -6114.7116     -6182.5562      67.844555      27933.606      405.30372      8246.9197      1.5670576      0.81444458   
     21200  -6111.0254     -6182.3888      71.36331       33161.284      426.32478      8226.6858      1.5709118      0.81444458   
     21300  -6112.8407     -6181.6735      68.832759      27172.386      411.20726      8213.6399      1.5734069      0.81444458   
     21400  -6112.7754     -6181.6839      68.90859       32125.412      411.66027      8210.2518      1.5740562      0.81444458   
     21500  -6113.5199     -6181.7947      68.274724      31742.049      407.87356      8213.9964      1.5733386      0.81444458   
     21600  -6113.9287     -6179.336       65.407348      29408.164      390.74383      8226.4785      1.5709514      0.81444458   
     21700  -6115.1278     -6183.3141      68.186256      26907.737      407.34505      8249.8768      1.5664959      0.81444458   
     21800  -6113.857      -6183.9297      70.072737      28560.484      418.61489      8276.5936      1.5614392      0.81444458   
     21900  -6115.214      -6183.0981      67.884139      26825.016      405.54019      8298.9205      1.5572384      0.81444458   
     22000  -6111.5817     -6179.8163      68.234558      27164.488      407.6336       8310.0336      1.5551559      0.75796311   
     22100  -6114.0921     -6184.8292      70.73708       23374.414      422.58368      8311.6493      1.5548536      0.75796311   
     22200  -6113.8765     -6182.9625      69.086004      28904.387      412.72014      8299.0684      1.5572107      0.75796311   
     22300  -6114.4953     -6182.3749      67.879642      28361.781      405.51333      8279.4072      1.5609086      0.75796311   
     22400  -6110.6646     -6179.0164      68.351834      30789.553      408.33421      8256.3521      1.5652673      0.75796311   
     22500  -6112.0033     -6183.4664      71.463114      29974.253      426.92101      8235.6611      1.5691998      0.75796311   
     22600  -6110.7583     -6180.0173      69.259068      30440.014      413.75403      8218.3827      1.5724989      0.75796311   
     22700  -6107.8221     -6178.9151      71.092997      28159.985      424.70993      8215.6657      1.573019       0.75796311   
     22800  -6112.112      -6180.9309      68.818901      30892.721      411.12447      8232.0335      1.5698913      0.75796311   
     22900  -6113.9887     -6181.9532      67.96453       32419.868      406.02045      8259.1326      1.5647403      0.75796311   
     23000  -6113.9737     -6183.5815      69.607717      30996.811      415.83686      8288.0851      1.5592743      0.8555911    
     23100  -6112.1719     -6180.618       68.446081      27529.492      408.89724      8314.1962      1.5543773      0.8555911    
     23200  -6114.5516     -6183.365       68.81346       23570.802      411.09196      8334.9226      1.5505121      0.8555911    
     23300  -6114.4822     -6182.4407      67.958488      19675.354      405.98435      8341.4156      1.5493051      0.8555911    
     23400  -6115.0153     -6182.3306      67.315273      24259.255      402.14179      8333.6568      1.5507475      0.8555911    
     23500  -6113.0912     -6182.6886      69.597384      27320.465      415.77513      8314.1208      1.5543914      0.8555911    
     23600  -6113.4245     -6182.578       69.153534      30435.285      413.12357      8286.4308      1.5595856      0.8555911    
     23700  -6111.6796     -6180.1736      68.494071      30464.131      409.18393      8252.0675      1.56608        0.8555911    
     23800  -6114.4861     -6181.8719      67.385835      26037.686      402.56333      8222.9841      1.571619       0.8555911    
     23900  -6112.2843     -6182.0052      69.720906      28493.457      416.51305      8203.691       1.575315       0.8555911    
     24000  -6112.7472     -6178.7441      65.996946      30150.367      394.26609      8198.9803      1.5762201      0.84657657   
     24100  -6113.2714     -6182.2326      68.961171      26747.665      411.97439      8209.786       1.5741455      0.84657657   
     24200  -6114.2225     -6184.5245      70.30202       26280.466      419.98463      8230.8963      1.5701082      0.84657657   
     24300  -6112.7014     -6183.1586      70.457273      27381.702      420.91211      8255.4922      1.5654303      0.84657657   
     24400  -6112.2707     -6180.404       68.133236      28088.77       407.0283       8284.7885      1.5598947      0.84657657   
     24500  -6111.9517     -6181.2618      69.310094      29046.582      414.05886      8315.8554      1.5540672      0.84657657   
     24600  -6111.3295     -6183.7124      72.38293       26194.279      432.416        8342.6305      1.5490795      0.84657657   
     24700  -6114.3635     -6181.7209      67.357363      27737.062      402.39323      8354.9777      1.5467902      0.84657657   
     24800  -6114.9793     -6183.0366      68.057269      25640.575      406.57447      8349.6478      1.5477776      0.84657657   
     24900  -6115.7349     -6183.5574      67.822526      24108.802      405.17212      8325.8742      1.5521971      0.84657657   
     25000  -6114.3396     -6182.737       68.397332      28140.651      408.60601      8288.8523      1.5591299      0.8475102    
     25100  -6115.9916     -6182.2689      66.277216      31206.231      395.94043      8245.7577      1.5672784      0.8475102    
     25200  -6113.4368     -6181.4105      67.973685      28127.526      406.07514      8205.85        1.5749006      0.8475102    
     25300  -6113.3879     -6182.9024      69.514527      29007.399      415.28015      8177.8532      1.5802922      0.8475102    
     25400  -6112.7283     -6182.2056      69.477268      31826.357      415.05755      8163.302       1.5831091      0.8475102    
     25500  -6113.3854     -6182.3137      68.928309      33599.662      411.77808      8166.9671      1.5823987      0.8475102    
     25600  -6113.1321     -6181.897       68.764918      30016.45       410.80197      8187.3821      1.578453       0.8475102    
     25700  -6112.9158     -6182.4629      69.547093      29872.346      415.47469      8221.0867      1.5719817      0.8475102    
     25800  -6113.6463     -6184.1356      70.489234      27688.623      421.10305      8258.9872      1.5647679      0.8475102    
     25900  -6112.6794     -6181.0336      68.354274      24797.634      408.34879      8292.7657      1.5583942      0.8475102    
     26000  -6114.116      -6183.9674      69.851421      26706.523      417.29275      8317.1577      1.5538238      0.83807045   
     26100  -6113.6966     -6182.9039      69.207326      25617.604      413.44492      8327.9714      1.5518062      0.83807045   
     26200  -6111.0364     -6180.7098      69.673358      27956.555      416.229        8325.6213      1.5522443      0.83807045   
     26300  -6110.8273     -6180.2856      69.458308      27083.552      414.94429      8311.9073      1.5548053      0.83807045   
     26400  -6109.5107     -6178.8442      69.333537      27888.777      414.19891      8290.4575      1.5588281      0.83807045   
     26500  -6108.4143     -6178.7778      70.363512      28081.878      420.35198      8267.6747      1.5631237      0.83807045   
     26600  -6108.0146     -6178.851       70.836404      30398.445      423.17704      8250.7249      1.5663349      0.83807045   
     26700  -6109.5335     -6181.9973      72.463826      28512.952      432.89927      8241.9134      1.5680094      0.83807045   
     26800  -6108.7005     -6177.9531      69.252653      26665.732      413.71571      8241.7197      1.5680463      0.83807045   
     26900  -6108.479      -6180.7164      72.237473      25694.839      431.54704      8252.7907      1.5659428      0.83807045   
     27000  -6110.2252     -6179.5623      69.337097      24090.715      414.22018      8267.6085      1.5631362      0.90807513   
     27100  -6110.8985     -6181.6119      70.713317      27469.211      422.44172      8283.6505      1.560109       0.90807513   
     27200  -6110.1771     -6180.4256      70.248508      28861.311      419.66495      8297.0191      1.5575953      0.90807513   
     27300  -6111.9119     -6181.4509      69.539         25857.553      415.42635      8305.805       1.5559477      0.90807513   
     27400  -6114.1743     -6182.2793      68.105001      30740.955      406.85962      8304.7132      1.5561522      0.90807513   
     27500  -6113.602      -6181.8612      68.259188      30799.457      407.78074      8292.3189      1.5584782      0.90807513   
     27600  -6111.8512     -6180.4949      68.643718      29472.897      410.07793      8274.6802      1.5618003      0.90807513   
     27700  -6111.7793     -6182.7629      70.98365       25761.549      424.05669      8258.4518      1.5648693      0.90807513   
     27800  -6109.5856     -6181.2695      71.683883      26502.815      428.23989      8243.3607      1.5677341      0.90807513   
     27900  -6113.0075     -6181.6572      68.649723      31669.619      410.1138       8232.6392      1.5697758      0.90807513   
     28000  -6111.7618     -6182.0625      70.300666      29522.397      419.97654      8229.9325      1.5702921      0.79882066   
     28100  -6114.4836     -6183.5379      69.054328      25702.57       412.53091      8233.9421      1.5695274      0.79882066   
     28200  -6114.6951     -6181.8854      67.190316      26258.107      401.39529      8239.2372      1.5685187      0.79882066   
     28300  -6114.4037     -6184.4237      70.020026      29747.205      418.3          8245.6773      1.5672937      0.79882066   
     28400  -6112.1268     -6182.4434      70.316593      28779.515      420.07169      8252.2419      1.5660469      0.79882066   
     28500  -6116.1156     -6183.3995      67.283924      28456.444      401.95451      8257.0628      1.5651326      0.79882066   
     28600  -6116.1461     -6183.9374      67.791287      26402.735      404.9855       8256.2679      1.5652833      0.79882066   
     28700  -6114.6108     -6182.3602      67.749323      29101.018      404.7348       8250.1361      1.5664466      0.79882066   
     28800  -6115.4985     -6182.8286      67.330153      27692.604      402.23068      8240.7843      1.5682243      0.79882066   
     28900  -6114.5427     -6183.3023      68.759589      26794.547      410.77014      8231.3375      1.5700241      0.79882066   
     29000  -6115.15       -6183.3522      68.202283      31593.155      407.44079      8224.8879      1.5712552      0.80373339   
     29100  -6115.0613     -6184.617       69.555718      29505.332      415.52622      8222.8772      1.5716394      0.80373339   
     29200  -6116.0249     -6183.8629      67.837997      26857.431      405.26454      8225.2225      1.5711913      0.80373339   
     29300  -6115.6621     -6183.7098      68.047717      27004.432      406.51741      8229.6846      1.5703394      0.80373339   
     29400  -6112.4558     -6179.8349      67.379107      29116.684      402.52313      8236.0627      1.5691233      0.80373339   
     29500  -6113.0981     -6183.1301      70.031917      24618.858      418.37103      8245.6385      1.567301       0.80373339   
     29600  -6112.5898     -6181.7542      69.164378      23631.086      413.18835      8258.1043      1.5649352      0.80373339   
     29700  -6112.0967     -6181.7239      69.627245      27276.018      415.95352      8271.499       1.5624009      0.80373339   
     29800  -6112.397      -6181.2548      68.857786      28908.388      411.35677      8282.2736      1.5603684      0.80373339   
     29900  -6111.6651     -6182.391       70.725872      28218.954      422.51673      8288.2735      1.5592388      0.80373339   
     30000  -6114.2454     -6181.6032      67.357863      29015.564      402.39622      8287.8752      1.5593138      0.86461017   
     30100  -6110.1555     -6180.4361      70.28058       28107.474      419.85655      8281.3979      1.5605334      0.86461017   
     30200  -6111.7952     -6181.6389      69.843648      28401.111      417.24631      8269.0811      1.5628578      0.86461017   
     30300  -6110.6619     -6180.8553      70.193336      32198.906      419.33535      8253.1304      1.5658783      0.86461017   
     30400  -6108.3521     -6179.6523      71.300253      33450.547      425.94808      8240.1478      1.5683454      0.86461017   
     30500  -6108.7173     -6177.9562      69.238885      34385.635      413.63345      8235.0037      1.5693251      0.86461017   
     30600  -6110.8873     -6182.3494      71.462087      29718.814      426.91488      8237.8915      1.568775       0.86461017   
     30700  -6112.8095     -6181.4888      68.679296      27450.985      410.29047      8246.9245      1.5670566      0.86461017   
     30800  -6112.9137     -6180.853       67.939295      26267.065      405.8697       8256.7612      1.5651897      0.86461017   
     30900  -6113.737      -6181.4338      67.696769      28421.564      404.42085      8264.4354      1.5637363      0.86461017   
     31000  -6115.3407     -6183.6759      68.335275      28764.677      408.23528      8266.8618      1.5632774      0.79136555   
     31100  -6114.3387     -6183.7631      69.424349      26531.108      414.74142      8265.1468      1.5636017      0.79136555   
     31200  -6114.732      -6184.1661      69.434159      28304.432      414.80003      8259.6333      1.5646455      0.79136555   
     31300  -6115.0779     -6183.6952      68.617325      28601.579      409.92025      8249.9154      1.5664885      0.79136555   
     31400  -6115.842      -6184.2641      68.42209       29277.346      408.75392      8238.4791      1.5686631      0.79136555   
     31500  -6114.5308     -6184.0882      69.557417      29265.128      415.53637      8223.0826      1.5716002      0.79136555   
     31600  -6110.5193     -6181.006       70.486714      25520.628      421.08799      8209.7092      1.5741602      0.79136555   
     31700  -6110.5826     -6180.3968      69.814132      32723.749      417.06999      8208.2199      1.5744459      0.79136555   
     31800  -6110.7335     -6181.4         70.666525      27515.258      422.16218      8220.7925      1.572038       0.79136555   
     31900  -6107.8273     -6179.5556      71.728245      26498.209      428.5049       8243.8439      1.5676422      0.79136555   
     32000  -6109.989      -6179.8436      69.854577      27456.274      417.3116       8274.6739      1.5618015      0.81405194   
     32100  -6110.3907     -6178.0291      67.638436      28412.793      404.07237      8306.31        1.5558531      0.81405194   
     32200  -6111.7442     -6181.8141      70.069939      24979.586      418.59818      8332.1524      1.5510276      0.81405194   
     32300  -6112.1782     -6181.3964      69.218159      28528.983      413.50964      8343.8113      1.5488603      0.81405194   
     32400  -6113.0074     -6181.8882      68.880781      24145.88       411.49414      8339.0497      1.5497447      0.81405194   
     32500  -6111.6489     -6180.987       69.338183      28623.72       414.22666      8315.6772      1.5541005      0.81405194   
     32600  -6111.3812     -6181.6253      70.244045      31221.506      419.63828      8278.3572      1.5611066      0.81405194   
     32700  -6111.5874     -6180.7713      69.183895      30213.312      413.30494      8237.4848      1.5688524      0.81405194   
     32800  -6111.0747     -6180.8938      69.819133      28762.531      417.09986      8203.7171      1.57531        0.81405194   
     32900  -6110.9287     -6181.2812      70.352503      27515.851      420.28622      8182.5892      1.5793776      0.81405194   
     33000  -6112.5133     -6181.4862      68.972895      29732.908      412.04443      8177.2175      1.5804151      0.8236948    
     33100  -6110.4705     -6180.4058      69.935332      30132.295      417.79403      8186.6876      1.5785869      0.8236948    
     33200  -6109.2214     -6179.3834      70.161964      31220.758      419.14793      8207.5926      1.5745662      0.8236948    
     33300  -6110.2964     -6181.6509      71.354532      31319.97       426.27234      8240.0312      1.5683676      0.8236948    
     33400  -6111.8329     -6180.7499      68.917007      27446.018      411.71055      8274.6313      1.5618095      0.8236948    
     33500  -6112.8007     -6182.6075      69.806771      28099.58       417.02601      8303.1753      1.5564405      0.8236948    
     33600  -6111.7046     -6179.342       67.637387      26950.189      404.0661       8316.3101      1.5539822      0.8236948    
     33700  -6110.3068     -6179.084       68.77718       26736.531      410.87523      8315.3852      1.554155       0.8236948    
     33800  -6110.2067     -6181.977       71.7703        26484.409      428.75614      8303.9501      1.5562952      0.8236948    
     33900  -6109.8031     -6182.4347      72.631581      30501.382      433.90144      8284.9154      1.5598708      0.8236948    
     34000  -6110.0472     -6180.1698      70.122632      29315.914      418.91296      8263.251       1.5639605      0.84275738   
     34100  -6107.2673     -6179.8355      72.568216      33308.466      433.5229       8243.3821      1.56773        0.84275738   
     34200  -6111.0443     -6181.8549      70.810605      29775.22       423.02292      8231.7443      1.5699465      0.84275738   
     34300  -6110.2343     -6179.27        69.035738      28090.58       412.41986      8224.6111      1.5713081      0.84275738   
     34400  -6112.4588     -6180.2821      67.823347      28643.516      405.17702      8222.832       1.5716481      0.84275738   
     34500  -6115.1062     -6182.4853      67.379031      28614.156      402.52268      8226.6923      1.5709106      0.84275738   
     34600  -6118.3494     -6183.6116      65.262172      28470.849      389.87655      8233.8356      1.5695477      0.84275738   
     34700  -6116.3315     -6184.7412      68.409654      26363.092      408.67963      8241.0481      1.5681741      0.84275738   
     34800  -6114.1673     -6182.1936      68.026312      27889.406      406.38954      8245.9445      1.5672429      0.84275738   
     34900  -6114.9596     -6183.3308      68.371145      24445.773      408.44957      8250.0133      1.56647        0.84275738   
     35000  -6114.5801     -6183.3408      68.76068       29150.586      410.77665      8250.0629      1.5664605      0.80093389   
     35100  -6115.7149     -6183.1056      67.390649      34596.091      402.59209      8245.7892      1.5672724      0.80093389   
     35200  -6113.8731     -6184.9223      71.049132      29663.845      424.44788      8240.7043      1.5682395      0.80093389   
     35300  -6114.3034     -6182.5255      68.222119      29451.367      407.55929      8233.0132      1.5697045      0.80093389   
     35400  -6112.0208     -6180.6987      68.677962      32612.309      410.2825       8225.7963      1.5710817      0.80093389   
     35500  -6110.524      -6182.2721      71.74813       28825.476      428.6237       8222.9693      1.5716218      0.80093389   
     35600  -6112.0725     -6179.834       67.761499      23722.996      404.80754      8224.1193      1.571402       0.80093389   
     35700  -6110.0164     -6180.8111      70.794737      25080.311      422.92812      8229.8811      1.5703019      0.80093389   
     35800  -6109.7575     -6180.0514      70.293868      28076.132      419.93593      8237.322       1.5688834      0.80093389   
     35900  -6108.7171     -6179.4219      70.704763      30885.332      422.39062      8248.3432      1.5667871      0.80093389   
     36000  -6109.669      -6179.7191      70.05006       28938.276      418.47942      8263.4682      1.5639194      0.87362713   
     36100  -6111.6568     -6180.3594      68.702588      28902.269      410.42961      8280.6084      1.5606822      0.87362713   
     36200  -6110.9189     -6182.4541      71.535208      25252.456      427.3517       8293.9287      1.5581757      0.87362713   
     36300  -6111.2141     -6180.2625      69.048393      25524.526      412.49546      8298.9289      1.5572368      0.87362713   
     36400  -6111.9734     -6182.672       70.698683      26748.728      422.3543       8297.8824      1.5574332      0.87362713   
     36500  -6112.8604     -6181.1476      68.287223      25173.042      407.94822      8288.4155      1.5592121      0.87362713   
     36600  -6111.7242     -6180.1326      68.408439      26608.513      408.67237      8271.3119      1.5624363      0.87362713   
     36700  -6112.7542     -6182.709       69.954831      27125.466      417.91052      8249.8484      1.5665013      0.87362713   
     36800  -6112.858      -6181.3462      68.488251      31544.768      409.14916      8227.0062      1.5708506      0.87362713   
     36900  -6110.8561     -6179.7438      68.887697      35969.711      411.53545      8207.8645      1.574514       0.87362713   
     37000  -6113.0927     -6181.9317      68.83896       30548.029      411.2443       8198.3959      1.5763325      0.89833085   
     37100  -6113.4649     -6182.9357      69.470856      28864.413      415.01925      8197.6173      1.5764822      0.89833085   
     37200  -6110.3663     -6178.2018      67.83553       29971.646      405.2498       8206.1771      1.5748378      0.89833085   
     37300  -6108.9947     -6179.6628      70.668082      31904.167      422.17149      8227.2863      1.5707971      0.89833085   
     37400  -6110.634      -6177.6097      66.975689      32826.589      400.11311      8258.65        1.5648318      0.89833085   
     37500  -6113.005      -6183.2982      70.293255      29000.039      419.93227      8296.3528      1.5577204      0.89833085   
     37600  -6109.9102     -6181.1191      71.20886       26676.843      425.40209      8328.0583      1.55179        0.89833085   
     37700  -6109.8229     -6179.407       69.584103      22574.418      415.69579      8349.4368      1.5478167      0.89833085   
     37800  -6111.7125     -6181.1195      69.407021      26759.412      414.6379       8357.4669      1.5463295      0.89833085   
     37900  -6111.3777     -6179.8745      68.496844      28046.104      409.2005       8348.0342      1.5480768      0.89833085   
     38000  -6110.5906     -6182.0962      71.50562       28481.984      427.17494      8321.8292      1.5529516      0.8961604    
     38100  -6107.716      -6177.0223      69.306312      32942.433      414.03626      8282.215       1.5603794      0.8961604    
     38200  -6109.7759     -6181.9902      72.214252      29066.076      431.40831      8243.0081      1.5678012      0.8961604    
     38300  -6106.3715     -6178.0923      71.720846      29483.205      428.4607       8208.9903      1.5742981      0.8961604    
     38400  -6109.7669     -6182.2186      72.45176       32495.712      432.82719      8189.7442      1.5779977      0.8961604    
     38500  -6109.4833     -6179.4521      69.968748      30498.073      417.99366      8187.7018      1.5783914      0.8961604    
     38600  -6110.4348     -6181.2199      70.785178      29294.555      422.87102      8201.9303      1.5756532      0.8961604    
     38700  -6114.6291     -6182.1101      67.480969      28571.433      403.13166      8226.1752      1.5710093      0.8961604    
     38800  -6113.7453     -6184.2691      70.523724      24472.971      421.30909      8251.9603      1.5661004      0.8961604    
     38900  -6115.0049     -6184.3536      69.348629      28458.345      414.28907      8272.6178      1.5621896      0.8961604    
     39000  -6113.3595     -6181.4422      68.082671      24167.511      406.72623      8284.9881      1.5598571      0.92927159   
     39100  -6115.2676     -6181.2205      65.952887      25566.327      394.00289      8288.8876      1.5591233      0.92927159   
     39200  -6113.3266     -6182.4143      69.087719      25639.937      412.73039      8279.7639      1.5608413      0.92927159   
     39300  -6110.9782     -6180.0317      69.053523      25847.853      412.5261       8260.5917      1.5644639      0.92927159   
     39400  -6112.7361     -6181.6254      68.889261      25013.183      411.5448       8242.6043      1.567878       0.92927159   
     39500  -6113.5203     -6184.3049      70.784578      29752.529      422.86743      8230.5252      1.570179       0.92927159   
     39600  -6113.6017     -6183.6196      70.01786       31486.889      418.28706      8222.2179      1.5717654      0.92927159   
     39700  -6116.3686     -6186.0998      69.731187      29984.403      416.57447      8217.3491      1.5726967      0.92927159   
     39800  -6118.2374     -6184.3669      66.129516      29945.797      395.05807      8213.024       1.5735249      0.92927159   
     39900  -6115.2305     -6183.5252      68.294773      31983.128      407.99332      8209.2771      1.5742431      0.92927159   
     40000  -6116.9685     -6183.689       66.720473      29598.239      398.58845      8208.6446      1.5743644      0.82060698   
     40100  -6118.5153     -6184.0079      65.492658      27586.794      391.25348      8209.0434      1.5742879      0.82060698   
     40200  -6116.4354     -6185.182       68.746676      24956.042      410.69299      8209.4644      1.5742072      0.82060698   
     40300  -6118.7858     -6185.1095      66.323675      28928.196      396.21798      8212.7642      1.5735747      0.82060698   
     40400  -6119.8516     -6184.6421      64.790452      25717.891      387.05849      8215.9538      1.5729638      0.82060698   
     40500  -6119.3056     -6185.0944      65.788796      27041.243      393.02261      8213.2026      1.5734907      0.82060698   
     40600  -6117.735      -6183.9164      66.181382      28909.074      395.36792      8207.8897      1.5745092      0.82060698   
     40700  -6117.1594     -6184.7884      67.629017      29875.22       404.0161       8203.6015      1.5753322      0.82060698   
     40800  -6116.3486     -6182.6646      66.315974      29878.089      396.17197      8199.3411      1.5761508      0.82060698   
     40900  -6114.5329     -6183.4995      68.966531      34889.586      412.00641      8194.7852      1.577027       0.82060698   
     41000  -6114.1693     -6182.0206      67.851267      33939.784      405.34382      8195.3804      1.5769125      0.81778621   
     41100  -6115.0054     -6182.1399      67.134507      31360.682      401.06189      8202.6621      1.5755126      0.81778621   
     41200  -6116.0078     -6184.8335      68.82567       29390.051      411.16491      8212.9842      1.5735325      0.81778621   
     41300  -6114.3272     -6182.3215      67.994276      28383.143      406.19815      8223.1834      1.5715809      0.81778621   
     41400  -6115.5346     -6183.0978      67.563205      28615.071      403.62294      8234.9199      1.5693411      0.81778621   
     41500  -6115.23       -6183.1303      67.900292      25941.855      405.63669      8244.6922      1.5674809      0.81778621   
     41600  -6116.9653     -6184.5084      67.543085      24584.729      403.50274      8248.8486      1.5666911      0.81778621   
     41700  -6115.9702     -6185.014       69.04389       24015.317      412.46855      8244.6598      1.5674871      0.81778621   
     41800  -6114.5179     -6184.0265      69.50865       26259.763      415.24503      8233.2129      1.5696664      0.81778621   
     41900  -6111.9725     -6180.5045      68.531957      29403.277      409.41026      8216.4082      1.5728768      0.81778621   
     42000  -6111.7876     -6182.9036      71.11603       29414.792      424.84753      8203.0748      1.5754334      0.78318781   
     42100  -6110.5213     -6178.7481      68.226771      32138.738      407.58708      8195.0685      1.5769725      0.78318781   
     42200  -6112.2725     -6181.574       69.301491      24969.157      414.00747      8199.4243      1.5761348      0.78318781   
     42300  -6111.4236     -6179.7874      68.363788      29436.139      408.40562      8213.5843      1.5734176      0.78318781   
     42400  -6111.1025     -6181.0786      69.976094      28769.618      418.03755      8234.396       1.5694409      0.78318781   
     42500  -6109.7612     -6179.1674      69.40622       27419.694      414.63312      8258.8939      1.5647856      0.78318781   
     42600  -6110.3608     -6179.4561      69.095378      29960.305      412.77615      8285.1593      1.5598249      0.78318781   
     42700  -6111.8075     -6179.6312      67.823693      23636.046      405.17909      8310.7688      1.5550183      0.78318781   
     42800  -6112.5822     -6180.6717      68.089448      22710.003      406.76671      8327.7334      1.5518506      0.78318781   
     42900  -6111.985      -6181.5564      69.571449      25734.313      415.6202       8330.7413      1.5512903      0.78318781   
     43000  -6112.8711     -6180.6447      67.773568      27328.097      404.87964      8319.1735      1.5534473      0.82962174   
     43100  -6109.1902     -6178.3294      69.139197      27784.703      413.03792      8296.6295      1.5576684      0.82962174   
     43200  -6111.4146     -6180.0347      68.620058      32133.726      409.93658      8269.1028      1.5628537      0.82962174   
     43300  -6111.5028     -6181.4239      69.921081      30591.048      417.7089       8243.5989      1.5676888      0.82962174   
     43400  -6113.4597     -6180.427       66.967245      30528.67       400.06267      8222.715       1.5716704      0.82962174   
     43500  -6112.888      -6181.6593      68.77133       27340.58       410.84028      8206.1677      1.5748396      0.82962174   
     43600  -6113.9202     -6181.9273      68.007177      32755.678      406.27522      8199.0289      1.5762108      0.82962174   
     43700  -6114.3992     -6182.7286      68.329353      34274.088      408.19991      8203.8827      1.5752782      0.82962174   
     43800  -6115.3317     -6182.7318      67.400057      34724.177      402.64829      8219.3873      1.5723067      0.82962174   
     43900  -6116.3394     -6183.516       67.176596      30337.8        401.31333      8239.7779      1.5684158      0.82962174   
     44000  -6114.8914     -6184.1359      69.24452       26319.186      413.66712      8260.7091      1.5644417      0.81193754   
     44100  -6114.24       -6182.6444      68.404424      30235.416      408.64838      8279.6384      1.560865       0.81193754   
     44200  -6114.2873     -6181.8329      67.545572      26029.659      403.5176       8294.0026      1.5581618      0.81193754   
     44300  -6112.0322     -6182.7151      70.682882      25736.008      422.2599       8301.3732      1.5567783      0.81193754   
     44400  -6111.4419     -6180.7027      69.260826      24734.557      413.76453      8303.0915      1.5564562      0.81193754   
     44500  -6112.5273     -6184.1754      71.648128      25984.468      428.02628      8300.7094      1.5569028      0.81193754   
     44600  -6112.7911     -6182.5912      69.800069      29920.75       416.98597      8294.178       1.5581288      0.81193754   
     44700  -6115.2054     -6182.553       67.347569      27197.192      402.33472      8284.8473      1.5598836      0.81193754   
     44800  -6112.365      -6181.5273      69.162285      28723.402      413.17585      8273.4251      1.5620372      0.81193754   
     44900  -6113.4886     -6182.4199      68.931357      30217.849      411.79628      8264.781       1.5636709      0.81193754   
     45000  -6113.0067     -6181.4473      68.44062       29215.472      408.86461      8259.162       1.5647348      0.83630649   
     45100  -6114.989      -6184.7374      69.748388      25905.631      416.67723      8257.2209      1.5651026      0.83630649   
     45200  -6113.4889     -6182.3773      68.888371      29123.568      411.53949      8257.8691      1.5649797      0.83630649   
     45300  -6113.4881     -6179.4409      65.952742      31439.645      394.00202      8263.2828      1.5639545      0.83630649   
     45400  -6113.7394     -6182.9268      69.187452      30285.71       413.3262       8273.6626      1.5619924      0.83630649   
     45500  -6114.3077     -6182.8587      68.550941      30423.691      409.52368      8284.2915      1.5599883      0.83630649   
     45600  -6113.8588     -6184.2819      70.423078      31335.395      420.70783      8294.3936      1.5580883      0.83630649   
     45700  -6114.7433     -6182.0167      67.273453      26599.681      401.89196      8300.399       1.556961       0.83630649   
     45800  -6116.9366     -6183.938       67.001326      25124.628      400.26626      8301.0841      1.5568326      0.83630649   
     45900  -6116.7196     -6183.6485      66.928857      24356.634      399.83334      8296.1928      1.5577504      0.83630649   
     46000  -6112.7585     -6182.0194      69.260894      31772.812      413.76494      8284.3263      1.5599818      0.78158559   
     46100  -6110.7007     -6181.446       70.745376      30953.747      422.63324      8269.3895      1.5627995      0.78158559   
     46200  -6110.9842     -6180.794       69.80974       31705.313      417.04375      8258.7776      1.5648076      0.78158559   
     46300  -6111.6099     -6180.2245      68.614624      28261.283      409.90412      8256.4414      1.5652504      0.78158559   
     46400  -6111.6601     -6181.6612      70.001077      28111.6        418.18679      8264.4495      1.5637337      0.78158559   
     46500  -6111.8211     -6179.7533      67.932207      30610.619      405.82735      8277.3633      1.561294       0.78158559   
     46600  -6111.8489     -6181.6918      69.842835      30589.332      417.24146      8295.5393      1.5578732      0.78158559   
     46700  -6111.478      -6180.3371      68.85911       32897.733      411.36468      8317.6472      1.5537324      0.78158559   
     46800  -6112.3767     -6182.8471      70.470442      28251.184      420.99079      8341.0097      1.5493805      0.78158559   
     46900  -6112.2228     -6179.6161      67.393337      28269.572      402.60814      8356.7758      1.5464574      0.78158559   
     47000  -6111.8237     -6181.9485      70.124813      23448.385      418.926        8362.1731      1.5454593      0.78404918   
     47100  -6113.1796     -6181.2004      68.020779      25426.622      406.35649      8352.2353      1.5472981      0.78404918   
     47200  -6113.943      -6182.0029      68.059985      22695.972      406.5907       8329.9878      1.5514306      0.78404918   
     47300  -6113.3855     -6181.9682      68.582693      28437.064      409.71336      8298.461       1.5573247      0.78404918   
     47400  -6114.0898     -6180.3877      66.297915      27995.359      396.06408      8266.7393      1.5633005      0.78404918   
     47500  -6113.8881     -6182.8546      68.966444      29120.368      412.00589      8240.6315      1.5682533      0.78404918   
     47600  -6114.1612     -6181.8856      67.72436       33998.336      404.58568      8221.4582      1.5719107      0.78404918   
     47700  -6113.2716     -6181.0533      67.781672      34411.478      404.92806      8214.4622      1.5732494      0.78404918   
     47800  -6111.6573     -6178.7928      67.135478      29174.061      401.06769      8224.6177      1.5713068      0.78404918   
     47900  -6111.7853     -6180.8917      69.106374      25276.902      412.84183      8252.445       1.5660084      0.78404918   
     48000  -6111.7059     -6182.0426      70.336729      25252.637      420.19198      8289.3292      1.5590403      0.87425824   
     48100  -6110.9773     -6179.9803      69.003021      26316.726      412.2244       8325.2717      1.5523094      0.87425824   
     48200  -6111.755      -6181.2392      69.484233      20701.508      415.09916      8354.0961      1.5469535      0.87425824   
     48300  -6111.6015     -6179.797       68.195542      30383.441      407.40052      8370.3163      1.5439557      0.87425824   
     48400  -6111.4105     -6181.2613      69.850792      30252.531      417.28899      8374.3588      1.5432104      0.87425824   
     48500  -6110.4286     -6179.8582      69.429584      30613.639      414.77269      8366.0879      1.5447361      0.87425824   
     48600  -6110.8494     -6182.1048      71.255391      26770.651      425.68007      8348.6578      1.5479611      0.87425824   
     48700  -6112.7906     -6182.7927      70.002092      24599.276      418.19286      8325.3181      1.5523008      0.87425824   
     48800  -6112.3948     -6181.4857      69.090948      25760.842      412.74968      8298.0818      1.5573958      0.87425824   
     48900  -6115.2429     -6180.5815      65.338542      28599.48       390.33278      8272.1342      1.562281       0.87425824   
     49000  -6115.801      -6184.0727      68.271711      27881.538      407.85555      8250.2014      1.5664342      0.86324754   
     49100  -6114.7369     -6181.5476      66.810704      27252.856      399.12749      8231.9623      1.5699049      0.86324754   
     49200  -6112.7748     -6181.56        68.78522       31714.927      410.92326      8220.3497      1.5721226      0.86324754   
     49300  -6111.7042     -6181.698       69.993803      30309.117      418.14334      8220.3313      1.5721262      0.86324754   
     49400  -6112.8173     -6181.7765      68.95921       30788.025      411.96268      8233.0437      1.5696987      0.86324754   
     49500  -6111.0331     -6180.0434      69.01035       28548.949      412.26819      8255.4933      1.5654301      0.86324754   
     49600  -6112.1547     -6184.0171      71.862369      23724.763      429.30616      8281.1881      1.5605729      0.86324754   
     49700  -6114.3825     -6181.6696      67.287141      26158.902      401.97372      8300.1968      1.556999       0.86324754   
     49800  -6114.2957     -6183.2195      68.923747      21510.071      411.75082      8308.7779      1.555391       0.86324754   
     49900  -6113.1526     -6179.9312      66.778592      26186.616      398.93565      8303.2961      1.5564178      0.86324754   
     50000  -6116.0537     -6183.1193      67.06566       28509.363      400.6506       8290.2361      1.5588697      0.87925238   
     50100  -6114.31       -6182.96        68.64999       33997.146      410.11539      8270.0981      1.5626656      0.87925238   
     50200  -6112.8716     -6180.3521      67.480471      33180.85       403.12868      8246.3179      1.5671719      0.87925238   
     50300  -6113.5016     -6183.5245      70.022884      32172.734      418.31707      8228.7727      1.5705134      0.87925238   
     50400  -6110.8004     -6180.8255      70.025075      28313.252      418.33016      8219.7245      1.5722422      0.87925238   
     50500  -6113.4236     -6181.1534      67.729769      26147.021      404.61799      8222.4788      1.5717156      0.87925238   
     50600  -6112.7757     -6182.8714      70.095726      24023.184      418.75223      8235.0934      1.569308       0.87925238   
     50700  -6111.7172     -6182.5147      70.797469      28357.279      422.94445      8252.7479      1.5659509      0.87925238   
     50800  -6112.1791     -6182.0376      69.858515      26255.17       417.33513      8274.4391      1.5618458      0.87925238   
     50900  -6111.6421     -6179.9289      68.286818      24421.061      407.94581      8292.5128      1.5584417      0.87925238   
     51000  -6111.6657     -6178.8387      67.17302       22728.148      401.29196      8307.0152      1.555721       0.78788615   
     51100  -6112.1641     -6181.8394      69.67529       21224.003      416.24054      8315.4346      1.5541458      0.78788615   
     51200  -6110.7351     -6179.1608      68.425667      25966.142      408.77529      8315.0549      1.5542168      0.78788615   
     51300  -6110.1952     -6179.6125      69.417316      25426.703      414.6994       8311.6108      1.5548608      0.78788615   
     51400  -6108.7402     -6179.2379      70.497739      25506.708      421.15385      8304.664       1.5561614      0.78788615   
     51500  -6110.3113     -6180.1337      69.82234       27830.639      417.11902      8296.425       1.5577068      0.78788615   
     51600  -6110.7896     -6180.5992      69.809616      28012.476      417.043        8288.1278      1.5592662      0.78788615   
     51700  -6109.3976     -6179.1777      69.780102      29578.535      416.86669      8278.0102      1.561172       0.78788615   
     51800  -6109.4021     -6179.4333      70.031151      27543.072      418.36645      8269.7237      1.5627364      0.78788615   
     51900  -6109.2709     -6180.803       71.53208       29089.668      427.33301      8268.7245      1.5629252      0.78788615   
     52000  -6110.5232     -6178.6528      68.129607      30206.557      407.00663      8272.5088      1.5622102      0.80068012   
     52100  -6110.8561     -6178.9183      68.062265      28858.547      406.60432      8282.9452      1.5602419      0.80068012   
     52200  -6111.6538     -6179.5779      67.924096      23717.664      405.7789       8292.812       1.5583855      0.80068012   
     52300  -6110.8897     -6180.1424      69.252641      27864.108      413.71563      8300.1341      1.5570107      0.80068012   
     52400  -6111.7535     -6181.3156      69.56217       24928.606      415.56476      8308.1234      1.5555135      0.80068012   
     52500  -6111.0523     -6181.4412      70.388896      26444.444      420.50363      8312.1894      1.5547526      0.80068012   
     52600  -6112.3143     -6180.7023      68.387923      25263.74       408.54981      8311.3643      1.5549069      0.80068012   
     52700  -6109.5061     -6177.3693      67.863147      25231.28       405.41479      8303.5439      1.5563713      0.80068012   
     52800  -6109.5461     -6178.9266      69.380458      28045.802      414.47921      8293.6604      1.5582261      0.80068012   
     52900  -6108.935      -6180.2786      71.343608      27503.54       426.20708      8283.9024      1.5600616      0.80068012   
     53000  -6108.9872     -6178.9701      69.982881      32608.694      418.07809      8278.0846      1.561158       0.82459645   
     53100  -6109.3718     -6179.2259      69.854161      34517.57       417.30912      8280.3085      1.5607387      0.82459645   
[...]
   2006100  -6115.5296     -6184.2875      68.757917      26434.91       410.76015      8282.0262      1.560415       0.82438634   
   2006200  -6114.1172     -6183.5428      69.425563      27530.316      414.74867      8323.3575      1.5526664      0.82438634   
   2006300  -6113.5517     -6182.4813      68.929579      24198.219      411.78566      8349.2316      1.5478548      0.82438634   
   2006400  -6114.0726     -6182.6329      68.56026       25665.797      409.57935      8353.4182      1.547079       0.82438634   
   2006500  -6112.4894     -6182.9262      70.436881      25154.669      420.79029      8336.5433      1.5502106      0.82438634   
   2006600  -6112.4706     -6181.6537      69.183125      28695.011      413.30035      8302.6056      1.5565472      0.82438634   
   2006700  -6111.2468     -6182.0011      70.754334      29065.491      422.68676      8258.5064      1.564859       0.82438634   
   2006800  -6111.3619     -6181.9354      70.573526      32714.528      421.60661      8216.4341      1.5728718      0.82438634   
   2006900  -6111.6831     -6181.9084      70.225273      33102.876      419.52614      8182.7423      1.579348       0.82438634   
   2007000  -6111.8948     -6181.36        69.465182      33680.357      414.98535      8165.6131      1.5826611      0.85214506   
   2007100  -6112.7085     -6180.9718      68.263351      32745.601      407.80561      8167.5579      1.5822842      0.85214506   
   2007200  -6113.7614     -6183.3451      69.583664      27509.998      415.69317      8186.9769      1.5785311      0.85214506   
   2007300  -6113.6865     -6181.9443      68.257753      26030.647      407.77217      8217.2157      1.5727222      0.85214506   
   2007400  -6114.8534     -6185.1209      70.267565      29602.838      419.77879      8255.1399      1.5654971      0.85214506   
   2007500  -6113.5214     -6181.485       67.963612      33056.832      406.01497      8293.7903      1.5582017      0.85214506   
   2007600  -6114.7188     -6183.5377      68.818847      25659.601      411.12415      8327.806       1.5518371      0.85214506   
   2007700  -6114.132      -6182.1972      68.065204      23669.615      406.62188      8345.4547      1.5485553      0.85214506   
   2007800  -6114.5398     -6183.6929      69.153059      22344.115      413.12073      8345.3057      1.5485829      0.85214506   
   2007900  -6112.3591     -6181.1004      68.741311      22670.56       410.66094      8329.4205      1.5515363      0.85214506   
   2008000  -6112.1688     -6181.4809      69.312093      24775.443      414.0708       8298.4175      1.5573328      0.82821311   
   2008100  -6109.0129     -6181.902       72.889084      27699.891      435.43976      8258.4627      1.5648673      0.82821311   
   2008200  -6110.1351     -6180.3602      70.225151      31652.075      419.52541      8219.8914      1.5722103      0.82821311   
   2008300  -6109.7589     -6181.3774      71.618502      29464.419      427.8493       8192.3858      1.5774889      0.82821311   
   2008400  -6111.9227     -6182.0518      70.129077      31547.009      418.95146      8182.114       1.5794693      0.82821311   
   2008500  -6111.7462     -6181.3772      69.631036      31316.301      415.97617      8188.8086      1.578178       0.82821311   
   2008600  -6110.5331     -6179.7823      69.249196      28204.874      413.69506      8213.116       1.5735073      0.82821311   
   2008700  -6114.1299     -6180.7363      66.606436      29149.39       397.90719      8248.7457      1.5667107      0.82821311   
   2008800  -6112.8311     -6183.0854      70.25425       25740.216      419.69925      8288.0063      1.5592891      0.82821311   
   2008900  -6113.0681     -6182.9182      69.850097      24536.614      417.28484      8321.9594      1.5529273      0.82821311   
   2009000  -6111.9944     -6181.6938      69.699357      26367.318      416.38432      8343.7746      1.5488671      0.874077     
   2009100  -6111.4792     -6182.1084      70.629243      24986.198      421.93946      8353.7928      1.5470096      0.874077     
   2009200  -6111.7225     -6181.6027      69.880189      23790.566      417.46461      8348.356       1.5480171      0.874077     
   2009300  -6111.4226     -6182.6034      71.180854      26286.175      425.23479      8327.7721      1.5518434      0.874077     
   2009400  -6112.7674     -6183.1168      70.34932       29641.283      420.2672       8292.9788      1.5583541      0.874077     
   2009500  -6113.5664     -6182.0652      68.498853      27443.257      409.2125       8252.2052      1.5660539      0.874077     
   2009600  -6113.1173     -6184.2033      71.085932      26998.031      424.66772      8216.0472      1.5729459      0.874077     
   2009700  -6112.9584     -6182.7982      69.839808      31994.924      417.22337      8191.2542      1.5777069      0.874077     
   2009800  -6113.7789     -6183.0596      69.280673      34280.974      413.8831       8182.1251      1.5794672      0.874077     
   2009900  -6112.1999     -6184.9391      72.739194      31427.959      434.54432      8189.0985      1.5781222      0.874077     
   2010000  -6112.014      -6181.0229      69.008898      28435.788      412.25951      8210.1402      1.5740776      0.81375815   
   2010100  -6110.6691     -6181.5153      70.846174      32504.793      423.23541      8242.8568      1.56783        0.81375815   
   2010200  -6112.1549     -6181.4656      69.310758      29515.517      414.06283      8281.4693      1.5605199      0.81375815   
   2010300  -6111.77       -6184.024       72.253981      25124.639      431.64565      8320.1121      1.5532721      0.81375815   
   2010400  -6115.3497     -6182.8111      67.461424      27902.884      403.01489      8346.0725      1.5484406      0.81375815   
   2010500  -6112.2028     -6181.9696      69.766867      28065.47       416.78762      8354.3077      1.5469143      0.81375815   
   2010600  -6110.5408     -6183.151       72.610186      28230.905      433.77363      8347.2241      1.548227       0.81375815   
   2010700  -6112.6083     -6183.1884      70.580103      27824.757      421.6459       8325.2305      1.5523171      0.81375815   
   2010800  -6112.6873     -6182.3767      69.689466      28863.383      416.32523      8292.078       1.5585234      0.81375815   
   2010900  -6113.2439     -6184.1575      70.913655      28941.862      423.63854      8256.4659      1.5652457      0.81375815   
   2011000  -6110.2597     -6181.1411      70.881447      29955.14       423.44613      8224.4134      1.5713459      0.8505766    
   2011100  -6109.3567     -6179.7584      70.401635      32805.729      420.57973      8207.3631      1.5746102      0.8505766    
   2011200  -6110.6592     -6181.157       70.497809      32624.2        421.15428      8210.4454      1.5740191      0.8505766    
   2011300  -6109.6498     -6181.1674      71.517664      30749.808      427.24689      8228.3001      1.5706036      0.8505766    
   2011400  -6109.8845     -6182.2791      72.39461       26118.147      432.48577      8258.1615      1.5649243      0.8505766    
   2011500  -6110.5796     -6181.7952      71.215604      24064.03       425.44239      8289.3452      1.5590372      0.8505766    
   2011600  -6110.6267     -6179.4902      68.863494      26351.13       411.39087      8315.3834      1.5541554      0.8505766    
   2011700  -6111.7221     -6180.4768      68.754694      23836.314      410.7409       8332.4802      1.5509665      0.8505766    
   2011800  -6113.0138     -6184.8041      71.790332      22534.261      428.87581      8334.4275      1.5506041      0.8505766    
   2011900  -6116.9247     -6183.51        66.585212      25519.249      397.7804       8320.3718      1.5532236      0.8505766    
   2012000  -6116.2831     -6185.0647      68.781583      23255.366      410.90153      8292.5277      1.5584389      0.91267288   
   2012100  -6114.3795     -6183.6352      69.255714      23149.644      413.73399      8256.9295      1.5651578      0.91267288   
   2012200  -6111.0734     -6181.5766      70.503162      28671.301      421.18625      8226.3401      1.5709778      0.91267288   
   2012300  -6109.6682     -6181.2504      71.582219      28675.268      427.63255      8209.5356      1.5741935      0.91267288   
   2012400  -6111.0511     -6181.1016      70.050513      27758.312      418.48212      8209.3787      1.5742236      0.91267288   
   2012500  -6111.6422     -6180.9084      69.266224      25120.097      413.79678      8224.5476      1.5713202      0.91267288   
   2012600  -6111.4196     -6181.349       69.929425      26454.147      417.75875      8250.7068      1.5663383      0.91267288   
   2012700  -6114.9192     -6184.0139      69.094646      29355.116      412.77177      8281.8882      1.560441       0.91267288   
   2012800  -6115.6702     -6184.5833      68.913109      25130.959      411.68727      8309.3047      1.5552923      0.91267288   
   2012900  -6114.0272     -6183.9293      69.902119      21798.995      417.59562      8325.6165      1.5522452      0.91267288   
   2013000  -6116.2698     -6183.9762      67.706385      23243.308      404.47829      8329.4417      1.5515323      0.81154028   
   2013100  -6115.8098     -6183.1992      67.389389      25758.653      402.58456      8319.7666      1.5533366      0.81154028   
   2013200  -6115.9628     -6186.1097      70.146871      25250.864      419.05777      8299.2766      1.5571716      0.81154028   
   2013300  -6115.5708     -6183.6557      68.084924      26677.824      406.73969      8273.2937      1.562062       0.81154028   
   2013400  -6115.451      -6183.7527      68.30167       28642.549      408.03453      8249.3932      1.5665877      0.81154028   
   2013500  -6114.8778     -6186.0261      71.148339      27976.316      425.04054      8230.4947      1.5701848      0.81154028   
   2013600  -6113.2172     -6183.2009      69.98369       31726.598      418.08292      8216.3512      1.5728877      0.81154028   
   2013700  -6112.3742     -6182.4171      70.042824      30452.907      418.43619      8215.8533      1.572983       0.81154028   
   2013800  -6110.8852     -6182.32        71.434803      32254.025      426.75188      8231.4756      1.5699977      0.81154028   
   2013900  -6112.705      -6181.1583      68.453274      32892.341      408.94021      8259.6713      1.5646383      0.81154028   
   2014000  -6113.5276     -6181.0609      67.533261      32587.341      403.44405      8294.0636      1.5581503      0.81211097   
   2014100  -6110.9563     -6179.8954      68.939052      29736.451      411.84225      8328.9543      1.5516231      0.81211097   
   2014200  -6112.2109     -6181.2268      69.015869      26287.707      412.30115      8355.8987      1.5466197      0.81211097   
   2014300  -6113.2485     -6183.4415      70.193008      23864.207      419.33339      8367.9812      1.5443866      0.81211097   
   2014400  -6112.4821     -6181.8554      69.373313      25517.59       414.43653      8363.1093      1.5452863      0.81211097   
   2014500  -6114.0764     -6183.6084      69.531999      25133.719      415.38452      8342.5126      1.5491014      0.81211097   
   2014600  -6113.0022     -6183.55        70.547861      24255.704      421.45328      8307.581       1.555615       0.81211097   
   2014700  -6112.2193     -6182.3421      70.122776      27058.047      418.91382      8265.0681      1.5636166      0.81211097   
   2014800  -6110.7092     -6182.4795      71.770243      28299.739      428.7558       8227.1862      1.5708163      0.81211097   
   2014900  -6110.1613     -6182.9452      72.783928      29503.425      434.81156      8203.4219      1.5753667      0.81211097   
   2015000  -6112.8375     -6180.4914      67.653887      31394.569      404.16467      8195.4022      1.5769083      0.86807044   
   2015100  -6114.3707     -6182.9526      68.581928      32765.018      409.70879      8203.684       1.5753164      0.86807044   
   2015200  -6115.5271     -6185.2307      69.703589      30940.847      416.4096       8223.5621      1.5715085      0.86807044   
   2015300  -6115.3009     -6183.7478      68.446933      27592.17       408.90233      8250.496       1.5663783      0.86807044   
   2015400  -6114.4336     -6183.1357      68.702073      29707.418      410.42654      8283.4224      1.560152       0.86807044   
   2015500  -6113.26       -6183.7585      70.498473      29855.2        421.15824      8318.0317      1.5536606      0.86807044   
   2015600  -6115.1336     -6182.9637      67.830079      23471.976      405.21724      8343.5947      1.5489005      0.86807044   
   2015700  -6116.1382     -6182.0098      65.871589      24852.172      393.51721      8356.1569      1.5465719      0.86807044   
   2015800  -6115.8602     -6183.8736      68.013317      28620.981      406.3119       8347.9653      1.5480896      0.86807044   
   2015900  -6112.1328     -6182.3106      70.177759      27414.386      419.2423       8322.2955      1.5528646      0.86807044   
   2016000  -6112.5774     -6182.7427      70.165338      29263.718      419.16809      8288.2316      1.5592467      0.84411554   
   2016100  -6111.5981     -6181.404       69.805927      24266.491      417.02097      8254.6363      1.5655926      0.84411554   
   2016200  -6112.218      -6181.5688      69.350756      28267.594      414.30177      8229.5432      1.5703664      0.84411554   
   2016300  -6114.2263     -6185.2806      71.054254      27163.131      424.47848      8216.3334      1.5728911      0.84411554   
   2016400  -6112.4702     -6180.9332      68.463005      32375.866      408.99834      8213.1509      1.5735006      0.84411554   
   2016500  -6110.5365     -6180.7903      70.253849      32690.942      419.69685      8220.6884      1.5720579      0.84411554   
   2016600  -6112.765      -6184.0431      71.278108      28820.743      425.81578      8243.2512      1.5677549      0.84411554   
   2016700  -6112.5494     -6183.8771      71.327739      28021.95       426.11228      8274.4263      1.5618482      0.84411554   
   2016800  -6113.3757     -6181.6716      68.29596       22351.287      408.00041      8306.663       1.5557869      0.84411554   
   2016900  -6114.2162     -6181.1943      66.978091      24533.124      400.12746      8335.3609      1.5504305      0.84411554   
   2017000  -6112.3266     -6183.1946      70.868019      26605.258      423.36591      8355.3545      1.5467205      0.74856203   
   2017100  -6110.3604     -6181.1029      70.742562      24831.127      422.61643      8361.765       1.5455347      0.74856203   
   2017200  -6109.7218     -6181.6732      71.951413      24268.923      429.83811      8351.2738      1.5474763      0.74856203   
   2017300  -6111.4029     -6181.3537      69.950779      26550.279      417.88631      8326.5555      1.5520701      0.74856203   
   2017400  -6110.1065     -6180.4945      70.387977      28988.93       420.49814      8294.9732      1.5579795      0.74856203   
   2017500  -6112.5697     -6181.1009      68.531152      29236.281      409.40546      8260.3624      1.5645074      0.74856203   
   2017600  -6112.5279     -6182.7502      70.222244      27951.151      419.50805      8224.1209      1.5714017      0.74856203   
   2017700  -6114.8682     -6187.2541      72.385878      28577.55       432.43361      8193.3167      1.5773097      0.74856203   
   2017800  -6116.1752     -6183.1234      66.94812       30398.731      399.94842      8170.9218      1.5816328      0.74856203   
   2017900  -6115.7422     -6185.074       69.331878      31130.786      414.189        8163.7386      1.5830245      0.74856203   
   2018000  -6114.6086     -6182.961       68.352354      30852.707      408.33732      8175.6592      1.5807163      0.84592541   
   2018100  -6113.9282     -6181.4818      67.553634      29770.898      403.56576      8209.1464      1.5742682      0.84592541   
   2018200  -6113.1377     -6182.1627      69.024986      26054.461      412.35562      8258.5413      1.5648524      0.84592541   
   2018300  -6115.2241     -6183.6428      68.41873       25026.019      408.73384      8312.4478      1.5547042      0.84592541   
   2018400  -6115.6107     -6186.2936      70.682866      22423.465      422.2598       8360.5237      1.5457642      0.84592541   
   2018500  -6113.9527     -6183.9155      69.962705      23911.553      417.95756      8388.3373      1.5406388      0.84592541   
   2018600  -6112.5199     -6180.703       68.183091      25292.78       407.32614      8391.3457      1.5400865      0.84592541   
   2018700  -6111.2216     -6180.4923      69.270668      28244.175      413.82333      8372.4352      1.543565       0.84592541   
   2018800  -6111.7193     -6182.066       70.346739      31607.964      420.25178      8339.228       1.5497115      0.84592541   
   2018900  -6110.8879     -6183.5216      72.633701      31650.285      433.9141       8295.0885      1.5579578      0.84592541   
   2019000  -6110.7067     -6181.2829      70.576249      29124.718      421.62287      8247.3566      1.5669745      0.87237018   
   2019100  -6112.0373     -6183.9383      71.901032      33108.597      429.53713      8208.065       1.5744756      0.87237018   
   2019200  -6111.9533     -6183.6091      71.655767      32993.072      428.07192      8184.8447      1.5789424      0.87237018   
   2019300  -6112.0007     -6183.2893      71.288625      32133.647      425.87861      8182.3163      1.5794303      0.87237018   
   2019400  -6110.5611     -6182.3417      71.780556      35050.273      428.81741      8200.038       1.5760168      0.87237018   
   2019500  -6111.6979     -6183.3268      71.628882      33178.292      427.91131      8232.787       1.5697476      0.87237018   
   2019600  -6111.9188     -6182.0463      70.127465      29277.099      418.94184      8275.6442      1.5616184      0.87237018   
   2019700  -6111.7919     -6181.0155      69.223668      31999.493      413.54255      8316.6539      1.553918       0.87237018   
   2019800  -6113.5114     -6184.0398      70.528483      24527.398      421.33752      8347.1967      1.5482321      0.87237018   
   2019900  -6113.9561     -6183.553       69.59695       26196.698      415.77254      8360.5002      1.5457685      0.87237018   
   2020000  -6115.4502     -6182.544       67.093811      25641.469      400.81877      8357.2427      1.546371       0.84059468   
   2020033  -6113.8706     -6183.381       69.510364      25240.87       415.25527      8352.6595      1.5472195      0.84059468   
Loop time of 8569.72 on 1 procs for 2000000 steps with 1296 atoms

Performance: 10.082 ns/day, 2.380 hours/ns, 233.380 timesteps/s, 302.460 katom-step/s
99.8% CPU use with 1 MPI tasks x 1 OpenMP threads

MPI task timing breakdown:
Section |  min time  |  avg time  |  max time  |%varavg| %total
---------------------------------------------------------------
Pair    | 6586.6     | 6586.6     | 6586.6     |   0.0 | 76.86
Neigh   | 85.962     | 85.962     | 85.962     |   0.0 |  1.00
Comm    | 84.492     | 84.492     | 84.492     |   0.0 |  0.99
Output  | 5.1752     | 5.1752     | 5.1752     |   0.0 |  0.06
Modify  | 1763.7     | 1763.7     | 1763.7     |   0.0 | 20.58
Other   |            | 43.78      |            |       |  0.51

Nlocal:           1296 ave        1296 max        1296 min
Histogram: 1 0 0 0 0 0 0 0 0 0
Nghost:           4419 ave        4419 max        4419 min
Histogram: 1 0 0 0 0 0 0 0 0 0
Neighs:              0 ave           0 max           0 min
Histogram: 1 0 0 0 0 0 0 0 0 0
FullNghs:       231628 ave      231628 max      231628 min
Histogram: 1 0 0 0 0 0 0 0 0 0

Total # of neighbors = 231628
Ave neighs/atom = 178.72531
Neighbor list builds = 200000
Dangerous builds = 200000

unfix		3
unfix		4
Total wall time: 2:24:16
