LAMMPS (27 Jun 2024)
KOKKOS mode with Kokkos version 4.3.1 is enabled (src/KOKKOS/kokkos.cpp:72)
  will use up to 1 GPU(s) per node
WARNING: When using a single thread, the Kokkos Serial backend (i.e. Makefile.kokkos_mpi_only) gives better performance than the OpenMP backend (src/KOKKOS/kokkos.cpp:202)
  using 1 OpenMP thread(s) per MPI task
Reading data file ...
  orthogonal box = (0 0 0) to (20.13213 20.132272 35.107669)
  1 by 1 by 1 MPI processor grid
  reading atoms ...
  2160 atoms
  read_data CPU = 0.010 seconds
ACE/AL version: 2023.11.25
Loading /pc2/users/a/acepdw01/work/phase_diagram/pot_dir/interim_potential_ladder_step_1.yaml
Total number of basis functions
	H: 23 (r=1) 664 (r>1)
	O: 23 (r=1) 664 (r>1)
Mapping LAMMPS atom type #1(H) -> ACE species type #0
Mapping LAMMPS atom type #2(O) -> ACE species type #1
Loading ASI /pc2/users/a/acepdw01/work/phase_diagram/pot_dir/interim_potential_ladder_step_1.asi
LINEAR ASI is loaded

CITE-CITE-CITE-CITE-CITE-CITE-CITE-CITE-CITE-CITE-CITE-CITE-CITE

Your simulation uses code contributions which should be cited:
- Type Label Framework: https://doi.org/10.1021/acs.jpcb.3c08419
The log file lists these citations in BibTeX format.

CITE-CITE-CITE-CITE-CITE-CITE-CITE-CITE-CITE-CITE-CITE-CITE-CITE

Switching to 'neigh_modify every 1 delay 0 check yes' setting during minimization
Neighbor list info ...
  update: every = 1 steps, delay = 0 steps, check = yes
  max neighbors/atom: 2000, page size: 100000
  master list distance cutoff = 6.5
  ghost atom cutoff = 6.5
  binsize = 6.5, bins = 4 4 6
  1 neighbor lists, perpetual/occasional/extra = 1 0 0
  (1) pair pace/extrapolation/kk, perpetual
      attributes: full, newton on, kokkos_device
      pair build: full/bin/kk/device
      stencil: full/bin/3d
      bin: kk/device
Setting up cg/kk style minimization ...
  Unit style    : metal
  Current step  : 0
WARNING: Fix with atom-based arrays not compatible with sending data in Kokkos communication, switching to classic exchange/border communication (src/KOKKOS/comm_kokkos.cpp:754)
WARNING: Fix with atom-based arrays not compatible with Kokkos sorting on device, switching to classic host sorting (src/KOKKOS/atom_kokkos.cpp:216)
Per MPI rank memory allocation (min/avg/max) = 1808 | 1808 | 1808 Mbytes
   Step         TotEng         PotEng         KinEng         Press           Temp          Volume        Density     c_max_pace_gamma
         0  -10394.812     -10394.812      0              10356.492      0              14229.332      1.513704       0.94301683   
       100  -10405.399     -10405.399      0              6153.7788      0              14229.332      1.513704       0.94301683   
       200  -10407.585     -10407.585      0              6517.8061      0              14229.332      1.513704       0.94301683   
       300  -10408.546     -10408.546      0              6308.0667      0              14229.332      1.513704       0.94301683   
       400  -10408.808     -10408.808      0              6401.0083      0              14229.332      1.513704       0.94301683   
       500  -10408.847     -10408.847      0              6349.4857      0              14229.332      1.513704       0.94301683   
       600  -10408.847     -10408.847      0              6348.2489      0              14229.332      1.513704       0.94301683   
       700  -10408.848     -10408.848      0              6349.2396      0              14229.332      1.513704       0.94301683   
       800  -10408.849     -10408.849      0              6350.6408      0              14229.332      1.513704       0.94301683   
       900  -10408.849     -10408.849      0              6350.9374      0              14229.332      1.513704       0.94301683   
       915  -10408.849     -10408.849      0              6350.8971      0              14229.332      1.513704       0.94301683   
Loop time of 8.94014 on 1 procs for 915 steps with 2160 atoms

99.0% CPU use with 1 MPI tasks x 1 OpenMP threads

Minimization stats:
  Stopping criterion = force tolerance
  Energy initial, next-to-last, final = 
     -10394.8116753497  -10408.8486802764  -10408.8486802818
  Force two-norm initial, final = 17.431636 0.00048967283
  Force max component initial, final = 3.1552255 0.00018489337
  Final line search alpha, max atom move = 1 0.00018489337
  Iterations, force evaluations = 915 1826

MPI task timing breakdown:
Section |  min time  |  avg time  |  max time  |%varavg| %total
---------------------------------------------------------------
Pair    | 8.1736     | 8.1736     | 8.1736     |   0.0 | 91.43
Neigh   | 0.022591   | 0.022591   | 0.022591   |   0.0 |  0.25
Comm    | 0.056895   | 0.056895   | 0.056895   |   0.0 |  0.64
Output  | 0.001238   | 0.001238   | 0.001238   |   0.0 |  0.01
Modify  | 0.37758    | 0.37758    | 0.37758    |   0.0 |  4.22
Other   |            | 0.3083     |            |       |  3.45

Nlocal:           2160 ave        2160 max        2160 min
Histogram: 1 0 0 0 0 0 0 0 0 0
Nghost:           5977 ave        5977 max        5977 min
Histogram: 1 0 0 0 0 0 0 0 0 0
Neighs:              0 ave           0 max           0 min
Histogram: 1 0 0 0 0 0 0 0 0 0
FullNghs:       373402 ave      373402 max      373402 min
Histogram: 1 0 0 0 0 0 0 0 0 0

Total # of neighbors = 373402
Ave neighs/atom = 172.8713
Neighbor list builds = 51
Dangerous builds = 0
Setting up Verlet run ...
  Unit style    : metal
  Current step  : 915
  Time step     : 0.0005
WARNING: Fix with atom-based arrays not compatible with Kokkos sorting on device, switching to classic host sorting (src/KOKKOS/atom_kokkos.cpp:216)
Per MPI rank memory allocation (min/avg/max) = 1810 | 1810 | 1810 Mbytes
   Step         TotEng         PotEng         KinEng         Press           Temp          Volume        Density     c_max_pace_gamma
       915  -10272.103     -10408.849      136.7456       16615.637      490            14229.332      1.513704       0.94301683   
      1000  -10242.73      -10315.236      72.505967      26788.217      259.81036      14188.676      1.5180413      0.81539568   
      1100  -10214.693     -10309.302      94.609683      27917.445      339.01452      14106.845      1.5268472      0.81539568   
      1200  -10196.436     -10300.663      104.22638      29732.519      373.474        14019.035      1.5364108      0.81539568   
      1300  -10185.446     -10289.734      104.28807      35476.399      373.69507      13950.023      1.5440115      0.81539568   
      1400  -10172.835     -10287.328      114.49297      37038.229      410.26222      13922.858      1.5470241      0.81539568   
      1500  -10162.647     -10278.413      115.76569      34735.41       414.82277      13941.878      1.5449136      0.81539568   
      1600  -10157.591     -10277.469      119.87772      35587.581      429.5574       14011.64       1.5372216      0.81539568   
      1700  -10152.191     -10274.088      121.897        34434.993      436.79308      14121.945      1.5252146      0.81539568   
      1800  -10147.059     -10273.232      126.17235      29743.874      452.11293      14253.034      1.5111868      0.81539568   
      1900  -10143.627     -10270.812      127.1844       30507.2        455.7394       14380.474      1.4977946      0.81539568   
      2000  -10140.803     -10267.674      126.87108      28926.14       454.61665      14478.569      1.4876468      0.80960268   
      2100  -10139.015     -10272.032      133.01709      27178.24       476.63965      14537.043      1.4816629      0.80960268   
      2200  -10137.083     -10268.951      131.86846      26138.929      472.52375      14554.112      1.4799252      0.80960268   
      2300  -10134.144     -10265.753      131.60916      27523.038      471.5946       14537.789      1.4815868      0.80960268   
      2400  -10130.683     -10261.235      130.55139      30976.387      467.8043       14504.069      1.4850313      0.80960268   
      2500  -10131.563     -10264.428      132.86429      27057.238      476.09211      14466.788      1.4888582      0.80960268   
      2600  -10132.173     -10264.833      132.65973      33677.091      475.35912      14427.442      1.4929186      0.80960268   
      2700  -10127.98      -10263.13       135.15003      29987.586      484.28261      14394.825      1.4963013      0.80960268   
      2800  -10127.853     -10263.295      135.44163      33383.437      485.32748      14373.261      1.4985462      0.80960268   
      2900  -10122.892     -10263.088      140.19584      32989.169      502.36322      14361.689      1.4997537      0.80960268   
      3000  -10123.045     -10261.6        138.55455      33286.382      496.48199      14362.951      1.499622       0.89568545   
      3100  -10123.551     -10260.103      136.5516       33053.403      489.30483      14379.748      1.4978702      0.89568545   
      3200  -10123.45      -10260          136.54974      35607.072      489.29818      14415.865      1.4941175      0.89568545   
      3300  -10126.193     -10260.423      134.22918      29441.553      480.98293      14462.423      1.4893076      0.89568545   
      3400  -10121.842     -10260.388      138.54583      28421.895      496.45077      14503.835      1.4850552      0.89568545   
      3500  -10120.939     -10257.071      136.13189      30844.288      487.80089      14536.675      1.4817003      0.89568545   
      3600  -10121.037     -10254.903      133.86633      32858.244      479.68273      14557.208      1.4796104      0.89568545   
      3700  -10121.658     -10261.804      140.14533      30683.037      502.18224      14564.699      1.4788494      0.89568545   
      3800  -10123.713     -10259.628      135.91556      31141.21       487.02572      14557.768      1.4795535      0.89568545   
      3900  -10126.309     -10258.362      132.0532       28032.378      473.18574      14540.43       1.4813177      0.89568545   
      4000  -10124.989     -10260.767      135.77816      32183.116      486.53339      14515.05       1.4839078      0.95069895   
      4100  -10124.596     -10256.09       131.49427      30059.602      471.18294      14489.286      1.4865465      0.95069895   
      4200  -10123.25      -10257.312      134.06253      30502.578      480.38575      14466.769      1.4888601      0.95069895   
      4300  -10122.768     -10259.523      136.7554       30981.219      490.03512      14449.846      1.4906039      0.95069895   
      4400  -10124.308     -10260.21       135.90232      36555.381      486.97829      14445.186      1.4910847      0.95069895   
      4500  -10122.11      -10259.745      137.6351       32731.62       493.18732      14453.923      1.4901834      0.95069895   
      4600  -10125.145     -10259.506      134.36165      32768.857      481.45759      14468.949      1.4886359      0.95069895   
      4700  -10124.882     -10260.431      135.54963      33415.858      485.7145       14479.977      1.4875022      0.95069895   
      4800  -10124.003     -10262.715      138.71227      33882.6        497.04717      14490.708      1.4864005      0.95069895   
      4900  -10123.147     -10259.821      136.67441      30725.304      489.74492      14499.017      1.4855487      0.95069895   
      5000  -10128.273     -10264.115      135.84231      30848.651      486.76325      14501.63       1.485281       0.84006543   
      5100  -10127.205     -10261.426      134.22176      31699.395      480.95634      14498.424      1.4856095      0.84006543   
      5200  -10126.164     -10261.027      134.86306      27162.059      483.25429      14493.816      1.4860818      0.84006543   
      5300  -10126.793     -10260.344      133.55073      26511.429      478.55183      14485.802      1.486904       0.84006543   
      5400  -10123.161     -10260.877      137.71611      25851.043      493.47761      14478.679      1.4876355      0.84006543   
      5500  -10122.237     -10261.769      139.53187      27331.052      499.98403      14469.547      1.4885744      0.84006543   
      5600  -10118.432     -10257.289      138.8575       26247.09       497.56755      14457.448      1.4898201      0.84006543   
      5700  -10120.739     -10258.636      137.8967       29962.296      494.12475      14448.836      1.4907081      0.84006543   
      5800  -10121.04      -10259.729      138.68954      33895.009      496.96571      14445.939      1.491007       0.84006543   
      5900  -10126.898     -10261.413      134.51537      30425.044      482.00844      14452.447      1.4903356      0.84006543   
      6000  -10129.307     -10261.554      132.24654      27506.817      473.87855      14461.137      1.48944        0.89012422   
      6100  -10126.075     -10263.073      136.99732      27926.043      490.902        14468.706      1.4886608      0.89012422   
      6200  -10125.86      -10263.892      138.03229      30156.402      494.6106       14470.439      1.4884826      0.89012422   
      6300  -10124.494     -10258.406      133.91227      30957.161      479.84732      14464.029      1.4891422      0.89012422   
      6400  -10123.392     -10260.631      137.23835      29104.255      491.76568      14454.777      1.4900954      0.89012422   
      6500  -10122.474     -10262.118      139.64372      30088.472      500.38481      14446.091      1.4909914      0.89012422   
      6600  -10123.625     -10259.052      135.42704      33064.281      485.27521      14440.817      1.4915359      0.89012422   
      6700  -10125.188     -10259.95       134.76204      28209.934      482.89232      14437.811      1.4918464      0.89012422   
      6800  -10126.675     -10261.912      135.23684      28420.134      484.59365      14432.549      1.4923903      0.89012422   
      6900  -10125.893     -10262.223      136.33024      26447.763      488.51164      14424.864      1.4931854      0.89012422   
      7000  -10125.723     -10258.454      132.73128      28983.448      475.61551      14412.94       1.4944208      0.94445652   
      7100  -10124.311     -10258.579      134.26801      30425.687      481.12205      14406.485      1.4950903      0.94445652   
      7200  -10122.046     -10260.82       138.77355      27892.541      497.26676      14410.178      1.4947072      0.94445652   
      7300  -10122.442     -10262.317      139.87499      29275.799      501.21352      14425.572      1.4931121      0.94445652   
      7400  -10124.482     -10261.661      137.17946      31031.939      491.55466      14446.27       1.4909728      0.94445652   
      7500  -10124.54      -10260.627      136.0875       31430.892      487.64182      14470.399      1.4884867      0.94445652   
      7600  -10122.037     -10256.486      134.4485       29343.398      481.76881      14493.039      1.4861615      0.94445652   
      7700  -10125.208     -10259.587      134.37859      28972.739      481.51832      14508.264      1.4846019      0.94445652   
      7800  -10126.255     -10260.042      133.78722      27308.123      479.39926      14508.506      1.4845772      0.94445652   
      7900  -10123.898     -10261.867      137.96979      28621.929      494.38664      14487.486      1.4867311      0.94445652   
      8000  -10125.284     -10263.159      137.87546      28849.812      494.04861      14447.256      1.4908711      0.80100631   
      8100  -10122.938     -10259.177      136.23907      29373.248      488.18497      14393.466      1.4964426      0.80100631   
      8200  -10124.965     -10260.179      135.21415      30454.991      484.51235      14343.706      1.501634       0.80100631   
      8300  -10126.862     -10263.579      136.71742      29110.209      489.89902      14302.172      1.5059948      0.80100631   
      8400  -10125.291     -10262.726      137.43503      34443.868      492.47044      14273.579      1.5090116      0.80100631   
      8500  -10127.214     -10262.718      135.50325      28376.114      485.54831      14260.407      1.5104054      0.80100631   
      8600  -10126.867     -10262.703      135.8357       28285.118      486.73955      14258.684      1.510588       0.80100631   
      8700  -10130.256     -10264.323      134.06706      28206.135      480.40201      14261.182      1.5103234      0.80100631   
      8800  -10133.008     -10270.222      137.2137       30080.999      491.67732      14264.14       1.5100101      0.80100631   
      8900  -10134.158     -10269.956      135.79745      28064.56       486.60251      14263.897      1.5100359      0.80100631   
      9000  -10129.798     -10268.15       138.35229      27762.122      495.75725      14264.258      1.5099976      0.81938799   
      9100  -10130.978     -10264.893      133.91545      26954.347      479.85872      14263.92       1.5100334      0.81938799   
      9200  -10130.612     -10266.699      136.08671      29288.525      487.63899      14263.655      1.5100615      0.81938799   
      9300  -10128.527     -10266.165      137.63821      30339.42       493.19847      14261.928      1.5102443      0.81938799   
      9400  -10128.874     -10268.236      139.36228      28031.393      499.37633      14255.838      1.5108896      0.81938799   
      9500  -10128.391     -10266.83       138.43904      27076.73       496.06811      14246.322      1.5118987      0.81938799   
      9600  -10131.028     -10268.807      137.77925      25834.132      493.70387      14243.364      1.5122127      0.81938799   
      9700  -10130.276     -10268.283      138.00642      27305.531      494.5179       14241.476      1.5124132      0.81938799   
      9800  -10130.275     -10270.812      140.53699      29995.223      503.58568      14233.851      1.5132234      0.81938799   
      9900  -10130.689     -10269.682      138.99351      31087.44       498.05493      14225.854      1.514074       0.81938799   
     10000  -10129.69      -10269.737      140.04731      32208.682      501.83101      14217.972      1.5149134      0.79298909   
     10100  -10128.254     -10266.683      138.42889      29675.488      496.03171      14208.831      1.515888       0.79298909   
     10200  -10132.207     -10269.461      137.25427      31989.271      491.8227       14205.467      1.516247       0.79298909   
     10300  -10133.489     -10270.825      137.33584      29136.408      492.115        14202.182      1.5165977      0.79298909   
     10400  -10132.175     -10270.206      138.0315       28633.482      494.60777      14196.148      1.5172423      0.79298909   
     10500  -10132.779     -10266.606      133.82635      33702.914      479.53947      14189.278      1.5179769      0.79298909   
     10600  -10136.693     -10273.315      136.62204      30982.885      489.55726      14189.266      1.5179782      0.79298909   
     10700  -10136.18      -10276.087      139.9067       31693.307      501.32715      14188.89       1.5180185      0.79298909   
     10800  -10135.838     -10273.478      137.64032      33016.623      493.20604      14188.597      1.5180498      0.79298909   
     10900  -10135.95      -10271.935      135.98506      27878.644      487.27476      14189.817      1.5179193      0.79298909   
     11000  -10135.284     -10271.571      136.28628      26488.718      488.35413      14188.901      1.5180172      0.89396559   
     11100  -10135.268     -10269.915      134.64613      30292.115      482.47698      14183.91       1.5185514      0.89396559   
     11200  -10136.367     -10273.656      137.28919      29823.967      491.94785      14181.32       1.5188287      0.89396559   
     11300  -10135.075     -10270.64       135.56545      30344.705      485.77119      14176.136      1.5193842      0.89396559   
     11400  -10137.166     -10275.88       138.71405      30236.671      497.05355      14170.098      1.5200316      0.89396559   
     11500  -10136.175     -10274.67       138.49458      30458.419      496.26711      14160.127      1.521102       0.89396559   
     11600  -10137.972     -10275.169      137.19695      25695.887      491.61733      14150.108      1.5221789      0.89396559   
     11700  -10133.893     -10272.647      138.7542       27178.377      497.1974       14136.33       1.5236625      0.89396559   
     11800  -10128.587     -10265.841      137.25429      34061.955      491.82278      14124.647      1.5249228      0.89396559   
     11900  -10124.869     -10265.011      140.14236      29107.247      502.1716       14124.19       1.5249722      0.89396559   
     12000  -10124.724     -10265.442      140.71719      28239.326      504.23138      14138.427      1.5234365      0.85011147   
     12100  -10129.42      -10267.076      137.6557       31062.487      493.26114      14162.559      1.5208408      0.85011147   
     12200  -10131.011     -10272.057      141.0458       28174.17       505.40888      14187.21       1.5181982      0.85011147   
     12300  -10132.237     -10273.431      141.1942       30374.344      505.94067      14202.84       1.5165274      0.85011147   
     12400  -10128.701     -10266.367      137.6663       27884.413      493.29915      14205.137      1.5162822      0.85011147   
     12500  -10127.867     -10268.707      140.84072      26081.265      504.67404      14199.072      1.5169299      0.85011147   
     12600  -10131.322     -10270.797      139.47476      28160.207      499.77937      14187.619      1.5181544      0.85011147   
     12700  -10134.542     -10273.003      138.46028      31031.499      496.14422      14170.152      1.5200258      0.85011147   
     12800  -10133.346     -10271.947      138.60083      31672.362      496.64785      14145.374      1.5226884      0.85011147   
     12900  -10132.097     -10268.544      136.44715      29461.533      488.93056      14117.274      1.5257193      0.85011147   
     13000  -10133.994     -10270.077      136.08323      28964.309      487.62654      14094.077      1.5282304      0.99263286   
     13100  -10133.519     -10274.405      140.8857       27302.052      504.83519      14075.969      1.5301963      0.99263286   
     13200  -10133.27      -10272.495      139.22515      33043.842      498.88495      14062.816      1.5316275      0.99263286   
     13300  -10133.043     -10270.625      137.58164      31282.971      492.99578      14061.855      1.5317322      0.99263286   
     13400  -10135.548     -10273.809      138.26073      33080.057      495.42915      14071.543      1.5306777      0.99263286   
     13500  -10133.172     -10273.571      140.3989       35606.837      503.09086      14085.759      1.5291329      0.99263286   
     13600  -10131.808     -10270.902      139.09352      27865.944      498.4133       14105.682      1.5269731      0.99263286   
     13700  -10131.011     -10268.342      137.33169      27936.08       492.10014      14127.555      1.5246089      0.99263286   
     13800  -10131.19      -10271.008      139.81764      28133.824      501.00803      14149.543      1.5222398      0.99263286   
     13900  -10130.687     -10272.01       141.32305      25920.122      506.40235      14168.235      1.5202315      0.99263286   
     14000  -10132.205     -10270.112      137.90723      27668.352      494.16246      14179.245      1.519051       0.79636999   
     14100  -10133.276     -10273.462      140.18646      27769.935      502.32964      14185.481      1.5183832      0.79636999   
     14200  -10134.652     -10276.915      142.26298      25643.373      509.77042      14178.539      1.5191266      0.79636999   
     14300  -10137.207     -10272.931      135.7243       27534.475      486.34038      14155.403      1.5216095      0.79636999   
     14400  -10133.311     -10271.436      138.12482      29373.628      494.94217      14121.552      1.525257       0.79636999   
     14500  -10131.581     -10271.079      139.49826      31094.777      499.86359      14080.534      1.5297003      0.79636999   
     14600  -10132.884     -10272.268      139.38374      33925.717      499.45325      14038.169      1.5343167      0.79636999   
     14700  -10132.849     -10273.7        140.8502       33182.447      504.708        14007.414      1.5376855      0.79636999   
     14800  -10132.767     -10271.675      138.90753      34078.713      497.74683      13992.632      1.5393098      0.79636999   
     14900  -10134.103     -10271.481      137.37773      31783.584      492.26512      13999.437      1.5385616      0.79636999   
     15000  -10137.944     -10275.196      137.25141      29145.186      491.81245      14020.869      1.5362098      0.77985229   
     15100  -10138.014     -10277.582      139.56775      28617.763      500.1126       14050.488      1.5329714      0.77985229   
     15200  -10136.684     -10274.021      137.33727      26498.784      492.12014      14078.085      1.5299664      0.77985229   
     15300  -10138.062     -10276.06       137.99766      27870.457      494.48651      14100.242      1.5275622      0.77985229   
     15400  -10137.28      -10273.17       135.88969      29676.452      486.93301      14113.649      1.5261111      0.77985229   
     15500  -10139.426     -10275.298      135.87188      33053.881      486.8692       14119.019      1.5255306      0.77985229   
     15600  -10141.146     -10275.441      134.29502      27702.633      481.21886      14113.42       1.5261359      0.77985229   
     15700  -10140.117     -10275.828      135.71096      28712.983      486.29257      14095.147      1.5281143      0.77985229   
     15800  -10141.662     -10274.354      132.69127      24628.636      475.47212      14070.404      1.5308016      0.77985229   
     15900  -10141.648     -10279.57       137.92293      27552.392      494.21872      14045.19       1.5335497      0.77985229   
     16000  -10141.707     -10276.319      134.61235      30718.828      482.35592      14021.911      1.5360957      0.7854229    
     16100  -10143.185     -10280.37       137.18463      28454.171      491.57318      14002.316      1.5382453      0.7854229    
     16200  -10142.723     -10280.135      137.41158      30466.891      492.3864       13987.209      1.5399067      0.7854229    
     16300  -10141.568     -10278.362      136.79361      31295.31       490.17204      13983.728      1.54029        0.7854229    
     16400  -10139.662     -10278.206      138.54344      31283.177      496.44219      13993.06       1.5392627      0.7854229    
     16500  -10137.365     -10274.567      137.20261      29629.031      491.63759      14011.392      1.5372489      0.7854229    
     16600  -10136.344     -10271.02       134.67649      29574.974      482.58577      14034.673      1.5346988      0.7854229    
     16700  -10139.583     -10278.81       139.22726      29557.663      498.89254      14061.082      1.5318165      0.7854229    
     16800  -10142.448     -10278.638      136.18984      27908.958      488.00853      14082.958      1.5294369      0.7854229    
     16900  -10139.95      -10279.9        139.9506       28454.776      501.48447      14096.218      1.5279982      0.7854229    
     17000  -10136.413     -10272.893      136.47938      30119.741      489.04605      14101.904      1.5273821      0.79348032   
     17100  -10140.891     -10275.223      134.332        28995.481      481.35135      14104.202      1.5271333      0.79348032   
     17200  -10138.007     -10276.101      138.0939       27283.767      494.83135      14097.536      1.5278554      0.79348032   
     17300  -10140.921     -10276.466      135.54497      35822.634      485.6978       14080.371      1.529718       0.79348032   
     17400  -10140.616     -10280.362      139.74672      31349.584      500.75391      14056.693      1.5322947      0.79348032   
     17500  -10137.923     -10277.39       139.46717      31594.334      499.75219      14028.942      1.5353258      0.79348032   
     17600  -10133.832     -10272.963      139.13074      31403.716      498.54667      14006.499      1.5377859      0.79348032   
     17700  -10136.09      -10273.036      136.94604      32286.738      490.71822      13999.201      1.5385876      0.79348032   
     17800  -10135.668     -10276.637      140.9689       28793.363      505.13332      14004.121      1.538047       0.79348032   
     17900  -10133.533     -10273.601      140.06755      27161.739      501.90354      14016.394      1.5367003      0.79348032   
     18000  -10137.152     -10274.733      137.58182      26545.361      492.99644      14032.334      1.5349546      0.80697411   
     18100  -10139.406     -10274.409      135.00297      28088.667      483.75562      14045.247      1.5335434      0.80697411   
     18200  -10137.032     -10275.762      138.72976      31202.839      497.10982      14052.131      1.5327922      0.80697411   
     18300  -10136.259     -10273.215      136.95566      33614.295      490.75272      14055.619      1.5324118      0.80697411   
     18400  -10134.379     -10272.763      138.3844       32806.142      495.87229      14057.592      1.5321967      0.80697411   
     18500  -10135.135     -10278.376      143.24176      29375.942      513.27767      14056.685      1.5322956      0.80697411   
     18600  -10134.919     -10273.977      139.05738      32828.064      498.28381      14053.447      1.5326486      0.80697411   
     18700  -10131.511     -10273.869      142.35763      31386.375      510.10956      14051.877      1.5328199      0.80697411   
     18800  -10136.328     -10274.046      137.71748      31825.738      493.48252      14050.352      1.5329862      0.80697411   
     18900  -10139.55      -10277.45       137.90026      25828.172      494.13748      14041.248      1.5339802      0.80697411   
     19000  -10136.513     -10275.256      138.74283      30779.374      497.15666      14026.651      1.5355765      0.89109351   
     19100  -10134.843     -10272.692      137.8484       32648.965      493.95166      14012.383      1.5371402      0.89109351   
     19200  -10134.364     -10272.754      138.39052      30776.338      495.89422      14006.744      1.537759       0.89109351   
     19300  -10137.208     -10277.827      140.61897      31507.29       503.87944      14009.264      1.5374824      0.89109351   
     19400  -10141.696     -10274.68       132.98341      31615.454      476.51897      14017.761      1.5365504      0.89109351   
     19500  -10142.148     -10278.074      135.92591      29942.087      487.06282      14024.608      1.5358002      0.89109351   
     19600  -10144.823     -10275.643      130.82017      28296.662      468.76744      14024.369      1.5358264      0.89109351   
     19700  -10147.841     -10282.274      134.43346      30731.036      481.71492      14015.752      1.5367707      0.89109351   
     19800  -10143.937     -10277.928      133.99105      30346.179      480.12964      13995.329      1.5390133      0.89109351   
     19900  -10143.238     -10277.151      133.91313      28952.126      479.85043      13967.75       1.542052       0.89109351   
     20000  -10141.367     -10279.203      137.83573      31988.644      493.90627      13939.864      1.5451367      0.87999616   
     20100  -10144.216     -10277.938      133.72142      32059.732      479.16348      13914.683      1.5479329      0.87999616   
     20200  -10144.214     -10277.22       133.00606      30316.553      476.60012      13896.114      1.5500014      0.87999616   
     20300  -10143.854     -10278.735      134.88042      31297.168      483.31652      13888.145      1.5508909      0.87999616   
     20400  -10143.036     -10280.625      137.58883      32394.301      493.02154      13891.432      1.5505239      0.87999616   
     20500  -10141.478     -10279.059      137.58116      26172.815      492.99405      13906.907      1.5487984      0.87999616   
     20600  -10142.053     -10281.366      139.3128       28153.488      499.19905      13935.165      1.5456578      0.87999616   
     20700  -10137.941     -10279.487      141.54591      29491.226      507.20093      13972.295      1.5415503      0.87999616   
     20800  -10136.552     -10273.36       136.8086       27401.185      490.22574      14020.092      1.536295       0.87999616   
     20900  -10139.12      -10276.237      137.11707      31487.8        491.33109      14071.854      1.5306438      0.87999616   
     21000  -10144.376     -10279.218      134.84234      28134.516      483.18005      14116.708      1.5257804      0.82676179   
     21100  -10142.621     -10279.04       136.41956      27600.032      488.83168      14147.997      1.522406       0.82676179   
     21200  -10139.866     -10275.341      135.47521      32373.185      485.4478       14157.162      1.5214205      0.82676179   
     21300  -10143.77      -10279.479      135.70963      28991.353      486.28782      14139.952      1.5232723      0.82676179   
     21400  -10142.295     -10277.189      134.89385      26542.827      483.36462      14091.786      1.5284788      0.82676179   
     21500  -10137.983     -10273.396      135.41364      32351.293      485.22719      14022.943      1.5359827      0.82676179   
     21600  -10133.799     -10274.613      140.81404      31943.706      504.57843      13952.071      1.5437849      0.82676179   
     21700  -10134.807     -10273.39       138.58257      32111.599      496.5824       13893.056      1.5503426      0.82676179   
     21800  -10136.944     -10271.978      135.03357      30794.582      483.86531      13860.257      1.5540113      0.82676179   
     21900  -10140.824     -10276.909      136.0851       30853.16       487.63323      13862.69       1.5537386      0.82676179   
     22000  -10144.795     -10283.117      138.32162      32298.306      495.64735      13889.925      1.550692       1.1124358    
     22100  -10144.164     -10279.55       135.38586      30521.6        485.12764      13930.033      1.5462272      1.1124358    
     22200  -10144.35      -10279.507      135.15794      27046.485      484.31094      13979.956      1.5407056      1.1124358    
     22300  -10146.643     -10279.253      132.6096       27422.678      475.17949      14027.075      1.5355302      1.1124358    
     22400  -10147.646     -10283.223      135.57743      30029.911      485.81409      14063.655      1.5315362      1.1124358    
     22500  -10143.721     -10279.389      135.66775      30094.872      486.13774      14083.139      1.5294173      1.1124358    
     22600  -10143.926     -10279.576      135.64933      31162.678      486.07174      14088.521      1.528833       1.1124358    
     22700  -10143.478     -10279.405      135.927        27934.185      487.06671      14080.391      1.5297158      1.1124358    
     22800  -10142.985     -10279.265      136.28044      29746.086      488.3332       14060.267      1.5319053      1.1124358    
     22900  -10142.607     -10279.936      137.32911      31576.361      492.0909       14032.191      1.5349703      1.1124358    
     23000  -10140.569     -10278.884      138.3152       35669.822      495.62433      14003.95       1.5380658      0.81231824   
     23100  -10141.453     -10276.671      135.21869      34037.41       484.52863      13981.406      1.5405458      0.81231824   
     23200  -10138.941     -10276.394      137.45238      32304.371      492.53259      13968.315      1.5419896      0.81231824   
     23300  -10140.002     -10278.919      138.91642      29731.924      497.77868      13970.704      1.5417259      0.81231824   
     23400  -10142.409     -10275.694      133.28443      30634.579      477.59761      13983.583      1.540306       0.81231824   
     23500  -10143.281     -10279.734      136.4533       28918.395      488.9526       14004.613      1.537993       0.81231824   
     23600  -10142.932     -10281.759      138.82772      31029.518      497.46084      14027.859      1.5354443      0.81231824   
     23700  -10145.37      -10277.297      131.92654      31173.855      472.73187      14043.937      1.5336865      0.81231824   
     23800  -10141.683     -10279.744      138.06116      28993.007      494.71405      14053.385      1.5326554      0.81231824   
     23900  -10140.967     -10278.091      137.12383      31079.383      491.35529      14053.116      1.5326848      0.81231824   
     24000  -10139.317     -10274.789      135.47156      30462.646      485.43475      14053.978      1.5325907      0.85715694   
     24100  -10140.4       -10276.615      136.21488      25799.827      488.09827      14053.435      1.5326499      0.85715694   
     24200  -10140.445     -10279.745      139.29921      25221.507      499.15034      14044.667      1.5336068      0.85715694   
     24300  -10142.496     -10277.906      135.41049      29350.685      485.21591      14029.923      1.5352185      0.85715694   
     24400  -10141.628     -10276.825      135.19721      26927.216      484.45165      14013.806      1.5369841      0.85715694   
     24500  -10140.175     -10275.986      135.81117      26852.015      486.65167      13998.514      1.538663       0.85715694   
     24600  -10143.602     -10276.8        133.19854      34118.858      477.28982      13987.277      1.5398992      0.85715694   
     24700  -10146.057     -10279.896      133.83953      31648.888      479.58668      13983.826      1.5402792      0.85715694   
     24800  -10145.509     -10280.36       134.85154      27301.466      483.21304      13984.535      1.5402012      0.85715694   
     24900  -10146.474     -10278.595      132.1208       28758.157      473.42796      13987.025      1.539927       0.85715694   
     25000  -10147.7       -10283.672      135.97262      26801.851      487.23017      13990.211      1.5395762      0.75028135   
     25100  -10144.593     -10280.179      135.58582      30414.513      485.84418      13990.615      1.5395318      0.75028135   
     25200  -10144.413     -10282.021      137.60764      31974.176      493.08894      13992.307      1.5393456      0.75028135   
     25300  -10145.976     -10281.926      135.95025      27034.464      487.15003      13996.401      1.5388953      0.75028135   
     25400  -10146.175     -10283.213      137.03779      28869.21       491.04701      14001.219      1.5383657      0.75028135   
     25500  -10145.029     -10278.338      133.30981      27587.713      477.68853      14006.607      1.537774       0.75028135   
     25600  -10143.96      -10280.385      136.42537      28414.56       488.85251      14013.068      1.537065       0.75028135   
     25700  -10138.982     -10278.232      139.24941      31183.719      498.97189      14022.802      1.535998       0.75028135   
     25800  -10140.242     -10277.414      137.17192      33035.465      491.52763      14037.017      1.5344426      0.75028135   
     25900  -10143.999     -10278.979      134.97957      30103.599      483.67178      14056.698      1.5322942      0.75028135   
     26000  -10139.786     -10277.576      137.79034      31125.952      493.74362      14076.959      1.5300887      0.89806834   
     26100  -10142.992     -10280.038      137.04605      28920.409      491.07658      14095.012      1.528129       0.89806834   
     26200  -10140.851     -10277.404      136.55292      28135.754      489.30957      14103.348      1.5272258      0.89806834   
     26300  -10140.998     -10276.195      135.19759      30055.521      484.45302      14100.444      1.5275403      0.89806834   
     26400  -10137.822     -10276.318      138.49601      29960.008      496.27222      14088.866      1.5287956      0.89806834   
     26500  -10137.378     -10273.513      136.1348       28662.122      487.81134      14071.967      1.5306315      0.89806834   
     26600  -10135.829     -10275.57       139.74069      31337.79       500.73229      14059.885      1.5319468      0.89806834   
     26700  -10137.487     -10277.195      139.70783      29147.662      500.61456      14054.735      1.5325082      0.89806834   
     26800  -10140.109     -10277.062      136.95328      29501.372      490.74419      14051.884      1.5328191      0.89806834   
     26900  -10138.268     -10278.599      140.33124      31278.056      502.8484       14050.085      1.5330154      0.89806834   
     27000  -10140.273     -10276.64       136.36672      31825.38       488.64238      14042.662      1.5338257      0.81174292   
     27100  -10142.833     -10277.515      134.68185      30820.346      482.60498      14033.822      1.5347919      0.81174292   
     27200  -10145.063     -10280.512      135.44897      29695.2        485.35378      14025.948      1.5356535      0.81174292   
     27300  -10142.88      -10276.271      133.39094      32739.176      477.97924      14018.163      1.5365063      0.81174292   
     27400  -10145.29      -10282.135      136.84547      27545.666      490.35786      14014.92       1.5368619      0.81174292   
     27500  -10146.46      -10280.138      133.67801      29665.451      479.00791      14012.572      1.5371194      0.81174292   
     27600  -10150.594     -10282.982      132.38779      29990.484      474.38467      14009.883      1.5374145      0.81174292   
     27700  -10150.118     -10282.812      132.69396      26995.467      475.48177      14003.141      1.5381547      0.81174292   
     27800  -10146.022     -10282.989      136.96671      28149.016      490.79229      13993.284      1.5392382      0.81174292   
     27900  -10142.749     -10279.902      137.15319      33248.115      491.46051      13985.347      1.5401117      0.81174292   
     28000  -10140.077     -10278.754      138.67673      32131.143      496.91982      13987.867      1.5398343      0.79079805   
     28100  -10142.466     -10276.926      134.46055      29972.727      481.81198      13999.113      1.5385973      0.79079805   
     28200  -10143.188     -10280.441      137.25266      32099.06       491.81696      14013.009      1.5370715      0.79079805   
     28300  -10143.067     -10278.925      135.85798      32453.192      486.81939      14022.334      1.5360493      0.79079805   
     28400  -10140.044     -10275.951      135.90648      32716.99       486.99318      14029.778      1.5352343      0.79079805   
     28500  -10139.967     -10277.65       137.68344      31942.397      493.36055      14038.914      1.5342352      0.79079805   
     28600  -10138.257     -10276.659      138.40163      33899.471      495.93404      14048.208      1.5332202      0.79079805   
     28700  -10142.761     -10277.374      134.61261      29879.212      482.35685      14055.482      1.5324268      0.79079805   
     28800  -10144.879     -10281.07       136.1908       26453.505      488.01198      14053.105      1.532686       0.79079805   
     28900  -10147.272     -10279.054      131.78244      28315.452      472.21551      14039.834      1.5341347      0.79079805   
     29000  -10145.4       -10280.494      135.09457      31930.489      484.08386      14020.456      1.5362551      0.82798592   
     29100  -10142.432     -10278.461      136.02944      28580.412      487.43379      13998.073      1.5387115      0.82798592   
     29200  -10144.683     -10280.758      136.07528      29518.32       487.59804      13976.975      1.5410342      0.82798592   
     29300  -10141.997     -10280.735      138.7379       28163.979      497.13901      13962.897      1.5425879      0.82798592   
     29400  -10144.865     -10281.016      136.15165      29883.417      487.87169      13954.761      1.5434873      0.82798592   
     29500  -10146.651     -10280.634      133.98284      29710.793      480.10021      13950.494      1.5439594      0.82798592   
     29600  -10146.901     -10279.789      132.88825      26062.824      476.17799      13954.662      1.5434983      0.82798592   
     29700  -10145.645     -10283.185      137.53988      29483.944      492.84613      13965.971      1.5422484      0.82798592   
     29800  -10146.014     -10276.664      130.65071      30610.059      468.16021      13980.108      1.5406888      0.82798592   
     29900  -10149.475     -10280.185      130.70955      31609.62       468.37103      14000.497      1.5384451      0.82798592   
     30000  -10149.75      -10284.745      134.99448      27535.768      483.72522      14022.433      1.5360385      0.96657357   
     30100  -10145.155     -10281.849      136.69322      30064.247      489.8123       14035.589      1.5345987      0.96657357   
     30200  -10149.911     -10286.968      137.05735      30485.656      491.11708      14043.839      1.5336972      0.96657357   
     30300  -10146.658     -10279.773      133.11482      31054.895      476.98985      14044.673      1.5336061      0.96657357   
     30400  -10145.896     -10279.285      133.38901      30051.379      477.97235      14037.263      1.5344157      0.96657357   
     30500  -10145.134     -10278.647      133.51288      31568.76       478.41622      14023.982      1.5358688      0.96657357   
     30600  -10148.757     -10279.825      131.06876      30129.367      469.65822      14005.586      1.5378861      0.96657357   
     30700  -10146.436     -10282.392      135.95537      29026.174      487.16839      13980.024      1.5406981      0.96657357   
     30800  -10143.911     -10280.467      136.55626      28758.419      489.32153      13955.589      1.5433958      0.96657357   
     30900  -10143.044     -10280.276      137.23203      27791.562      491.74302      13940.573      1.5450582      0.96657357   
     31000  -10141.594     -10275.956      134.36185      32456.38       481.4583       13939.81       1.5451427      0.85727232   
     31100  -10143.712     -10280.343      136.63172      29902.625      489.59193      13956.451      1.5433004      0.85727232   
     31200  -10147.17      -10279.761      132.5908       29644.878      475.1121       13984.13       1.5402457      0.85727232   
     31300  -10142.055     -10280.011      137.95601      25197.76       494.33724      14020.602      1.536239       0.85727232   
     31400  -10145.933     -10281.274      135.34122      27430.209      484.9677       14061.729      1.5317459      0.85727232   
     31500  -10144.281     -10279.403      135.12218      29803.01       484.1828       14100.494      1.5275349      0.85727232   
     31600  -10141.733     -10280.015      138.28155      27925.126      495.50375      14131.029      1.5242341      0.85727232   
     31700  -10137.694     -10274.651      136.95741      29525.016      490.75896      14148.944      1.5223042      0.85727232   
     31800  -10137.308     -10275.883      138.57512      27124.377      496.5557       14152.757      1.521894       0.85727232   
     31900  -10139.403     -10282.023      142.61973      25643.755      511.04876      14141.134      1.5231449      0.85727232   
     32000  -10140.725     -10275.506      134.78159      29576.76       482.96238      14113.883      1.5260858      0.8834644    
     32100  -10137.881     -10275.38       137.49982      30065.201      492.70259      14081.926      1.529549       0.8834644    
     32200  -10137.082     -10277.79       140.70752      32390.193      504.19674      14050.249      1.5329975      0.8834644    
     32300  -10141.58      -10277.708      136.12853      28464.304      487.78885      14023.408      1.5359317      0.8834644    
     32400  -10139.849     -10276.698      136.84813      30113.068      490.36738      14002.746      1.538198       0.8834644    
     32500  -10135.749     -10275.539      139.78999      36267.318      500.90895      13994.747      1.5390772      0.8834644    
     32600  -10137.764     -10276.075      138.31133      31885.817      495.61046      13999.806      1.5385211      0.8834644    
     32700  -10141.573     -10281.093      139.51947      29413.799      499.93959      14015.097      1.5368425      0.8834644    
     32800  -10140.009     -10275.816      135.80711      30763.821      486.63713      14035.837      1.5345716      0.8834644    
     32900  -10140.931     -10275.251      134.32003      30239.735      481.30847      14061.673      1.5317521      0.8834644    
     33000  -10138.345     -10276.617      138.27163      29339.701      495.4682       14089.955      1.5286775      0.80910255   
     33100  -10140.313     -10279.728      139.41522      27930.645      499.56603      14117.782      1.5256643      0.80910255   
     33200  -10140.659     -10278.457      137.79868      28347.59       493.77351      14139.338      1.5233384      0.80910255   
     33300  -10137.179     -10276.225      139.04621      25994.545      498.24377      14150.81       1.5221034      0.80910255   
     33400  -10133.028     -10274.662      141.63358      27595.3        507.51508      14151.288      1.522052       0.80910255   
     33500  -10131.578     -10275.408      143.83043      28454.422      515.38705      14145.808      1.5226417      0.80910255   
     33600  -10137.941     -10275.725      137.78464      30738.386      493.7232       14138.569      1.5234212      0.80910255   
     33700  -10139.665     -10278.199      138.53493      29348.133      496.41169      14124.117      1.52498        0.80910255   
     33800  -10140.336     -10279.873      139.53699      28899.629      500.00236      14100.63       1.5275202      0.80910255   
     33900  -10141.715     -10277.97       136.25499      28507.082      488.24198      14070.7        1.5307694      0.80910255   
     34000  -10137.697     -10275.041      137.34394      31154.625      492.14403      14040.303      1.5340834      0.81417207   
     34100  -10139.617     -10278.696      139.07917      31322.415      498.36189      14022.369      1.5360455      0.81417207   
     34200  -10145.401     -10276.485      131.08426      25709.937      469.71374      14013.763      1.5369888      0.81417207   
     34300  -10145.153     -10277.636      132.4823       27258.42       474.72335      14009.664      1.5374385      0.81417207   
     34400  -10145.331     -10281.131      135.79999      28112.034      486.61159      14006.636      1.5377709      0.81417207   
     34500  -10144.212     -10277.918      133.70593      31172.732      479.10797      14006.256      1.5378125      0.81417207   
     34600  -10144.328     -10280.558      136.22974      30653.886      488.15153      14009.267      1.5374821      0.81417207   
     34700  -10140.011     -10275.593      135.58222      34208.439      485.83128      14017.597      1.5365684      0.81417207   
     34800  -10141.219     -10280.483      139.26432      31214.762      499.02531      14034.67       1.5346991      0.81417207   
     34900  -10138.478     -10278.169      139.69083      30450.793      500.55362      14051.046      1.5329105      0.81417207   
     35000  -10139.787     -10274.103      134.31635      32875.606      481.29528      14072.728      1.5305487      0.88265204   
     35100  -10139.555     -10275.532      135.97644      30672.622      487.24387      14096.69       1.5279471      0.88265204   
     35200  -10135.927     -10273.543      137.61585      28687.647      493.11836      14121.342      1.5252797      0.88265204   
     35300  -10137.905     -10279.033      141.12772      26931.798      505.70243      14142.508      1.522997       0.88265204   
     35400  -10139.823     -10278.368      138.54467      26897.061      496.44659      14151.208      1.5220606      0.88265204   
     35500  -10143.064     -10277.588      134.52438      28714.818      482.04073      14150.498      1.522137       0.88265204   
     35600  -10144.431     -10280.451      136.02068      31610.144      487.40241      14135.94       1.5237046      0.88265204   
     35700  -10143.527     -10280.155      136.62805      28328.975      489.57877      14104.299      1.5271228      0.88265204   
     35800  -10141.049     -10276.988      135.93889      31736.585      487.1093       14063.883      1.5315114      0.88265204   
     35900  -10139.154     -10279.123      139.96921      32324.562      501.55114      14025.321      1.5357222      0.88265204   
     36000  -10140.846     -10277.259      136.41284      30382.019      488.80761      13995.491      1.5389955      0.7589806    
     36100  -10144.847     -10279.703      134.85667      31675.978      483.2314       13976.206      1.541119       0.7589806    
     36200  -10143.711     -10278.365      134.65336      32627.619      482.50287      13965.29       1.5423236      0.7589806    
     36300  -10145.004     -10277.47       132.46591      34396.777      474.66461      13964.356      1.5424268      0.7589806    
     36400  -10146.522     -10281.542      135.01979      29773.081      483.8159       13976.472      1.5410897      0.7589806    
     36500  -10145.95      -10278.813      132.86267      30554.246      476.08631      13995.48       1.5389967      0.7589806    
     36600  -10143.641     -10280.367      136.72593      30715.379      489.92951      14020.267      1.5362757      0.7589806    
     36700  -10146.54      -10280.882      134.34217      29219.763      481.3878       14049.349      1.5330957      0.7589806    
     36800  -10145.969     -10278.549      132.57961      29385.089      475.07202      14073.187      1.5304989      0.7589806    
     36900  -10146.923     -10282.544      135.62085      31095.203      485.9697       14085.633      1.5291465      0.7589806    
     37000  -10146.856     -10278.577      131.72083      29479.483      471.99477      14084.679      1.5292501      0.77981601   
     37100  -10147.463     -10283.013      135.54989      29788.079      485.7154       14070.597      1.5307806      0.77981601   
     37200  -10145.823     -10281.787      135.96419      30766.511      487.19996      14045.467      1.5335194      0.77981601   
     37300  -10144.19      -10280.121      135.93104      28696.289      487.08117      14012.722      1.537103       0.77981601   
     37400  -10141.191     -10276.906      135.7141       27923.713      486.30384      13980.808      1.5406117      0.77981601   
     37500  -10140.828     -10276.766      135.93782      30770.749      487.10547      13958.939      1.5430253      0.77981601   
     37600  -10143.738     -10280.55       136.81129      29512.234      490.23537      13954.388      1.5435286      0.77981601   
     37700  -10144.18      -10278.636      134.45641      28962.566      481.79716      13960.956      1.5428024      0.77981601   
     37800  -10146.58      -10279.993      133.41334      29853.67       478.05953      13976.221      1.5411174      0.77981601   
     37900  -10144.664     -10280.259      135.59515      29974.582      485.8776       13997.94       1.5387261      0.77981601   
     38000  -10145.561     -10280.166      134.60492      30606.204      482.32929      14017.787      1.5365476      0.85914465   
     38100  -10140.764     -10276.214      135.44981      29113.583      485.3568       14036.013      1.5345523      0.85914465   
     38200  -10141.115     -10280.679      139.56403      28140.519      500.09926      14055.252      1.5324518      0.85914465   
     38300  -10141.454     -10278.091      136.63742      30020.353      489.61238      14067.789      1.5310861      0.85914465   
     38400  -10139.386     -10278.297      138.91141      26770.832      497.76073      14074.322      1.5303754      0.85914465   
     38500  -10137.606     -10274.72       137.11362      28154.062      491.31874      14076.149      1.5301768      0.85914465   
     38600  -10136.509     -10275.13       138.6213       25338.901      496.7212       14073.623      1.5304515      0.85914465   
     38700  -10136.231     -10273.037      136.8057       27399.87       490.21535      14069.39       1.5309119      0.85914465   
     38800  -10138.26      -10277.672      139.41204      31145.867      499.55465      14066.497      1.5312267      0.85914465   
     38900  -10140.601     -10276.122      135.52069      33617.335      485.61079      14064.273      1.5314689      0.85914465   
     39000  -10137.19      -10273.616      136.42595      31766.259      488.85459      14062.171      1.5316978      0.80948991   
     39100  -10133.895     -10274.495      140.60027      27419.48       503.81244      14060.85       1.5318417      0.80948991   
     39200  -10134.633     -10275.279      140.64645      28864.005      503.97791      14059.39       1.5320008      0.80948991   
     39300  -10134.072     -10275.328      141.25554      27929.309      506.16044      14058.058      1.532146       0.80948991   
     39400  -10137.786     -10273.633      135.84657      30549.317      486.77849      14056.962      1.5322654      0.80948991   
     39500  -10142.859     -10277.811      134.95166      29355.032      483.57179      14052.228      1.5327816      0.80948991   
     39600  -10138.595     -10277.528      138.93316      27851.959      497.83869      14036.908      1.5344545      0.80948991   
     39700  -10139.716     -10272.215      132.49858      31902.039      474.78168      14015.386      1.5368108      0.80948991   
     39800  -10137.716     -10276.55       138.83437      32623.44       497.4847       13996.556      1.5388784      0.80948991   
     39900  -10138.904     -10276.526      137.62199      33715.079      493.14038      13977.335      1.5409945      0.80948991   
     40000  -10137.34      -10276.722      139.38116      35004.801      499.444        13962.6        1.5426208      0.82006204   
     40100  -10140.27      -10271.622      131.35285      32432.863      470.67619      13956.758      1.5432664      0.82006204   
     40200  -10137.497     -10275.398      137.90111      31337.437      494.14052      13962.234      1.5426612      0.82006204   
     40300  -10136.966     -10273.492      136.52525      32749.134      489.21041      13980.232      1.5406752      0.82006204   
     40400  -10137.668     -10275.835      138.16684      30479.256      495.09272      14008.568      1.5375587      0.82006204   
     40500  -10141.598     -10281.395      139.79666      29482.11       500.93285      14041.291      1.5339755      0.82006204   
     40600  -10141.128     -10277.238      136.11001      30368.907      487.72251      14072.772      1.530544       0.82006204   
     40700  -10142.113     -10276.625      134.51241      26769.003      481.99783      14093.808      1.5282595      0.82006204   
     40800  -10135.801     -10275.683      139.88237      27626.341      501.23999      14101.404      1.5274363      0.82006204   
     40900  -10136.389     -10272.66       136.2713       31436.503      488.30043      14100.446      1.5275401      0.82006204   
     41000  -10137.249     -10274.916      137.66738      31708.189      493.303        14095.744      1.5280496      0.80029314   
     41100  -10135.976     -10277.535      141.55907      31464.791      507.2481       14085.74       1.5291349      0.80029314   
     41200  -10139.322     -10275.277      135.95517      31555.832      487.16764      14067.869      1.5310774      0.80029314   
     41300  -10138.637     -10276.917      138.28006      26336.933      495.49843      14048.837      1.5331515      0.80029314   
     41400  -10141.104     -10276.685      135.58144      27455.539      485.82848      14030.378      1.5351687      0.80029314   
     41500  -10142.679     -10279.44       136.76086      27033.438      490.0547       14011.132      1.5372774      0.80029314   
     41600  -10137.189     -10276.017      138.82812      30824.165      497.46229      13992.419      1.5393333      0.80029314   
     41700  -10135.499     -10274.218      138.71862      31497.01       497.06991      13977.467      1.54098        0.80029314   
     41800  -10134.922     -10272.014      137.09201      33066.975      491.24129      13972.591      1.5415177      0.80029314   
     41900  -10137.799     -10277.576      139.77767      28608.815      500.86481      13984.693      1.5401838      0.80029314   
     42000  -10137.778     -10274.393      136.61552      31960.709      489.53389      14007.63       1.5376617      0.79767455   
     42100  -10137.553     -10276.698      139.14462      32556.163      498.5964       14034.952      1.5346683      0.79767455   
     42200  -10134.856     -10278.719      143.86307      29626.827      515.504        14064.636      1.5314293      0.79767455   
     42300  -10141.059     -10277.831      136.77131      30736.769      490.09213      14087.607      1.5289322      0.79767455   
     42400  -10139.994     -10276.782      136.78774      28813.684      490.15101      14096.932      1.5279209      0.79767455   
     42500  -10141.628     -10277.109      135.48135      31860.218      485.46982      14094.797      1.5281523      0.79767455   
     42600  -10143.531     -10280.954      137.42292      26076.578      492.42704      14077.526      1.5300271      0.79767455   
     42700  -10141.666     -10278.998      137.33234      27497.105      492.10247      14040.25       1.5340893      0.79767455   
     42800  -10140.264     -10277.102      136.83741      29548.885      490.329        13990.582      1.5395355      0.79767455   
     42900  -10141.154     -10279.798      138.64354      30348.919      496.80087      13940.134      1.5451069      0.79767455   
     43000  -10139.457     -10275.129      135.67261      35494.547      486.15515      13894.96       1.5501301      0.8056884    
     43100  -10135.743     -10277.261      141.51774      35912.19       507.09999      13871.72       1.5527272      0.8056884    
     43200  -10134.285     -10272.559      138.27402      33460.773      495.47677      13878.294      1.5519916      0.8056884    
     43300  -10134.746     -10276.302      141.55625      30631.901      507.23799      13917.086      1.5476657      0.8056884    
     43400  -10134.562     -10274.726      140.1646       27895.544      502.2513       13978.139      1.5409059      0.8056884    
     43500  -10138.01      -10276.608      138.59741      28479.71       496.63559      14047.225      1.5333275      0.8056884    
     43600  -10139.034     -10277.267      138.23233      31525.773      495.32739      14106.868      1.5268447      0.8056884    
     43700  -10139.823     -10276.013      136.18965      25920.941      488.00785      14147.356      1.522475       0.8056884    
     43800  -10138.539     -10278.439      139.90055      24636.43       501.30512      14163.556      1.5207337      0.8056884    
     43900  -10137.722     -10274.522      136.80012      26381.003      490.19536      14153.105      1.5218566      0.8056884    
     44000  -10139.749     -10276.429      136.67951      26795.578      489.76318      14119.822      1.5254439      0.87426501   
     44100  -10139.951     -10274.819      134.86836      27149.652      483.2733       14067.886      1.5310755      0.87426501   
     44200  -10138.297     -10275.99       137.69295      31069.23       493.39463      14004.626      1.5379916      0.87426501   
     44300  -10136.444     -10273.953      137.50896      31344.632      492.73535      13939.755      1.5451488      0.87426501   
     44400  -10133.46      -10272.555      139.09595      30799.013      498.42199      13891.444      1.5505225      0.87426501   
     44500  -10135.735     -10273.146      137.41147      32826.04       492.38599      13875.446      1.5523102      0.87426501   
     44600  -10137.131     -10272.593      135.46276      32215.919      485.4032       13889.387      1.5507522      0.87426501   
     44700  -10136.36      -10275.188      138.82837      28777.199      497.46318      13929.924      1.5462393      0.87426501   
     44800  -10140.531     -10276.524      135.99303      31803.08       487.30334      13990.369      1.5395588      0.87426501   
     44900  -10138.425     -10277.902      139.47712      29943.681      499.78785      14055.288      1.5324479      0.87426501   
     45000  -10142.499     -10278.622      136.12259      27769.588      487.76756      14109.827      1.5265244      0.868192     
     45100  -10142.417     -10277.975      135.55739      24920.531      485.74231      14147.658      1.5224426      0.868192     
     45200  -10139.788     -10275.922      136.13411      30336.061      487.80886      14162.123      1.5208876      0.868192     
     45300  -10132.867     -10271.31       138.44259      29478.126      496.08082      14156.212      1.5215226      0.868192     
     45400  -10132.859     -10276.592      143.7332       25482.783      515.03866      14140.263      1.5232387      0.868192     
     45500  -10135.668     -10274.391      138.7234       27046.399      497.08704      14112.346      1.526252       0.868192     
     45600  -10134.597     -10275.392      140.79516      30262.879      504.51078      14079.591      1.5298027      0.868192     
     45700  -10134.53      -10275.514      140.9847       26981.201      505.18997      14047.078      1.5333436      0.868192     
     45800  -10135.01      -10274.304      139.29384      30976.197      499.13111      14021.354      1.5361567      0.868192     
     45900  -10136.545     -10272.948      136.40264      33337.147      488.77108      14002.972      1.5381732      0.868192     
     46000  -10135.535     -10273.398      137.86293      30765.799      494.00372      13998.863      1.5386247      0.8934076    
     46100  -10133.463     -10269.382      135.91973      33179.878      487.04068      14006.54       1.5377813      0.8934076    
     46200  -10137.352     -10275.957      138.60537      26668.746      496.66409      14027.74       1.5354573      0.8934076    
     46300  -10138.75      -10275.865      137.11474      27386.548      491.32272      14051.812      1.532827       0.8934076    
     46400  -10142.937     -10279.941      137.00377      30359.815      490.92509      14066.797      1.5311941      0.8934076    
     46500  -10142.577     -10279.208      136.63193      28683.306      489.59269      14066.91       1.5311818      0.8934076    
     46600  -10143.525     -10280.611      137.08522      26665.95       491.21695      14054.878      1.5324926      0.8934076    
     46700  -10140.781     -10277.058      136.27775      30139.012      488.32355      14033.868      1.5347869      0.8934076    
     46800  -10137.282     -10275.475      138.19327      32360.93       495.18743      14014.586      1.5368986      0.8934076    
     46900  -10137.198     -10273.691      136.49312      31724.102      489.0953       14002.179      1.5382603      0.8934076    
     47000  -10138.229     -10274.838      136.60895      27256.967      489.51033      13999.3        1.5385766      0.78928901   
     47100  -10140.474     -10281.1        140.62629      30857.381      503.90568      14005.393      1.5379074      0.78928901   
     47200  -10139.922     -10272.307      132.38523      29204.932      474.37549      14014.873      1.5368671      0.78928901   
     47300  -10142.476     -10277.59       135.11337      29292.136      484.15123      14026.225      1.5356232      0.78928901   
     47400  -10139.908     -10277.234      137.32621      28166.391      492.08051      14033.407      1.5348373      0.78928901   
     47500  -10141.032     -10278.559      137.52768      28739.614      492.80242      14038.831      1.5342443      0.78928901   
     47600  -10136.898     -10272.364      135.46638      28463.127      485.41616      14041.94       1.5339046      0.78928901   
     47700  -10138.282     -10276.792      138.50957      31523.443      496.32082      14048.156      1.5332259      0.78928901   
     47800  -10136.585     -10277.006      140.42139      30987.705      503.17146      14054.714      1.5325105      0.78928901   
     47900  -10141.501     -10275.819      134.31797      30711.293      481.30107      14060.117      1.5319216      0.78928901   
     48000  -10140.956     -10278.795      137.83909      29614.043      493.9183       14062.623      1.5316486      0.81141126   
     48100  -10139.697     -10276.305      136.60823      29316.265      489.50778      14057.269      1.532232       0.81141126   
     48200  -10139.624     -10276.085      136.46068      29263.265      488.97905      14046.499      1.5334067      0.81141126   
     48300  -10143.502     -10277.033      133.53189      32821.253      478.48432      14034.26       1.5347441      0.81141126   
     48400  -10145.358     -10281.015      135.65729      29082.304      486.10028      14019.518      1.5363578      0.81141126   
     48500  -10146.046     -10278.554      132.50759      27177.253      474.81396      14001.538      1.5383308      0.81141126   
     48600  -10144.389     -10279.43       135.0407       28097.124      483.89085      13980.746      1.5406185      0.81141126   
     48700  -10143.214     -10279.188      135.9741       30652.179      487.2355       13963.123      1.5425629      0.81141126   
     48800  -10145.111     -10278.131      133.02065      35203.584      476.65241      13953.386      1.5436394      0.81141126   
     48900  -10146.961     -10283.162      136.20168      34164.26       488.05098      13949.989      1.5440153      0.81141126   
     49000  -10144.439     -10280.276      135.83625      31303.617      486.74152      13950.542      1.543954       0.90450945   
     49100  -10144.891     -10281.535      136.64393      30634.892      489.63569      13959.96       1.5429125      0.90450945   
     49200  -10140.952     -10277.977      137.02497      32007.241      491.00106      13975.573      1.5411888      0.90450945   
     49300  -10139.262     -10277.66       138.39842      30292.528      495.92254      13992.603      1.5393131      0.90450945   
     49400  -10137.265     -10276.034      138.76904      29863.804      497.25058      14014.944      1.5368592      0.90450945   
     49500  -10138.978     -10276.211      137.23241      27061.127      491.74437      14044.948      1.5335761      0.90450945   
     49600  -10140.608     -10275.072      134.46395      29963.96       481.82419      14075.254      1.5302741      0.90450945   
     49700  -10139.838     -10276.629      136.79124      28967.174      490.16354      14098.57       1.5277433      0.90450945   
     49800  -10141.128     -10278.602      137.47475      26640.056      492.61278      14110.472      1.5264547      0.90450945   
     49900  -10143.764     -10279.348      135.58419      28131.633      485.83833      14103.048      1.5272582      0.90450945   
     50000  -10147.708     -10282.601      134.89238      28562.843      483.35937      14070.026      1.5308427      0.91591509   
     50100  -10144.952     -10281.592      136.63993      26269.534      489.62136      14013.331      1.5370362      0.91591509   
     50200  -10138.774     -10276.484      137.71038      26603.778      493.45711      13948.965      1.5441286      0.91591509   
     50300  -10140.316     -10275.661      135.34537      30504.482      484.98255      13894.823      1.5501455      0.91591509   
     50400  -10139.269     -10276.463      137.19333      32784.779      491.60434      13861.148      1.5539114      0.91591509   
     50500  -10137.966     -10279.233      141.26691      35104.839      506.20121      13853.822      1.5547332      0.91591509   
     50600  -10141.134     -10278.279      137.14523      33593.385      491.432        13871.377      1.5527656      0.91591509   
     50700  -10146.958     -10279.728      132.76934      31152.074      475.75187      13909.96       1.5484586      0.91591509   
     50800  -10143.46      -10280.989      137.52952      30426.453      492.80901      13961.105      1.5427859      0.91591509   
     50900  -10146.54      -10277.152      130.61265      29949.862      468.02384      14014.421      1.5369167      0.91591509   
     51000  -10144.727     -10283.939      139.21191      27271.19       498.83753      14056.831      1.5322796      0.77883022   
     51100  -10144.911     -10276.732      131.82092      28353.328      472.35342      14079.874      1.529772       0.77883022   
     51200  -10143.331     -10277.22       133.88929      26509.32       479.76499      14087.872      1.5289035      0.77883022   
     51300  -10140.01      -10281.55       141.54051      26096.833      507.18159      14077.704      1.5300078      0.77883022   
     51400  -10138.864     -10272.815      133.95151      27528.793      479.98796      14052.28       1.532776       0.77883022   
     51500  -10136.956     -10277.598      140.64217      29819.931      503.96257      14027.301      1.5355053      0.77883022   
     51600  -10137.547     -10274.393      136.8456       31766.447      490.35832      14010.769      1.5373172      0.77883022   
     51700  -10138.402     -10275.473      137.07163      31066.758      491.16828      14005.3        1.5379175      0.77883022   
     51800  -10138.539     -10278.826      140.28651      28015.232      502.68814      14011.567      1.5372297      0.77883022   
     51900  -10138.25      -10277.382      139.13186      33613.31       498.55069      14023.642      1.5359061      0.77883022   
     52000  -10139.947     -10280.067      140.12031      31968.924      502.09258      14038.129      1.5343211      0.79118697   
     52100  -10140.68      -10278.931      138.25072      27711.394      495.3933       14049.535      1.5330755      0.79118697   
     52200  -10141.607     -10278.96       137.35305      30552.304      492.17667      14057.422      1.5322153      0.79118697   
     52300  -10139.217     -10275.029      135.81138      31656.752      486.65243      14057.324      1.532226       0.79118697   
     52400  -10142.077     -10276.669      134.59246      29706.148      482.28467      14059.49       1.5319899      0.79118697   
     52500  -10143.076     -10279.407      136.33138      26371.739      488.51574      14061.743      1.5317444      0.79118697   
     52600  -10142.893     -10279.858      136.96567      29682.631      490.78856      14053.471      1.5326461      0.79118697   
     52700  -10141.08      -10276.674      135.59449      26826.264      485.87524      14039.334      1.5341893      0.79118697   
     52800  -10139.033     -10277.666      138.63312      27200.872      496.76353      14022.711      1.536008       0.79118697   
     52900  -10138.925     -10275.783      136.85836      27551.034      490.40406      14004.367      1.53802        0.79118697   
     53000  -10139.748     -10279.446      139.69716      31664.807      500.57631      13991.797      1.5394017      0.87069384   
     53100  -10138.114     -10277.917      139.80367      30338.136      500.95797      13987.361      1.5398899      0.87069384   
     53200  -10140.38      -10276.595      136.21492      33361.803      488.09841      13989.11       1.5396975      0.87069384   
     53300  -10140.972     -10277.564      136.59208      33060.02       489.44989      13994.437      1.5391113      0.87069384   
     53400  -10139.383     -10280.112      140.72839      31875.424      504.27151      14003.407      1.5381254      0.87069384   
     53500  -10140.288     -10275.537      135.24903      29982.63       484.63734      14016.802      1.5366555      0.87069384   
     53600  -10140.491     -10278.41       137.91957      30295.99       494.20668      14035.254      1.5346353      0.87069384   
     53700  -10141.064     -10279.032      137.96863      31790.022      494.38247      14050.938      1.5329223      0.87069384   
     53800  -10143.874     -10274.205      130.33098      26912.917      467.01453      14063.349      1.5315695      0.87069384   
     53900  -10144.863     -10279.289      134.42579      25331.736      481.68745      14072.438      1.5305803      0.87069384   
     54000  -10146.047     -10283.969      137.92187      25576.182      494.21493      14075.494      1.530248       0.82027134   
     54100  -10148.647     -10283.32       134.67316      31197.185      482.57383      14068.192      1.5310423      0.82027134   
     54200  -10147.416     -10279.03       131.61386      31275.876      471.61146      14048.32       1.533208       0.82027134   
     54300  -10145.965     -10279.175      133.2105       27924.8        477.33268      14024.008      1.5358659      0.82027134   
     54400  -10144.877     -10281.86       136.9826       26834.276      490.84924      13995.273      1.5390194      0.82027134   
     54500  -10144.694     -10279.216      134.52192      31406.264      482.03189      13970.29       1.5417716      0.82027134   
     54600  -10143.493     -10278.142      134.64833      32639.185      482.48485      13956.574      1.5432869      0.82027134   
     54700  -10144.308     -10282.509      138.20024      29526.839      495.2124       13955.571      1.5433977      0.82027134   
     54800  -10144.004     -10280.561      136.55709      31427.02       489.32451      13962.219      1.5426628      0.82027134   
     54900  -10145.518     -10280.066      134.54737      32158.459      482.12308      13977.664      1.5409582      0.82027134   
     55000  -10141.144     -10279.905      138.76053      31902.481      497.22009      13999.725      1.53853        0.77356066   
     55100  -10144.847     -10280.954      136.10748      29963.205      487.71342      14024.573      1.5358041      0.77356066   
     55200  -10143.799     -10276.78       132.98108      28105.635      476.51061      14048.13       1.5332288      0.77356066   
     55300  -10143.42      -10275.058      131.6377       29676.551      471.69689      14068.214      1.5310398      0.77356066   
     55400  -10142.705     -10279.254      136.54899      30973.709      489.29548      14085.173      1.5291964      0.77356066   
     55500  -10142.123     -10282.869      140.74638      27492.486      504.33597      14093.335      1.5283108      0.77356066   
     55600  -10141.793     -10276.855      135.06184      27569.091      483.96659      14088.501      1.5288352      0.77356066   
     55700  -10138.494     -10278.39       139.89632      30567.887      501.28997      14074.4        1.530367       0.77356066   
     55800  -10136.565     -10279.116      142.55092      28534.795      510.80218      14057.023      1.5322588      0.77356066   
     55900  -10137.168     -10271.046      133.87875      31355.955      479.72722      14036.656      1.534482       0.77356066   
     56000  -10137.275     -10277.412      140.13769      31058.083      502.15485      14022.68       1.5360115      0.88391467   
     56100  -10137.476     -10277.835      140.35861      32688.799      502.94648      14014.978      1.5368555      0.88391467   
     56200  -10138.65      -10277.137      138.48697      30367.277      496.23983      14013.387      1.5370301      0.88391467   
     56300  -10137.337     -10274.521      137.18432      30541.188      491.57207      14021.883      1.5360987      0.88391467   
     56400  -10136.326     -10277.331      141.00529      33637.194      505.26374      14039.626      1.5341574      0.88391467   
     56500  -10136.305     -10277.531      141.22605      27874.138      506.05477      14065.79       1.5313037      0.88391467   
     56600  -10137.361     -10273.782      136.42159      26822.997      488.83899      14091.833      1.5284738      0.88391467   
     56700  -10139.653     -10273.384      133.73105      28491.274      479.19798      14112.526      1.5262326      0.88391467   
     56800  -10139.149     -10278.756      139.60717      27867.24       500.25384      14124.494      1.5249393      0.88391467   
     56900  -10139.045     -10275.515      136.47051      29316.993      489.01425      14122.296      1.5251766      0.88391467   
[...]
    852100  -10142.603     -10281.277      138.67466      29488.945      496.91239      13940.584      1.545057       0.75590722   
    852200  -10141.525     -10281.757      140.23264      29447.712      502.4951       13910.783      1.5483669      0.75590722   
    852300  -10144.076     -10280.563      136.48686      33184.976      489.07287      13895.211      1.5501021      0.75590722   
    852400  -10143.423     -10281.445      138.02173      32100.881      494.57276      13903.276      1.549203       0.75590722   
    852500  -10143.733     -10284.403      140.66983      28131.185      504.06168      13931.523      1.5460619      0.75590722   
    852600  -10149.261     -10284.233      134.97262      30235.844      483.6469       13971.932      1.5415904      0.75590722   
    852700  -10148.223     -10281.38       133.15656      29242.878      477.1394       14016.804      1.5366554      0.75590722   
    852800  -10151.448     -10284.537      133.08865      26853.852      476.89606      14056.933      1.5322686      0.75590722   
    852900  -10151.906     -10285.484      133.57834      28164.129      478.65077      14076.784      1.5301078      0.75590722   
    853000  -10149.737     -10284.23       134.49284      28193.348      481.92771      14073.237      1.5304934      0.8452142    
    853100  -10150.047     -10285.015      134.96825      27903.259      483.63124      14051.113      1.5329032      0.8452142    
    853200  -10146.494     -10285.856      139.3627       31027.512      499.37783      14013.174      1.5370534      0.8452142    
    853300  -10147.542     -10282.605      135.06252      34431.733      483.96904      13970.517      1.5417466      0.8452142    
    853400  -10145.247     -10282.463      137.2155       32675.672      491.6838       13932.592      1.5459433      0.8452142    
    853500  -10141.84      -10281.291      139.45161      29850.512      499.69642      13909.082      1.5485563      0.8452142    
    853600  -10144.779     -10282.035      137.256        33180.625      491.8289       13908.902      1.5485763      0.8452142    
    853700  -10142.651     -10281.448      138.79693      32194.704      497.35053      13929.713      1.5462627      0.8452142    
    853800  -10144.449     -10283.811      139.3624       28193.151      499.37678      13963.431      1.5425289      0.8452142    
    853900  -10144.329     -10279.523      135.19448      29412.37       484.44187      14004.79       1.5379735      0.8452142    
    854000  -10147.349     -10282.46       135.1117       26712.775      484.14525      14050.33       1.5329887      0.80696102   
    854100  -10146.337     -10279.771      133.4344       27199.022      478.13497      14084.627      1.5292557      0.80696102   
    854200  -10147.06      -10281.646      134.58605      30588.532      482.2617       14103.009      1.5272625      0.80696102   
    854300  -10145.462     -10285.745      140.28322      32572.079      502.67635      14101.044      1.5274753      0.80696102   
    854400  -10146.903     -10283.427      136.5238       31891.028      489.20523      14081.574      1.5295873      0.80696102   
    854500  -10147.133     -10282.923      135.78979      31151.195      486.57506      14050.549      1.5329647      0.80696102   
    854600  -10151.553     -10287.072      135.51913      27952.117      485.6052       14011.769      1.5372076      0.80696102   
    854700  -10148.365     -10282.225      133.86038      28671.035      479.66142      13964.123      1.5424525      0.80696102   
    854800  -10144.562     -10281.851      137.28917      34166.11       491.94779      13922.923      1.5470168      0.80696102   
    854900  -10143.34      -10279.945      136.60542      37922.354      489.49771      13902.39       1.5493017      0.80696102   
    855000  -10144.918     -10280.857      135.9392       34025.811      487.11042      13905.344      1.5489726      0.81152199   
    855100  -10144.844     -10281.396      136.55271      33491.237      489.30882      13928.645      1.5463813      0.81152199   
    855200  -10148.224     -10281.549      133.32537      33013.034      477.74429      13962.644      1.5426159      0.81152199   
    855300  -10148.516     -10283.95       135.43413      33363.403      485.30061      14001.619      1.5383219      0.81152199   
    855400  -10144.842     -10283.199      138.35762      32528.173      495.77636      14032.987      1.5348832      0.81152199   
    855500  -10146.322     -10282.942      136.62029      31292.531      489.55098      14057.389      1.5322189      0.81152199   
    855600  -10148.974     -10283.243      134.26907      29887.19       481.12587      14071.652      1.5306658      0.81152199   
    855700  -10146.942     -10280.851      133.90936      24134.119      479.83691      14071.247      1.5307099      0.81152199   
    855800  -10144.673     -10285.307      140.63382      26187.093      503.93263      14056.566      1.5323086      0.81152199   
    855900  -10139.971     -10278.448      138.47695      29124.575      496.20396      14030.683      1.5351352      0.81152199   
    856000  -10141.141     -10280.224      139.0829       30573.838      498.37522      14007.232      1.5377054      0.76145549   
    856100  -10143.41      -10280.137      136.727        34059.626      489.93333      13984.674      1.5401858      0.76145549   
    856200  -10144.948     -10284.935      139.98761      34889.842      501.61707      13970.076      1.5417953      0.76145549   
    856300  -10143.533     -10282.592      139.05848      31813.628      498.28774      13961.175      1.5427782      0.76145549   
    856400  -10139.991     -10278.885      138.8931       31935.364      497.69513      13960.581      1.5428439      0.76145549   
    856500  -10141.261     -10278.775      137.51434      29702.226      492.75462      13975.245      1.541225       0.76145549   
    856600  -10139.65      -10278.002      138.3525       29126.617      495.758        14000.049      1.5384944      0.76145549   
    856700  -10142.175     -10279.179      137.00435      29423.805      490.92717      14029.653      1.535248       0.76145549   
    856800  -10142.365     -10278.878      136.51371      30091.154      489.16909      14057.493      1.5322075      0.76145549   
    856900  -10142.808     -10285.293      142.48427      26055.91       510.56336      14080.648      1.5296879      0.76145549   
    857000  -10140.968     -10283.042      142.07467      29874.111      509.09564      14092.288      1.5284243      0.86146447   
    857100  -10139.141     -10280.399      141.2576       29939.526      506.16784      14090.973      1.5285671      0.86146447   
    857200  -10140.097     -10277.971      137.8741       28640.695      494.04376      14071.228      1.5307119      0.86146447   
    857300  -10138.947     -10276.831      137.88477      30368.958      494.082        14041.615      1.5339401      0.86146447   
    857400  -10137.395     -10280.103      142.70812      29266.458      511.36546      14009.608      1.5374446      0.86146447   
    857500  -10136.567     -10277.63       141.06289      31903.604      505.47011      13975.174      1.5412328      0.86146447   
    857600  -10134.447     -10273.793      139.34606      32808.074      499.31821      13949.824      1.5440336      0.86146447   
    857700  -10136.771     -10278.392      141.62061      30545.307      507.4686       13941.961      1.5449044      0.86146447   
    857800  -10138.624     -10277.961      139.33753      27132.724      499.28766      13950.755      1.5439305      0.86146447   
    857900  -10141.659     -10281.848      140.18919      29816.916      502.33941      13972.975      1.5414754      0.86146447   
    858000  -10144.428     -10280.763      136.33489      30232.086      488.52832      14003.471      1.5381184      0.86072497   
    858100  -10142.946     -10279.473      136.52673      28789.075      489.21572      14034.898      1.5346742      0.86072497   
    858200  -10142.435     -10279.658      137.22286      31711.532      491.71018      14061.542      1.5317663      0.86072497   
    858300  -10145.068     -10279.557      134.48875      30691.783      481.91304      14085.754      1.5291334      0.86072497   
    858400  -10146.236     -10283.356      137.12066      29051.269      491.34394      14099.178      1.5276774      0.86072497   
    858500  -10148.752     -10286.556      137.80405      28331.697      493.79275      14095.264      1.5281017      0.86072497   
    858600  -10147.073     -10279.845      132.77213      28233.292      475.7619       14068.671      1.5309901      0.86072497   
    858700  -10144.849     -10279.829      134.97963      30185.66       483.672        14029.199      1.5352977      0.86072497   
    858800  -10140.922     -10277.478      136.55587      28440.936      489.32013      13987.87       1.5398339      0.86072497   
    858900  -10139.295     -10278.612      139.3168       31515.303      499.21338      13951.914      1.5438022      0.86072497   
    859000  -10139.553     -10276.559      137.00621      31885.696      490.93383      13932.755      1.5459252      0.89825221   
    859100  -10143.743     -10282.236      138.49247      30464.625      496.25954      13934.253      1.545759       0.89825221   
    859200  -10145.737     -10284.669      138.93139      32884.469      497.83234      13952.003      1.5437924      0.89825221   
    859300  -10145.91      -10282.779      136.86934      32842.247      490.44341      13981.141      1.540575       0.89825221   
    859400  -10148.649     -10280.918      132.26892      28697.782      473.95874      14012.202      1.53716        0.89825221   
    859500  -10148.45      -10283.603      135.15274      27518.786      484.2923       14041.476      1.5339553      0.89825221   
    859600  -10149.551     -10283.875      134.3239       26106.265      481.32232      14064.007      1.5314978      0.89825221   
    859700  -10148.651     -10279.442      130.7907       29275.141      468.66183      14072.684      1.5305536      0.89825221   
    859800  -10144.806     -10285.803      140.99634      31223.196      505.23165      14069.553      1.5308941      0.89825221   
    859900  -10142.95      -10281.099      138.14975      32000.197      495.03149      14052.274      1.5327766      0.89825221   
    860000  -10142.146     -10279.526      137.3801       31517.688      492.2736       14028.897      1.5353307      0.80472087   
    860100  -10141.279     -10280.111      138.83208      30731.099      497.47647      14002.524      1.5382225      0.80472087   
    860200  -10143.083     -10279.523      136.44061      33043.277      488.90712      13978.666      1.5408478      0.80472087   
    860300  -10143.355     -10280.742      137.38673      33275.408      492.29737      13962.385      1.5426445      0.80472087   
    860400  -10141.282     -10280.257      138.97564      31852.823      497.99089      13954.922      1.5434695      0.80472087   
    860500  -10140.897     -10277.165      136.26837      33019.362      488.28994      13960.848      1.5428143      0.80472087   
    860600  -10143.224     -10284.498      141.27431      25963.364      506.22771      13978.978      1.5408134      0.80472087   
    860700  -10144.231     -10281.538      137.30697      28540.199      492.01154      13998.577      1.5386561      0.80472087   
    860800  -10139.123     -10278.359      139.23557      31067.921      498.9223       14019.918      1.536314       0.80472087   
    860900  -10143.109     -10277.856      134.74683      28578.829      482.83783      14041.71       1.5339298      0.80472087   
    861000  -10142.966     -10280.528      137.56202      28812.556      492.92546      14061.451      1.5317763      0.79971866   
    861100  -10137.503     -10276.667      139.16332      30451.442      498.6634       14072.596      1.5305631      0.79971866   
    861200  -10142.223     -10280.508      138.28452      27004.792      495.51441      14079.021      1.5298647      0.79971866   
    861300  -10142.651     -10283.072      140.4209       28663.837      503.1697       14075.946      1.5301989      0.79971866   
    861400  -10142.592     -10275.722      133.13026      30212.38       477.04516      14060.889      1.5318375      0.79971866   
    861500  -10142.629     -10280.282      137.65383      28031.119      493.25446      14041.017      1.5340054      0.79971866   
    861600  -10145.178     -10287.372      142.19393      28697.932      509.52297      14018.245      1.5364973      0.79971866   
    861700  -10141.046     -10278.618      137.57191      30943.776      492.96093      13989.367      1.5396692      0.79971866   
    861800  -10144.266     -10280.791      136.52455      30350.539      489.20791      13965.719      1.5422763      0.79971866   
    861900  -10143.627     -10278.391      134.76372      31173.734      482.89832      13952.216      1.5437689      0.79971866   
    862000  -10143.754     -10281.769      138.01563      32195.362      494.5509       13951.085      1.543894       0.83222678   
    862100  -10142.364     -10280.336      137.97167      30051.096      494.39337      13955.546      1.5434005      0.83222678   
    862200  -10137.555     -10276.578      139.0233       31545.584      498.16167      13967.104      1.5421233      0.83222678   
    862300  -10136.022     -10275.969      139.94732      26387.263      501.47272      13989.12       1.5396963      0.83222678   
    862400  -10138.586     -10279.492      140.90608      27915.986      504.90822      14019.527      1.5363569      0.83222678   
    862500  -10140.568     -10278.53       137.96148      30602.268      494.35686      14047.584      1.5332883      0.83222678   
    862600  -10140.254     -10279.532      139.27889      27361.985      499.07753      14069.343      1.530917       0.83222678   
    862700  -10142.082     -10281.864      139.78187      26476.515      500.87985      14079.031      1.5298636      0.83222678   
    862800  -10145.963     -10279.53       133.56669      28286.172      478.60903      14071.644      1.5306667      0.83222678   
    862900  -10145.433     -10281.44       136.00653      28743.951      487.35171      14048.845      1.5331507      0.83222678   
    863000  -10143.203     -10278.586      135.38279      28817.689      485.11664      14013.675      1.5369984      0.80775362   
    863100  -10145.066     -10283.773      138.70756      27072.108      497.0303       13974.815      1.5412724      0.80775362   
    863200  -10143.129     -10279.056      135.92692      30031.231      487.06641      13938.275      1.5453129      0.80775362   
    863300  -10143.135     -10282.37       139.23444      29119.138      498.91826      13913.199      1.5480981      0.80775362   
    863400  -10143.532     -10282.347      138.81556      34940.936      497.41728      13898.705      1.5497124      0.80775362   
    863500  -10142.203     -10279.459      137.25526      32865.272      491.82625      13897.001      1.5499025      0.80775362   
    863600  -10144.19      -10280.477      136.28696      29056.087      488.35657      13909.818      1.5484744      0.80775362   
    863700  -10142.607     -10281.36       138.75296      32247.77       497.19298      13937.458      1.5454035      0.80775362   
    863800  -10141.959     -10280.451      138.4926       30612.659      496.26003      13973.336      1.5414356      0.80775362   
    863900  -10144.716     -10278.948      134.2321       27002.886      480.9934       14013.878      1.5369762      0.80775362   
    864000  -10145.833     -10281.823      135.99042      27348.36       487.29395      14048.671      1.5331697      0.88995977   
    864100  -10144.381     -10278.861      134.48054      29674.042      481.88361      14065.433      1.5313426      0.88995977   
    864200  -10141.857     -10276.836      134.97917      29529.537      483.67036      14063.712      1.53153        0.88995977   
    864300  -10143.728     -10282.261      138.53324      28525.348      496.40563      14046.742      1.5333802      0.88995977   
    864400  -10146.783     -10282.541      135.75726      29095.454      486.4585       14016.859      1.5366493      0.88995977   
    864500  -10147.927     -10281.589      133.66157      31937.454      478.94902      13979.292      1.5407788      0.88995977   
    864600  -10150.102     -10286.137      136.03424      29703.514      487.45098      13939.133      1.5452178      0.88995977   
    864700  -10148.389     -10281.424      133.03511      32748.215      476.70422      13898.476      1.5497381      0.88995977   
    864800  -10148.457     -10281.934      133.47706      36324.574      478.28787      13867.322      1.5532196      0.88995977   
    864900  -10149.794     -10287.492      137.69812      33491.171      493.41317      13853.199      1.5548031      0.88995977   
    865000  -10147.499     -10285.096      137.59707      32005.323      493.05106      13850.53       1.5551027      0.86883573   
    865100  -10150.615     -10286.265      135.65026      30206.496      486.07508      13858.52       1.5542062      0.86883573   
    865200  -10145.697     -10282.813      137.11602      30375.512      491.32732      13874.278      1.5524409      0.86883573   
    865300  -10144.852     -10281.45       136.59867      32332.623      489.47351      13900.847      1.5494736      0.86883573   
    865400  -10144.731     -10281.273      136.54256      33398.857      489.27244      13932.745      1.5459263      0.86883573   
    865500  -10148.288     -10283.23       134.94164      31920.674      483.53588      13965.796      1.5422677      0.86883573   
    865600  -10149.688     -10282.503      132.81534      28628.909      475.91671      13995.371      1.5390086      0.86883573   
    865700  -10146.234     -10283.033      136.79904      27388.59       490.19148      14012.684      1.5371071      0.86883573   
    865800  -10145.361     -10284.063      138.7019       27624.14       497.01001      14017.246      1.5366069      0.86883573   
    865900  -10144.037     -10284.285      140.24822      28693.611      502.55093      14011.933      1.5371895      0.86883573   
    866000  -10145.742     -10280.809      135.06666      30645.363      483.98387      13997.403      1.5387852      0.808161     
    866100  -10143.928     -10282.064      138.13535      30648.3        494.9799       13978.062      1.5409143      0.808161     
    866200  -10142.188     -10282.145      139.95723      26342.651      501.50823      13958.464      1.5430779      0.808161     
    866300  -10140.285     -10278.572      138.287        27671.947      495.52329      13943.675      1.5447145      0.808161     
    866400  -10140.088     -10282.377      142.28903      30351.535      509.86375      13936.471      1.5455129      0.808161     
    866500  -10142.473     -10283.331      140.85858      29319.273      504.73804      13938.035      1.5453395      0.808161     
    866600  -10145.402     -10278.203      132.80041      31112.777      475.86322      13946.043      1.5444522      0.808161     
    866700  -10146.828     -10284.715      137.88676      29230.07       494.08913      13959.69       1.5429423      0.808161     
    866800  -10147.413     -10282.059      134.646        26075.985      482.47651      13973.602      1.5414062      0.808161     
    866900  -10146.963     -10281.021      134.05805      30001.556      480.36973      13985.016      1.5401481      0.808161     
    867000  -10147.152     -10284.712      137.56006      28139.964      492.91845      13991.36       1.5394498      0.90329235   
    867100  -10143.399     -10281.719      138.31971      25081.983      495.64049      13987.526      1.5398718      0.90329235   
