../../full/vii/30000_bar/melting_test/490/water.dat (written by ASE) 

2160 	 atoms 
2  atom types
0.0      20.132130158990048  xlo xhi
0.0      20.132271625021932  ylo yhi
0.0      35.107669046629312  zlo zhi


Atoms 

     1   1     0.29436615801567612      5.9372439416570062      5.4589391554805298
     2   1      19.205187657481833     0.21003815677909107      33.784309750028712
     3   1      2.4526370365543206      2.4523401103153502      34.928060810944181
     4   1      2.5712608198236193      3.6624746650538982      5.4391902465442792
     5   1      3.6586356395711284      5.8504988074036905      2.0975970582696748
     6   1      3.5855894737243919     0.37639670769986733      3.1138135865831131
     7   1      5.9442367443744146      3.5738061411445892      2.0583971523198934
     8   1      5.9754885337899699      2.4604589082485209       3.171044672976759
     9   1     0.81651836344909257      1.9618585676716391       1.476495883013677
    10   1      1.9136505651920002     0.84322138017201043      1.4391806276548234
    11   1      5.2819065932940843      5.2205052903277069     0.37524101423749168
    12   1      4.1651289987274094       4.118296970722394     0.39595671108841923
    13   1      4.2506050640768267      1.9553135044284962      4.8061913078292848
    14   1      5.3384163347274569      0.8446898516089687      4.8187578403671223
    15   1     0.88608115138610122      4.1818731061268073      3.7870328549096799
    16   1      1.9781087407134297      5.2960722604568122      3.7854106282262343
    17   1      3.6346435069484597     0.31576941867602581      34.825962381645468
    18   1      2.5272068238591623     0.33852499605855391      5.4136827812757282
    19   1     0.24243315808624977      2.5695047686822661      5.4673227953114738
    20   1      5.9200415316209352      2.4920853022406844      34.909729863190037
    21   1      5.8607265281922167      5.8083473721539551      3.1165818436628632
    22   1     0.39193969759941288      5.9596951553214081      2.1304855180760249
    23   1      3.6490631913334513      3.5889981077659514      3.1478436953009923
    24   1      2.5228260402622698      3.5864847026773274      2.0588535884812544
    25   1      4.2303360037701623      1.9470276097791166      1.4053336473835325
    26   1      5.3958596031965511     0.88554492889827352      1.4533355163369044
    27   1      2.0058408931762277      5.3147950320660602     0.40704046332552601
    28   1     0.88017338787540311      4.2260128936844659      0.4192633024903904
    29   1      1.9042951174018667      1.9934157641394983      3.7707019247266134
    30   1     0.78821315324255947     0.90210461216454807      3.7865585733065124
    31   1      4.2253486092728476      5.2662882614789215      4.7872466605641613
    32   1      5.3268923567718964      4.1346471099353233      4.7882445098855717
    33   1     0.37281095988390034      5.9998396619780925      12.099280582094979
    34   1     0.28915555985835723     0.31193781834926232      6.5337621801342243
    35   1      2.5483101098917049      2.5517255019330141      6.5417482980608215
    36   1      2.6165258345999853      3.7176650243097606       12.17208225256344
    37   1      3.6357784199237715      5.9305832529910774      8.7267831040021022
    38   1      3.6182550101610107     0.35235837337058379       9.916146036229426
    39   1      5.8391247344979815      3.6015270886668653      8.7865570442508361
    40   1      5.9105874494986468      2.5040545011070621      9.9074537009258741
    41   1     0.86888836188008844      1.9971309523874163      8.2080706218652271
    42   1      1.9716066519162336      0.8841551876159307       8.191247932151029
    43   1      5.2866927672189643      5.2912021586608748       7.085617407642486
    44   1      4.1729926250387308      4.1854947384203482      7.1063511086038078
    45   1      4.2857642516707246      2.0568565436235264      11.607509679970967
    46   1      5.3254325173508343     0.89709682651786771      11.597303739485374
    47   1     0.92948022886715931      4.3021540781409788       10.45947035825098
    48   1      2.0009676022265275      5.4460457494674834      10.450276847462087
    49   1      3.6445369459359944     0.30360510744667185      6.5161961150832672
    50   1      2.6387283961338075     0.32015830437957343      12.204438157339641
    51   1     0.41952613054060389      2.6063542257740751      12.135042345880402
    52   1       5.887021415346287      2.5493258502418095      6.5069906858814086
    53   1      5.8140466404602291      5.9527329283970154      9.7767852981528041
    54   1      0.3659910182470964      6.0067012793616437      8.7576382504851669
    55   1      3.6234986303912162      3.6550293453950329      9.8832034731673186
    56   1      2.4939904695176813      3.6158638876310283      8.7916811292764194
    57   1      4.1884146969813596      1.9599582477029698      8.1842773662563442
    58   1      5.3085759110178019     0.87221861021440894      8.1917100259955085
    59   1      2.0130117762681095      5.3080064804831499      7.1063273994955596
    60   1     0.85416571735597557      4.2578689117912454      7.0943288788562908
    61   1      2.0364860225892936      2.0019384903829622      10.514177319883864
    62   1     0.90209366771592858     0.90782440362573169      10.522931907264423
    63   1      4.2069563199728677      5.4245387437541392      11.431819894870872
    64   1      5.3311671946084349      4.3082595440753195       11.42936188865008
    65   1      19.178955299859513      6.0285714963653438       19.86789342029892
    66   1     0.34182618064186798     0.28156833995432018      13.188434300088263
    67   1      2.6272363923202309      2.5822179413589388      13.253974930869854
    68   1     0.80373287184411546      4.2242534145724386      20.525970416642185
    69   1      3.6859239976158689      6.0986190540660443      15.330969888889285
    70   1      3.6356070252754109     0.21125491771564595        16.5564538220213
    71   1      5.9785128108120649      3.7122198904881856      15.331186980741913
    72   1        6.08144878908828      2.5943461231665017      16.443404802534182
    73   1     0.97682149441152855      1.9876652094317051      14.883473632576058
    74   1      2.0749900030492996     0.87721786372075439       14.88461935572944
    75   1      5.3601674238947101      5.3741067485208989      13.757323281820936
    76   1      4.2820864028553807      4.2328995828269358      13.811974200014768
    77   1      5.4118716352673752     0.78006874501680845      18.218596727488983
    78   1      4.4446406500647546      2.0079981299543692      18.208839607744043
    79   1       1.011182141312948      4.3136204032494776      17.201808208159605
    80   1      2.0519576771622958       4.285798998102055      18.364751469067201
    81   1      3.7709483411840541     0.20419577265163208      13.299935657670698
    82   1      2.8212418516551452      19.285525353739587      19.933768021742726
    83   1       19.62692031755606      3.4351432317619213       18.92762719347234
    84   1      6.9850643806035428      2.6716894679063841      12.046290743399044
    85   1      7.0713585083063615      7.1726141649372481      16.457996572809105
    86   1     0.45780805175769662      5.9502695427023848      15.529371700149339
    87   1      3.7730083795826146      3.7996171520244557       16.57102205224183
    88   1      2.6014780803306752       3.708362218757832      15.545489617364829
    89   1       4.251414397547375        1.89733749665952      14.952616440143011
    90   1      5.3790788887967791     0.82236072571835339      14.970231967632804
    91   1      2.0733902504574626       5.422411610791082      13.783369404078623
    92   1     0.96241301166182769      4.3165741311328496       13.76820160912812
    93   1      2.2142168878901036      2.0825869843214817      17.303655887255552
    94   1      2.3254927947605042     0.95133917203758511      18.395026093675146
    95   1      5.4274953896808542      5.4725162581920186      16.930580343420267
    96   1      4.2612793857074349      5.5079378524672302      17.961577376878736
    97   1      18.753159737597507      7.1213085523979265      25.832885060726419
    98   1      19.430059359389006      19.329779266748613      19.834177197263845
    99   1      2.8410974941253415      2.6752712719666132      19.954354745216285
   100   1      2.1827776092272337     0.63938995677373778      25.522287386095755
   101   1      7.1486127729035083     0.94081218981621906      24.690267825352851
   102   1      6.9748922860641054      16.970335608124199       19.77622389209543
   103   1      8.8829863793623449      1.7439145413753647      25.998622203312802
   104   1      7.5784961217696116      2.4452752868549581      26.472130838081981
   105   1      1.0289047340544399     0.61549372676348835       22.23092949493018
   106   1     0.63018096092316844      19.376035804381701      21.814888948323599
   107   1      5.3956031177786832       5.202635126262189      20.997350802160717
   108   1      4.1098200552974449      5.8531393045482449      20.407147388040574
   109   1      5.5082090085223845      18.746333803971556      20.639053747136234
   110   1      5.5307273790038911      17.432764223056591      21.330100695458746
   111   1      2.9799156891613432      2.8046194500932953      29.011301136872916
   112   1      3.3172316462486671      5.3514470044260944      22.588048639345274
   113   1      3.9756748852970905     0.16487431204922615      19.935629178483801
   114   1      3.1143149454954342      0.2446092605412509      23.628225592041098
   115   1     0.26117279619140454      3.0842231440349392      26.044832380982442
   116   1      5.8182069420465563      2.7617298789592644      19.913955244687592
   117   1      5.1770658982886744      5.7097038098697528      25.871815477638691
   118   1     0.19010233729731935      6.0213292589828065      22.011614469718502
   119   1      4.9064746693754309      3.2518018719281776      23.061404652186933
   120   1      3.9658019598530942      2.5017618925695477      24.057963028685435
   121   1      2.8710096099387741        2.18784621390536      22.091927844332119
   122   1      3.8078179696554475      3.8814416073122588      19.945947668868492
   123   1      1.7353833613130401      5.4647772201892835      20.443276348715735
   124   1      19.418837248919829      2.1653390940165584      22.874005998348846
   125   1      19.751606558238798       3.498419194898057       23.58624858634899
   126   1      2.1001310021524309      4.4846785214937341      25.778302099272182
   127   1       7.120918524002489      3.8255901242597501       28.30746840007167
   128   1      5.9477199583316613      3.5067471703142199      27.260704603874245
   129   1     0.25508304868105525      5.9449026673455458      33.927477787415157
   130   1      19.071213302611937       18.97645782976014      27.873137801936679
   131   1      1.9626105255591322       2.030265477994885      24.808414683194691
   132   1      2.5305578401777091      3.6079660567514091      33.861176168865619
   133   1      3.4747337305696369      6.9939187451035689      31.439025691420149
   134   1      3.4820176896003079      19.498660610294827      30.286976235721802
   135   1      5.8572437805761401      2.7188831481017797      31.521075590883918
   136   1      6.9635695839348886      3.8226256205846045      31.523515216650615
   137   1      1.7175010088004548     0.63611128592820498      29.772030115255994
   138   1      1.3137613643767045      1.8642461735333828      28.833810808898299
   139   1      5.2050910978050906      4.3263363910214006      29.941608306568909
   140   1      4.0482801368069845      4.2887856204343686      28.848019893529877
   141   1      4.1829634966238283      2.0041490440431184      33.200755650194566
   142   1      5.2930616108263724     0.91421602917936329      33.080413194496963
   143   1     0.79930731155089929      4.2758878218923684      32.376698291295554
   144   1      1.9062447108082492      5.3531179096263148      32.304772556874504
   145   1      3.8098103507635406      19.505623225108835      22.515074753732222
   146   1      3.6239842163481426      19.449958483125275      33.686036335831929
   147   1      19.166719177781243      3.6099811854911574      33.815669256111526
   148   1      10.544979642011556      3.0298657693944562      26.781167406149791
   149   1      5.8599514667378019      6.9555262202373358      30.396356968218747
   150   1      17.562777521122165       4.158997017436473      29.288283034753679
   151   1      2.0718979398152548      2.3710031017379003      31.628925769631923
   152   1      3.1089035116492174      3.5240212109480926      31.365108636489335
   153   1      4.4682629766918609     0.98238882556807527      28.678636194706598
   154   1      5.5193775095247233      2.1017953575591628      28.967056946469302
   155   1    -0.18764047004724033      4.7296297459708052      28.547112283476732
   156   1     0.62802633901744098      5.3182317914028783      29.683051498260195
   157   1     0.60316171355792514      1.9293251435536951      33.255654078958422
   158   1      1.7678006882758217     0.88154274553534773       33.27132839306028
   159   1      5.1865511270434599       5.221395911865967      32.108779925436536
   160   1      4.1253916898638234       5.329873777164682      33.241804193446775
   161   1     0.30003716500854294      12.733259246353091      5.4092328564769305
   162   1     0.30262268674794868      7.0687045294005548   -0.075425358762249525
   163   1      2.6773732845638247       9.294845358726084      34.891450036863588
   164   1      2.6390918828553569      10.489068109068674      5.3920315950978646
   165   1      3.7176037832959734      12.680461964980811      2.0680405465316185
   166   1      3.6343018697578771      6.9996311126038773      3.1696529778896529
   167   1      5.8944165988286663      10.402279812464782      2.0168859116724298
   168   1      5.9049181302379949       9.266617252087908      3.1049328743148137
   169   1      0.9592427594026417      8.7104761994832387       1.516283552353588
   170   1       2.054053023143426      7.5809300700018767      1.4869902649963507
   171   1       5.361084206372742      12.085105274742807     0.37184701862496949
   172   1      4.2684753357541387      10.966906018208636     0.35602707543307749
   173   1      4.2564405520728856       8.705558113543777      4.7681958750348734
   174   1      5.3135470696157059      7.5451215486370389      4.7706476328783038
   175   1     0.95567812389145468       10.97069800852838      3.8028531505645544
   176   1      2.0218076813336707       12.11515657459544      3.7700823779046382
   177   1      3.7152512134276243      6.9867638184452714      34.919675094517061
   178   1      2.5639326518006649      6.9973525059954884      5.3741094457906318
   179   1     0.35220845971551412      9.3154563139998228      5.4625131986367004
   180   1      5.8289151265777894      9.3151529830275432      34.835118229827557
   181   1      5.8846063787229443      12.726144252247989      3.1689114717369335
   182   1     0.43701054208917378      12.708019766104242      2.1507672860579166
   183   1      3.7113746257083227      10.418804499778563      3.1094164302220593
   184   1      2.5636971219606397      10.376693764241873      2.0528718202892002
   185   1      4.2310327629591784      8.6478288120649065      1.4913657314664914
   186   1      5.3428350937724796      7.5442606320753498      1.4682926101947207
   187   1      2.0969945423372378      12.061830244602884     0.42562109051481151
   188   1     0.95454441860331063      10.981691580047627     0.40718463251580089
   189   1      2.0377477734758509      8.7199306658123366      3.7570017065957617
   190   1     0.95388157182506761        7.57958579405524      3.7705757460711697
   191   1      4.2715425230789226      12.145003992955798      4.8043844486595733
   192   1      5.3642813426641718      10.998543291921202      4.7714063029658629
   193   1     0.23111521875539925      12.687195964745483      12.031423876792168
   194   1      0.3455643145260901       7.088342093799846      6.5215722698578729
   195   1      2.5992387727747892       9.328922027654821      6.4447522171233933
   196   1      2.5253671225450929      10.544015713443882       12.08018108227356
   197   1      3.6076572778973568      12.757997464903756      8.6786389196151283
   198   1      3.6011397836238941       7.114279614001962      9.7615340064441902
   199   1      5.8830789292291348      10.514831857432176      8.6645517874126199
   200   1      5.8945522206290164      9.3799455516848269      9.7442316341810269
   201   1     0.92736110047816378      8.7393156513762413      8.1185347924456224
   202   1      2.0051716334091521      7.5964021027892628      8.1061620897348305
   203   1       5.311255257544393      12.162199601427039      6.9935411735011082
   204   1       4.214962273427501      11.045019943212145      7.0228245804965193
   205   1      4.2367575330533835      8.8024973513064122      11.412245897679098
   206   1      5.3161898794858606      7.6618717935328791      11.384640982857279
   207   1     0.87121988221444879      11.006681264593118      10.374796847780457
   208   1      1.9287966824992167      12.163288883512026      10.359145689177106
   209   1      3.6968261403906455      6.9637849185880389      6.4557321004483557
   210   1      2.5878445255990812      7.1477830235056619       12.04804261182627
   211   1     0.32131358186426551      9.3927676400169222       12.06199827320701
   212   1      5.8357355793281203      9.3660141320477308      6.4187274424832879
   213   1      5.8327258895015861      12.729095762243075      9.7682230143609097
   214   1     0.37031895966070427      12.779715594782065      8.6912341309896117
   215   1      3.6101370422100154      10.473861094511022      9.7589677417240779
   216   1      2.5117596102819326      10.443166089514992      8.6451105111222475
   217   1      4.2107127054640845        8.75036887540195      8.0592976896358728
   218   1      5.3246958814568917      7.6427397171532325      8.1112013746908698
   219   1      1.9969090797167566      12.155250614685336       7.024047410534294
   220   1     0.87613948183091483      11.059443770418572      7.0467768960443236
   221   1      2.0002607303585349      8.8437928361191656      10.393434213191163
   222   1      0.9355723632350299      7.6816714804346944      10.399156000945467
   223   1      4.1518072385497025      12.157351396696624       11.41882120801718
   224   1       5.273043157330469      11.057897731293645      11.389098796953631
   225   1      17.570984989210942      11.033830435051057      16.976998179035022
   226   1      0.3837493637295124      7.1174772603325067      13.188970165539745
   227   1      2.4937664936033852      9.3877847425677974      13.143455360909245
   228   1      4.1619161157764051      10.155227129429024      19.786411726681784
   229   1       3.555668842951059      12.714296820638911      15.401144984100277
   230   1      3.6747141114833846      7.2059186807617399      16.421347399103325
   231   1      5.7610061119304694      10.448450495675694      15.417448253991598
   232   1      6.9260674927303034      10.469010492493792      16.485911007108378
   233   1       0.878553229013458      8.8070672820765772      14.841067418616429
   234   1      2.0275961979406274      7.7306786180229414      14.809573332639824
   235   1      5.2218716796792037      12.083483126915175      13.779554561541948
   236   1      4.0959599722206876      10.995249753748269      13.764643770435869
   237   1      4.2358604285724804      8.6131656824911964      18.197256161580185
   238   1      5.3475171219802853      8.7207648217394986      17.084745290275009
   239   1      1.8788137697657012       11.10790064877863      18.237976904804032
   240   1     0.80000317607086402      11.066118097904068      17.098404215285854
   241   1       3.729117957288655      7.0970500692998328      13.127707105756912
   242   1      2.3775980117903983      7.0863396600675479      18.691273375227773
   243   1      17.288695853270568      11.328579638059734      20.621702919832341
   244   1      5.8344217375777427      9.4302041914858226      13.072936830013981
   245   1      6.9406379495420731      13.736113520419106      16.494573975884769
   246   1      20.328576206389872      12.739599871679443      15.409645582722995
   247   1      3.5822091211958345      10.489953849831833      16.602522455892082
   248   1      2.4765538694581903      10.433319470491618      15.500454740684226
   249   1      4.2311733889889034      8.7462327471083086      14.761494309637847
   250   1        5.39578592235027      7.7176797884103916      14.719563293710365
   251   1      1.9163334686403217       12.10654738350725      13.759335554833587
   252   1     0.79187245132062634      11.017268414829841      13.786394319676562
   253   1     0.97856812047349173      8.7515338817965151      18.389654683259845
   254   1      1.9742301715244162      8.7853871165682822      17.156484393693315
   255   1      5.1656630209124978      12.157198209756368      17.053177146850818
   256   1      5.2596670811714867      11.099097122285727        18.1879356379165
   257   1       17.71292204751683      14.278093328572377      28.848959242616129
   258   1     0.23868076730198751      6.0846783600779677      18.888367164042517
   259   1      2.9466134430944235      9.2849358358622762      20.136569736861553
   260   1     0.67348010403217373      7.8415264333041286       28.97344124659887
   261   1      4.1074378007739387      11.247245558567153      21.896364103339458
   262   1      5.8465225027204735     0.41793445673094937       23.94674495835384
   263   1      5.4586104043185326      10.770385244698957      24.446762472378484
   264   1      4.1553398781609019      10.898562234097923      25.298249178025944
   265   1      2.4856937575864415      7.1952930811719753       22.43763637676879
   266   1      1.1908156395289005      7.9479175204901562       21.94775958630763
   267   1      7.1110474042360021      10.547952220301632      22.688159146603752
   268   1      7.4487062617728661      10.133393531677839      24.145116925547221
   269   1      3.8109412433279934      8.6868809799999536      25.869742088659958
   270   1      4.0056058481839063      8.4781555455422328      24.349342928086582
   271   1     0.21978599221160455      10.178973834607673      23.472300502187259
   272   1       19.17026258925226      9.2001819226336554       23.35284246600062
   273   1      2.6202789274916896      7.3155779141208281      20.227883322117549
   274   1      3.1306654600606061      6.5438386449653008      26.497638132144811
   275   1      1.7613169887584388      7.5838686104464443      25.003047013676884
   276   1      6.9090496543443374      9.4084670393821881       18.69307196585466
   277   1      5.8849316122922621      10.210557770810148      26.528852558993862
   278   1      2.4968204091643544      15.445014203166902      26.024301474676538
   279   1     0.75626941075888687      11.572638054121986      25.341374608562536
   280   1      2.0174683388142123      12.102261946144939       24.58457121489241
   281   1      5.1397765716396027      9.0694787580762402      22.180767636950751
   282   1      5.4598278499334452      7.5825841897298698      21.898734267766752
   283   1      1.9183285221914013      12.299018793718094       20.61367324804921
   284   1      2.0087679367407563       11.19919280998749      21.746200250761799
   285   1     0.14671119158907478      9.0914598209037472      25.912734055042964
   286   1      19.520510484318098      9.1543174401587262      27.287214640315064
   287   1      2.3177601436621584      9.1464684486289549      27.716139736403075
   288   1      2.2432864610954466      10.263107217291745       26.60993084521143
   289   1      19.447764099341054      13.692682583698589      33.847961736750875
   290   1    0.097142819782581324      6.8106296923803793      26.249214359316898
   291   1      2.0082804075858798       7.468758143235374      29.749197925958885
   292   1      2.6652284269657605      10.385529459817811      33.771867868958289
   293   1      2.6407877570128035      14.018427123541228      31.478215602276517
   294   1       3.507802948081574      5.8268860580762816      30.391972514761306
   295   1      5.9819296240573223      9.5437384352766763      31.253035928777663
   296   1      6.8292157105252791       9.324255491637043      29.968074064879854
   297   1      19.381212895470423      6.7807037585460774      30.434913968212182
   298   1     0.27577582460172484      6.9097097216349592      31.634434714846176
   299   1       4.164482210093964      10.485318881473756      28.250784820474397
   300   1      5.1641285583476533      10.970304996980625      29.358408468796103
   301   1      5.2790446264498812       7.523102601812627      33.105483352937107
   302   1      4.1994823697925812      8.6484429336379165      33.037091817093533
   303   1      1.9188289524614643      11.924037842958141      32.133189667820815
   304   1     0.88338072343638174      11.962627917853508      33.301925339885308
   305   1      1.9767576369775259      6.0924954761563752      27.500641504647525
   306   1      2.5548244704138945       7.005419502290521      33.860214336041658
   307   1      19.422115056113874      10.332721950702535       33.85872869499925
   308   1      6.5069182809394404      7.6653476317184808      24.965633784836477
   309   1      5.9654011056490734      13.851702345880328      30.191112598182411
   310   1      19.579570777386142      12.639905890490411      31.517699660185084
   311   1      3.6732343443942628       9.265715434203436      30.489544079714637
   312   1      2.4860899035795239      10.257078028677647      30.471178844780876
   313   1      3.9747279026021172      7.7052567033757464      28.712807350734657
   314   1      5.2258380011758563      8.5598094954753048      28.413233255493221
   315   1      2.4866052547044655      11.701610462484167      29.144324738815797
   316   1      1.1444861843968708      12.058570283972466      29.846428594405342
   317   1      2.0105291717966338      8.6278539150181803      32.254954137290568
   318   1     0.92268172682301508      8.6348937256466662      33.388717908686232
   319   1      5.3865272480628503      12.106676909715379      32.006939105813366
   320   1      4.2377852565101648      11.034885796015644      32.011133838056665
   321   1     0.22500252459932185      19.383208678326469      5.4375396135228238
   322   1      0.4425191057238772       13.72892386117889      34.933739243773502
   323   1      2.6924619796714073      16.133897547281258      34.824433316941942
   324   1      2.5739967885304389      17.287663487356625      5.3861012621925353
   325   1      3.6343432253351966      19.438301732992475      2.0296993407812924
   326   1      3.6442587675637963      13.808756841791412      3.1454137585876185
   327   1      5.9327822383874276      17.149064868975291      2.0503340678817179
   328   1      5.9668405562898794      16.056714957100418      3.1715114143299834
   329   1     0.92330314744590458      15.492789122509576      1.3973787370394555
   330   1      2.0573320854476282      14.408837594778555      1.4062514608553303
   331   1      5.3812649590495782      18.920158298366594     0.35473618495420972
   332   1      4.2672802102743077      17.837358974152753     0.32228500669664073
   333   1      4.2475457014983986      15.539655991388548      4.7914383292468603
   334   1      5.3318745671063841      14.396484709391011       4.788599568401346
   335   1     0.87057703630152583      17.734392964496678      3.7171530149643282
   336   1      1.9354157420417517      18.878590137128658      3.7184008008335256
   337   1      3.7449187781245135       13.81470033057527      34.867715648330162
   338   1      2.5613947765434872      13.890570117009128       5.371707639629153
   339   1     0.29574743221313332      16.117477869059616      5.4133663710779709
   340   1      5.9147500838851785      16.117027962357625      34.854334199291458
   341   1      5.9919687503239079      19.410678998822355      3.0980072022584713
   342   1      20.334996435021395       19.48876024040846      2.0993320925662404
   343   1      3.6906067698568834      17.224464875596457      3.0879794241398448
   344   1      2.5239762860372243      17.198583892745649      2.0394262151218223
   345   1       4.213656842697735      15.512572505928615      1.4445671828369675
   346   1      5.3482488325263171      14.435855457075197      1.4422547877267111
   347   1      1.9930810206394574      18.785724409272991     0.37611671131813113
   348   1     0.83697737144605011      17.734246338996609     0.38852341617912817
   349   1      1.9904424152658158      15.571635332668651      3.7181864200100776
   350   1     0.90831771459282484      14.425346906965272      3.7232303901031427
   351   1       4.244871732202947      18.900753043150797      4.7399241521650222
   352   1      5.3411984503602135      17.782137180940957      4.7708726977430711
   353   1      0.3054232270533187      19.342345670268521      12.097016518244859
   354   1     0.36981760066122205      13.888820846865279      6.4615800392212543
   355   1       2.555688673157356      16.143961562984416      6.4529787138821142
   356   1       2.604564876537979      17.143176729671197      12.110090496056367
   357   1      3.6481934318156846       19.42008089395495      8.8136317827034958
   358   1      3.6005827671133259      13.895085004163517      9.7515015913560941