LAMMPS (27 Jun 2024)
KOKKOS mode with Kokkos version 4.3.1 is enabled (src/KOKKOS/kokkos.cpp:72)
  will use up to 1 GPU(s) per node
WARNING: When using a single thread, the Kokkos Serial backend (i.e. Makefile.kokkos_mpi_only) gives better performance than the OpenMP backend (src/KOKKOS/kokkos.cpp:202)
  using 1 OpenMP thread(s) per MPI task
package kokkos
package kokkos newton on neigh half

units		metal						## E in [eV], t in [ps], P in [10000 Pa], l in [A]
atom_style	atomic						## mass x y z vx vy vz

neighbor	0.5 bin						## neighbor list, skin = 0.5 Angstrom
neigh_modify	every 2 delay 10 check yes			## update of neighbor list

############################## main variables
variable        seed equal 45964

variable	temperature equal 470
variable	tempDamp equal 0.1

variable        pressure equal 30000
variable        pressureDamp equal 1.0 				# This is 1 ps

##############################

read_data water.dat
Reading data file ...
  orthogonal box = (0 0 0) to (19.665067 19.665067 19.640133)
  1 by 1 by 1 MPI processor grid
  reading atoms ...
  1296 atoms
  read_data CPU = 0.016 seconds

mass		1 1.008    # H
mass		2 15.9994  # O


pair_style	pace/extrapolation
ACE/AL version: 2023.11.25
pair_coeff	* * /pc2/users/a/acepdw01/work/phase_diagram/pot_dir/interim_potential_ladder_step_1.yaml /pc2/users/a/acepdw01/work/phase_diagram/pot_dir/interim_potential_ladder_step_1.asi H O
Loading /pc2/users/a/acepdw01/work/phase_diagram/pot_dir/interim_potential_ladder_step_1.yaml
Total number of basis functions
	H: 23 (r=1) 664 (r>1)
	O: 23 (r=1) 664 (r>1)
Mapping LAMMPS atom type #1(H) -> ACE species type #0
Mapping LAMMPS atom type #2(O) -> ACE species type #1
Loading ASI /pc2/users/a/acepdw01/work/phase_diagram/pot_dir/interim_potential_ladder_step_1.asi
LINEAR ASI is loaded

fix pace_gamma all pair 1000 pace/extrapolation gamma 1
compute max_pace_gamma all reduce max f_pace_gamma
variable dump_skip equal "c_max_pace_gamma < 10"

dump pace_dump all custom 1000 extrapolative_structures.dump id type x y z f_pace_gamma
dump_modify pace_dump skip v_dump_skip
dump_modify pace_dump element H O

variable max_pace_gamma equal c_max_pace_gamma

timestep	0.0005						## timestep = 0.0005*ps = 0.5 fs

thermo		100
thermo_style custom step etotal pe ke press temp vol density c_max_pace_gamma


min_style cg
minimize 0.0 5.0e-4 10000 100000

CITE-CITE-CITE-CITE-CITE-CITE-CITE-CITE-CITE-CITE-CITE-CITE-CITE

Your simulation uses code contributions which should be cited:

- Type Label Framework: https://doi.org/10.1021/acs.jpcb.3c08419

@Article{Gissinger24,
 author = {Jacob R. Gissinger, Ilia Nikiforov, Yaser Afshar, Brendon Waters, Moon-ki Choi, Daniel S. Karls, Alexander Stukowski, Wonpil Im, Hendrik Heinz, Axel Kohlmeyer, and Ellad B. Tadmor},
 title = {Type Label Framework for Bonded Force Fields in LAMMPS},
 journal = {J. Phys. Chem. B},
 year =    2024,
 volume =  128,
 number =  13,
 pages =   {3282–-3297}
}

CITE-CITE-CITE-CITE-CITE-CITE-CITE-CITE-CITE-CITE-CITE-CITE-CITE

Switching to 'neigh_modify every 1 delay 0 check yes' setting during minimization
Neighbor list info ...
  update: every = 1 steps, delay = 0 steps, check = yes
  max neighbors/atom: 2000, page size: 100000
  master list distance cutoff = 6.5
  ghost atom cutoff = 6.5
  binsize = 6.5, bins = 4 4 4
  1 neighbor lists, perpetual/occasional/extra = 1 0 0
  (1) pair pace/extrapolation/kk, perpetual
      attributes: full, newton on, kokkos_device
      pair build: full/bin/kk/device
      stencil: full/bin/3d
      bin: kk/device
WARNING: Fix with atom-based arrays not compatible with sending data in Kokkos communication, switching to classic exchange/border communication (src/KOKKOS/comm_kokkos.cpp:754)
WARNING: Fix with atom-based arrays not compatible with Kokkos sorting on device, switching to classic host sorting (src/KOKKOS/atom_kokkos.cpp:216)
Per MPI rank memory allocation (min/avg/max) = 1123 | 1123 | 1123 Mbytes
   Step         TotEng         PotEng         KinEng         Press           Temp          Volume        Density     c_max_pace_gamma
         0  -6250.4972     -6250.4972      0              21939.986      0              7595.1311      1.7015372      0.62320149   
        33  -6250.6452     -6250.6452      0              22350.057      0              7595.1311      1.7015372      0.62320149   
Loop time of 0.245883 on 1 procs for 33 steps with 1296 atoms

99.5% CPU use with 1 MPI tasks x 1 OpenMP threads

Minimization stats:
  Stopping criterion = force tolerance
  Energy initial, next-to-last, final = 
     -6250.49717465846  -6250.64523648355  -6250.64523648875
  Force two-norm initial, final = 0.82052426 0.0003006328
  Force max component initial, final = 0.040662504 1.1270971e-05
  Final line search alpha, max atom move = 1 1.1270971e-05
  Iterations, force evaluations = 33 66

MPI task timing breakdown:
Section |  min time  |  avg time  |  max time  |%varavg| %total
---------------------------------------------------------------
Pair    | 0.22108    | 0.22108    | 0.22108    |   0.0 | 89.91
Neigh   | 0          | 0          | 0          |   0.0 |  0.00
Comm    | 0.0015992  | 0.0015992  | 0.0015992  |   0.0 |  0.65
Output  | 0          | 0          | 0          |   0.0 |  0.00
Modify  | 0.013908   | 0.013908   | 0.013908   |   0.0 |  5.66
Other   |            | 0.009291   |            |       |  3.78

Nlocal:           1296 ave        1296 max        1296 min
Histogram: 1 0 0 0 0 0 0 0 0 0
Nghost:           4514 ave        4514 max        4514 min
Histogram: 1 0 0 0 0 0 0 0 0 0
Neighs:              0 ave           0 max           0 min
Histogram: 1 0 0 0 0 0 0 0 0 0
FullNghs:       251424 ave      251424 max      251424 min
Histogram: 1 0 0 0 0 0 0 0 0 0

Total # of neighbors = 251424
Ave neighs/atom = 194
Neighbor list builds = 0
Dangerous builds = 0

################## equilibration of main calculation

fix             3 all nph aniso ${pressure} ${pressure} ${pressureDamp}
fix             3 all nph aniso 30000 ${pressure} ${pressureDamp}
fix             3 all nph aniso 30000 30000 ${pressureDamp}
fix             3 all nph aniso 30000 30000 1
fix             4 all temp/csvr ${temperature} ${temperature} ${tempDamp} ${seed}
fix             4 all temp/csvr 470 ${temperature} ${tempDamp} ${seed}
fix             4 all temp/csvr 470 470 ${tempDamp} ${seed}
fix             4 all temp/csvr 470 470 0.1 ${seed}
fix             4 all temp/csvr 470 470 0.1 45964
velocity 	all create ${temperature} ${seed} dist gaussian
velocity 	all create 470 ${seed} dist gaussian
velocity 	all create 470 45964 dist gaussian

run 20000
WARNING: Fix with atom-based arrays not compatible with Kokkos sorting on device, switching to classic host sorting (src/KOKKOS/atom_kokkos.cpp:216)
Per MPI rank memory allocation (min/avg/max) = 1123 | 1123 | 1123 Mbytes
   Step         TotEng         PotEng         KinEng         Press           Temp          Volume        Density     c_max_pace_gamma
        33  -6171.971      -6250.6452      78.674187      33414.156      470            7595.1311      1.7015372      0.62320149   
       100  -6161.5121     -6193.8598      32.347699      37656.566      193.24532      7600.9563      1.7002332      0.62320149   
       200  -6145.9497     -6197.1986      51.248908      36513.472      306.16124      7660.658       1.6869828      0.62320149   
       300  -6134.7021     -6192.9403      58.238262      37470.967      347.91568      7776.3335      1.6618883      0.62320149   
       400  -6128.671      -6187.9049      59.233889      37041.319      353.86356      7920.9925      1.6315377      0.62320149   
       500  -6123.4175     -6187.5527      64.135227      29788.025      383.14417      8058.8677      1.6036245      0.62320149   
       600  -6117.2424     -6184.2244      66.982029      25372.945      400.15098      8161.0366      1.5835486      0.62320149   
       700  -6112.5369     -6181.6531      69.116119      24466.449      412.90005      8226.3078      1.570984       0.62320149   
       800  -6107.9867     -6178.0635      70.076749      24791.287      418.63886      8261.1557      1.5643571      0.62320149   
       900  -6104.6899     -6178.0043      73.314461      25056.694      437.98097      8275.9738      1.5615562      0.62320149   
      1000  -6101.6977     -6175.6093      73.911616      28423.577      441.54837      8278.2555      1.5611258      0.80946281   
      1100  -6100.1201     -6174.8929      74.77282       30112.16       446.69321      8270.9647      1.5625019      0.80946281   
      1200  -6097.2121     -6172.7404      75.528322      24471.387      451.20659      8254.6929      1.5655819      0.80946281   
      1300  -6095.6863     -6171.4468      75.760503      26614.038      452.59364      8238.2058      1.5687151      0.80946281   
      1400  -6094.9364     -6172.9546      78.018153      31185.405      466.08085      8226.7274      1.5709039      0.80946281   
      1500  -6095.1724     -6171.754       76.581532      32764.375      457.49847      8220.4583      1.5721019      0.80946281   
      1600  -6093.2453     -6170.7573      77.512051      29401.627      463.05739      8219.6815      1.5722504      0.80946281   
      1700  -6092.7651     -6170.9314      78.166342      28867.935      466.96613      8226.467       1.5709536      0.80946281   
      1800  -6093.3581     -6171.4979      78.139886      30575.746      466.80808      8236.6825      1.5690052      0.80946281   
      1900  -6091.5591     -6170.7185      79.159433      29288.262      472.89886      8250.7806      1.5663243      0.80946281   
      2000  -6092.3524     -6173.0633      80.710928      33000.783      482.1675       8268.3998      1.5629866      0.80293955   
      2100  -6089.5255     -6168.0801      78.554642      29467.607      469.28583      8287.2389      1.5594335      0.80293955   
      2200  -6089.5219     -6170.0437      80.521785      27432.419      481.03756      8309.8041      1.5551989      0.80293955   
      2300  -6092.1485     -6169.4054      77.256879      28001.552      461.53299      8329.1151      1.5515932      0.80293955   
      2400  -6093.3987     -6172.7407      79.342005      28390.487      473.98955      8339.1174      1.5497321      0.80293955   
      2500  -6094.5857     -6171.6604      77.074703      30185.238      460.44467      8342.4561      1.5491119      0.80293955   
      2600  -6093.0075     -6169.6191      76.611517      28778.606      457.6776       8337.5885      1.5500163      0.80293955   
      2700  -6092.579      -6171.5719      78.992983      28129.971      471.90449      8322.139       1.5528938      0.80293955   
      2800  -6089.7946     -6167.6331      77.838478      27375.383      465.00747      8302.9407      1.5564844      0.80293955   
      2900  -6090.1992     -6170.5815      80.382289      29588.484      480.20421      8288.4572      1.5592043      0.80293955   
      3000  -6089.6018     -6167.2053      77.603431      29967.61       463.6033       8277.2893      1.561308       0.78800609   
      3100  -6090.9641     -6170.1713      79.207122      32579.731      473.18375      8272.2239      1.562264       0.78800609   
      3200  -6090.6909     -6168.0283      77.337454      33309.674      462.01435      8274.549       1.561825       0.78800609   
      3300  -6087.6961     -6166.0316      78.335484      30279.143      467.97659      8286.9776      1.5594827      0.78800609   
      3400  -6090.0947     -6170.616       80.521287      30883.429      481.03458      8310.6641      1.5550379      0.78800609   
      3500  -6090.1588     -6168.3634      78.20466       30781.68       467.19504      8335.6044      1.5503852      0.78800609   
      3600  -6090.5211     -6171.6416      81.120419      27328.308      484.6138       8361.6078      1.5455637      0.78800609   
      3700  -6090.5135     -6168.3322      77.818704      31752.386      464.88934      8385.017       1.5412489      0.78800609   
      3800  -6089.5398     -6170.0181      80.478264      30850.761      480.77757      8401.5308      1.5382194      0.78800609   
      3900  -6086.9716     -6166.9969      80.025352      26551.95       478.07186      8406.6229      1.5372877      0.78800609   
      4000  -6088.0669     -6168.6883      80.621438      28315.651      481.63289      8399.966       1.538506       0.83213835   
      4100  -6087.9945     -6167.0785      79.084043      32051.383      472.44848      8381.3736      1.5419189      0.83213835   
      4200  -6086.295      -6163.9772      77.682231      35716.857      464.07405      8357.1105      1.5463955      0.83213835   
      4300  -6088.2826     -6169.8261      81.54353       27491.276      487.14147      8334.673       1.5505585      0.83213835   
      4400  -6086.7117     -6166.1266      79.414953      29290.026      474.42534      8313.6043      1.554488       0.83213835   
      4500  -6088.8832     -6169.0062      80.122972      28506.263      478.65505      8299.1656      1.5571924      0.83213835   
      4600  -6087.6482     -6166.8099      79.161653      31222.649      472.91213      8290.8716      1.5587502      0.83213835   
      4700  -6088.9165     -6167.048       78.131546      35160.356      466.75826      8293.4214      1.558271       0.83213835   
      4800  -6092.3098     -6171.4174      79.107547      26158.705      472.58889      8308.3454      1.5554719      0.83213835   
      4900  -6092.9856     -6172.0565      79.070911      29024.587      472.37003      8328.8305      1.5516462      0.83213835   
      5000  -6092.6063     -6169.6226      77.016306      29649.443      460.09581      8352.2696      1.5472918      0.86093365   
      5100  -6091.2795     -6167.9315      76.652007      28296.646      457.91949      8374.9143      1.5431081      0.86093365   
      5200  -6091.7055     -6171.4889      79.783346      26903.756      476.62612      8395.048       1.5394073      0.86093365   
      5300  -6092.5427     -6170.2795      77.736783      29681.919      464.39994      8405.6605      1.5374637      0.86093365   
      5400  -6092.6617     -6171.0599      78.398153      29978.348      468.35097      8402.5916      1.5380252      0.86093365   
      5500  -6093.4023     -6170.6567      77.254402      29441.807      461.5182       8385.1739      1.54122        0.86093365   
      5600  -6093.0481     -6168.8781      75.829903      28161.684      453.00823      8353.697       1.5470274      0.86093365   
      5700  -6093.9504     -6171.9908      78.040413      28968.575      466.21383      8315.1465      1.5541997      0.86093365   
      5800  -6093.7708     -6173.6718      79.900966      34905.706      477.32878      8273.4682      1.5620291      0.86093365   
      5900  -6091.6774     -6172.7394      81.061955      33571.243      484.26454      8240.8727      1.5682074      0.86093365   
      6000  -6091.7228     -6169.0012      77.278308      34917.674      461.66101      8226.5395      1.5709398      0.79033297   
      6100  -6089.6084     -6169.6565      80.048152      33803.4        478.20807      8231.1173      1.570066       0.79033297   
      6200  -6090.1135     -6168.742       78.628533      32280.097      469.72726      8255.8973      1.5653535      0.79033297   
      6300  -6090.3842     -6171.9433      81.559119      28089.436      487.2346       8301.5735      1.5567408      0.79033297   
      6400  -6093.8815     -6170.975       77.093539      27535.57       460.5572       8359.3976      1.5459724      0.79033297   
      6500  -6094.2549     -6167.9103      73.655399      27483.74       440.01773      8419.1165      1.5350064      0.79033297   
      6600  -6096.6856     -6173.1312      76.445598      29636.624      456.68639      8468.9621      1.5259719      0.79033297   
      6700  -6094.2125     -6171.2237      77.011219      28280.702      460.06542      8490.8495      1.5220383      0.79033297   
      6800  -6090.7219     -6169.8917      79.169793      30885.122      472.96075      8483.3702      1.5233802      0.79033297   
      6900  -6091.0118     -6171.1025      80.090721      29821.354      478.46238      8454.0391      1.5286655      0.79033297   
      7000  -6092.1361     -6168.7578      76.621719      32555.834      457.73855      8404.8418      1.5376135      0.81915292   
      7100  -6090.7938     -6168.197       77.403166      27654.266      462.40691      8347.4397      1.548187       0.81915292   
      7200  -6089.5728     -6170.3891      80.816373      33488.962      482.79743      8293.3082      1.5582922      0.81915292   
      7300  -6089.4866     -6168.785       79.298449      35682.584      473.72935      8253.4278      1.5658219      0.81915292   
      7400  -6090.0645     -6170.2966      80.232093      28936.218      479.30694      8235.173       1.5692928      0.81915292   
      7500  -6089.9437     -6169.4924      79.548671      30839.712      475.22417      8240.082       1.5683579      0.81915292   
      7600  -6091.6827     -6167.9185      76.235732      27969.492      455.43266      8264.185       1.5637837      0.81915292   
      7700  -6093.4243     -6169.264       75.839667      27444.377      453.06656      8298.9196      1.5572386      0.81915292   
      7800  -6093.8126     -6171.9016      78.089054      26101.99       466.50441      8336.1288      1.5502877      0.81915292   
      7900  -6094.0876     -6169.6871      75.599419      24032.522      451.63132      8366.9762      1.5445721      0.81915292   
      8000  -6092.7218     -6170.2286      77.506836      28108.065      463.02624      8388.5197      1.5406053      0.78263412   
      8100  -6092.5156     -6169.2693      76.753745      29226.98       458.52727      8396.7448      1.5390962      0.78263412   
      8200  -6088.9199     -6168.0269      79.10696       28389.555      472.58538      8394.2119      1.5395606      0.78263412   
      8300  -6089.2097     -6166.8198      77.610148      29183.94       463.64342      8384.5815      1.5413289      0.78263412   
      8400  -6090.4169     -6168.2757      77.858835      28497.014      465.12908      8370.8683      1.5438539      0.78263412   
      8500  -6089.6911     -6168.3628      78.671696      31788.285      469.98511      8350.8759      1.54755        0.78263412   
      8600  -6089.5278     -6167.0121      77.484358      32402.246      462.89195      8332.5544      1.5509527      0.78263412   
      8700  -6088.5671     -6167.3647      78.797527      35105.667      470.73683      8320.6228      1.5531768      0.78263412   
      8800  -6090.8419     -6168.7676      77.925756      29994.281      465.52887      8316.3911      1.5539671      0.78263412   
      8900  -6091.6439     -6169.9712      78.327363      34178.437      467.92807      8319.5378      1.5533793      0.78263412   
      9000  -6093.1528     -6170.99        77.83718       34017.739      464.99971      8328.4042      1.5517256      0.87226461   
      9100  -6092.7248     -6170.6783      77.953536      31902.038      465.69483      8340.9739      1.5493872      0.87226461   
      9200  -6092.9977     -6170.6702      77.672573      30056.028      464.01635      8353.297       1.5471015      0.87226461   
      9300  -6090.6668     -6165.8657      75.198899      31707.139      449.23861      8363.4999      1.5452141      0.87226461   
      9400  -6091.111      -6167.8436      76.732612      30616.323      458.40102      8377.4003      1.5426502      0.87226461   
      9500  -6087.6388     -6169.7443      82.105508      30112.457      490.49873      8391.0942      1.5401326      0.87226461   
      9600  -6089.1441     -6167.3835      78.239411      32635.751      467.40265      8402.7957      1.5379879      0.87226461   
      9700  -6090.8577     -6169.412       78.554356      29477.686      469.28413      8414.0855      1.5359242      0.87226461   
      9800  -6090.8584     -6169.4367      78.578368      29281.894      469.42757      8418.3142      1.5351527      0.87226461   
      9900  -6088.065      -6166.069       78.003941      22145.238      465.99594      8416.2669      1.5355261      0.87226461   
     10000  -6085.5382     -6167.0631      81.52489       26668.669      487.03011      8411.9321      1.5363174      0.74695405   
     10100  -6086.1432     -6166.901       80.757738      32491.761      482.44715      8404.6493      1.5376487      0.74695405   
     10200  -6088.5641     -6167.3705      78.806408      33040.957      470.78989      8398.1628      1.5388363      0.74695405   
     10300  -6089.5704     -6169.392       79.821526      31016.207      476.85421      8392.793       1.5398209      0.74695405   
     10400  -6087.044      -6167.5718      80.527712      37273.354      481.07297      8387.8598      1.5407265      0.74695405   
     10500  -6088.5263     -6169.0178      80.491525      33020.986      480.85679      8387.6862      1.5407584      0.74695405   
     10600  -6085.3579     -6166.4725      81.114642      27681.775      484.57929      8390.9015      1.540168       0.74695405   
     10700  -6084.7349     -6165.4219      80.687011      26255.653      482.02462      8399.1419      1.5386569      0.74695405   
     10800  -6085.1358     -6165.7058      80.569946      23672.912      481.32527      8413.469       1.5360368      0.74695405   
     10900  -6086.923      -6168.499       81.575955      27491.247      487.33518      8427.5306      1.5334739      0.74695405   
     11000  -6087.5908     -6167.1232      79.532422      34138.77       475.1271       8438.2145      1.5315323      0.85018055   
     11100  -6088.23       -6168.4826      80.25257       29999.039      479.42927      8446.6798      1.5299974      0.85018055   
     11200  -6090.9214     -6172.1095      81.188126      30804.865      485.01828      8448.9753      1.5295817      0.85018055   
     11300  -6090.0447     -6168.2844      78.239665      31014.68       467.40416      8438.5555      1.5314704      0.85018055   
     11400  -6087.8617     -6168.7006      80.838941      27885.476      482.93225      8419.4008      1.5349546      0.85018055   
     11500  -6089.0229     -6170.4449      81.422027      29788.688      486.41561      8391.0022      1.5401495      0.85018055   
     11600  -6090.4819     -6169.9348      79.452954      32231.85       474.65236      8354.0955      1.5469536      0.85018055   
     11700  -6090.2277     -6165.8666      75.638915      29864.225      451.86726      8316.9157      1.553869       0.85018055   
     11800  -6094.1238     -6171.5675      77.443775      26013.966      462.64951      8288.6365      1.5591705      0.85018055   
     11900  -6093.0172     -6169.6924      76.675138      32397.549      458.05767      8266.8751      1.5632748      0.85018055   
     12000  -6095.8194     -6173.4183      77.598919      33813.584      463.57634      8255.5682      1.5654159      0.80885912   
     12100  -6095.8359     -6173.5959      77.760012      34943.149      464.53871      8254.6054      1.5655985      0.80885912   
     12200  -6098.2961     -6173.5982      75.302107      33057.923      449.85518      8262.651       1.564074       0.80885912   
     12300  -6096.2499     -6172.1709      75.921019      33257.171      453.55256      8277.2321      1.5613188      0.80885912   
     12400  -6099.9913     -6173.8765      73.88521       29434.729      441.39062      8297.3805      1.5575274      0.80885912   
     12500  -6097.5563     -6171.4513      73.895036      30392.391      441.44933      8316.0058      1.5540391      0.80885912   
     12600  -6099.0285     -6176.5674      77.538853      26771.769      463.21751      8333.2474      1.5508237      0.80885912   
     12700  -6099.4872     -6176.5602      77.073013      31152.182      460.43458      8342.9249      1.5490248      0.80885912   
     12800  -6098.2387     -6177.0331      78.794405      31829.607      470.71818      8341.205       1.5493442      0.80885912   
     12900  -6096.2508     -6171.2132      74.962357      31263.031      447.82551      8330.5456      1.5513267      0.80885912   
     13000  -6094.4322     -6172.6769      78.244667      30858.111      467.43404      8312.1948      1.5547516      0.77254473   
     13100  -6094.1178     -6171.4194      77.301583      32161.613      461.80005      8292.1446      1.5585109      0.77254473   
     13200  -6093.7366     -6173.8847      80.148153      30600.058      478.80548      8277.7657      1.5612181      0.77254473   
     13300  -6093.5956     -6172.1274      78.531798      31889.922      469.14936      8268.5074      1.5629662      0.77254473   
     13400  -6094.2042     -6171.9019      77.69771       31820.512      464.16652      8266.6771      1.5633123      0.77254473   
     13500  -6094.1264     -6169.219       75.092615      34553.976      448.60367      8275.1743      1.561707       0.77254473   
     13600  -6091.4913     -6169.2866      77.795322      32178.585      464.74965      8289.6823      1.5589738      0.77254473   
     13700  -6090.5864     -6170.7502      80.163795      26983.141      478.89892      8309.19        1.5553138      0.77254473   
     13800  -6093.0605     -6169.9592      76.898728      28313.274      459.3934       8328.8253      1.5516471      0.77254473   
     13900  -6091.7077     -6170.4533      78.745597      29091.835      470.4266       8345.3311      1.5485782      0.77254473   
     14000  -6088.1046     -6168.5261      80.421442      29852.033      480.43811      8355.2505      1.5467397      0.79076637   
     14100  -6091.2082     -6171.1242      79.916028      26198.105      477.41876      8362.7735      1.5453483      0.79076637   
     14200  -6090.749      -6172.9513      82.202254      28190.31       491.07669      8362.1884      1.5454564      0.79076637   
     14300  -6089.643      -6167.8586      78.215545      31052.204      467.26007      8353.7637      1.547015       0.79076637   
     14400  -6090.3365     -6169.9801      79.643583      27728.445      475.79117      8343.8474      1.5488536      0.79076637   
     14500  -6087.95       -6169.2304      81.280388      26998.381      485.56946      8333.1571      1.5508405      0.79076637   
     14600  -6087.6969     -6170.3066      82.609701      27297.104      493.51078      8320.0488      1.5532839      0.79076637   
     14700  -6087.2466     -6168.3703      81.123722      28877.572      484.63353      8306.5019      1.5558171      0.79076637   
     14800  -6089.6143     -6169.3524      79.73813       28684.665      476.356        8299.4038      1.5571477      0.79076637   
     14900  -6086.4896     -6169.0141      82.524569      28930.937      493.0022       8298.9538      1.5572322      0.79076637   
     15000  -6086.5621     -6167.9468      81.384684      32024.572      486.19252      8303.0685      1.5564605      0.77673816   
     15100  -6088.3467     -6168.2607      79.913994      29821.231      477.40661      8313.5804      1.5544924      0.77673816   
     15200  -6088.9571     -6168.7788      79.821654      32950.125      476.85497      8324.0067      1.5525453      0.77673816   
     15300  -6087.0596     -6168.9304      81.870781      31196.559      489.09647      8332.764       1.5509137      0.77673816   
     15400  -6088.0529     -6167.9707      79.917858      28026.059      477.42969      8341.7184      1.5492489      0.77673816   
     15500  -6089.4053     -6170.1328      80.727539      23996.885      482.26674      8350.5449      1.5476113      0.77673816   
     15600  -6089.225      -6169.4508      80.225789      22930.303      479.26928      8355.6325      1.546669       0.77673816   
     15700  -6090.0615     -6166.3576      76.296115      27401.131      455.79338      8356.6677      1.5464774      0.77673816   
     15800  -6089.966      -6170.8845      80.918515      26811.141      483.40762      8354.8175      1.5468199      0.77673816   
     15900  -6091.3346     -6168.7585      77.423899      32071.669      462.53077      8346.4254      1.5483752      0.77673816   
     16000  -6094.4265     -6172.9476      78.521122      28115.118      469.08559      8335.2571      1.5504498      0.81608121   
     16100  -6093.0595     -6170.8967      77.837242      26132.389      465.00008      8320.1643      1.5532623      0.81608121   
     16200  -6091.1425     -6170.5322      79.389683      30607.894      474.27438      8302.915       1.5564892      0.81608121   
     16300  -6092.0097     -6166.7577      74.748002      30000.123      446.54495      8287.959       1.559298       0.81608121   
     16400  -6095.4533     -6175.127       79.673626      30595.848      475.97065      8278.1125      1.5611527      0.81608121   
     16500  -6094.7244     -6173.3585      78.634023      30498.927      469.76006      8270.0313      1.5626782      0.81608121   
     16600  -6093.4438     -6170.8672      77.423405      30136.406      462.52782      8267.9537      1.5630709      0.81608121   
     16700  -6094.2235     -6169.8917      75.668219      29407.472      452.04233      8270.0868      1.5626678      0.81608121   
     16800  -6092.5457     -6170.8306      78.28486       29894.132      467.67416      8278.2344      1.5611297      0.81608121   
     16900  -6092.3722     -6170.5314      78.15923       34980.824      466.92364      8289.9856      1.5589168      0.81608121   
     17000  -6091.2055     -6169.9653      78.75983       34963.988      470.51163      8305.4381      1.5560164      0.86410081   
     17100  -6094.5108     -6173.1941      78.683276      26769.053      470.0543       8321.0651      1.5530942      0.86410081   
     17200  -6091.3486     -6171.8959      80.547298      32091.214      481.18997      8334.4328      1.5506032      0.86410081   
     17300  -6091.9049     -6171.0647      79.159757      31420.869      472.9008       8342.797       1.5490486      0.86410081   
     17400  -6091.3151     -6169.7782      78.463054      29072.415      468.73869      8343.6991      1.5488811      0.86410081   
     17500  -6091.4512     -6170.9716      79.520345      27691.773      475.05495      8336.1996      1.5502745      0.86410081   
     17600  -6092.0997     -6167.8041      75.704414      26857.044      452.25856      8320.6047      1.5531801      0.86410081   
     17700  -6095.054      -6174.3205      79.266516      28966.254      473.53857      8301.484       1.5567575      0.86410081   
     17800  -6093.4752     -6172.1676      78.692432      31727.737      470.10899      8277.0922      1.5613452      0.86410081   
     17900  -6094.4958     -6172.1379      77.642106      33771.335      463.83434      8253.7804      1.565755       0.86410081   
     18000  -6095.3539     -6171.5095      76.155592      34661.366      454.9539       8236.3332      1.5690718      0.81147837   
     18100  -6096.6333     -6174.4971      77.863779      32272.015      465.15862      8229.6196      1.5703518      0.81147837   
     18200  -6095.9123     -6172.1883      76.276035      35530.745      455.67343      8232.6052      1.5697823      0.81147837   
     18300  -6098.2677     -6176.3247      78.057011      30058.611      466.31299      8244.9278      1.5674362      0.81147837   
     18400  -6096.3458     -6174.5579      78.212021      32001.318      467.23901      8264.4056      1.563742       0.81147837   
     18500  -6096.7542     -6174.8753      78.121091      34960.92       466.6958       8289.2973      1.5590463      0.81147837   
     18600  -6093.8252     -6172.0201      78.194818      33986.499      467.13624      8313.44        1.5545187      0.81147837   
     18700  -6095.6555     -6172.8824      77.226911      33185.212      461.35397      8336.634       1.5501937      0.81147837   
     18800  -6094.6199     -6171.7771      77.15725       30800.631      460.93781      8354.3398      1.5469083      0.81147837   
     18900  -6095.8224     -6173.2567      77.434248      27504.851      462.5926       8367.3981      1.5444942      0.81147837   
     19000  -6092.9392     -6172.1363      79.197136      26069.399      473.1241       8374.313       1.5432189      0.87196142   
     19100  -6091.6399     -6168.3405      76.700605      25012.726      458.20981      8373.5186      1.5433653      0.87196142   
     19200  -6095.4274     -6172.3112      76.883858      25854.074      459.30456      8369.1146      1.5441774      0.87196142   
     19300  -6093.0128     -6172.2485      79.235676      28942.354      473.35434      8359.5115      1.5459513      0.87196142   
     19400  -6089.864      -6168.9612      79.097234      28922.732      472.52728      8346.1864      1.5484195      0.87196142   
     19500  -6088.7609     -6169.7536      80.992718      31956.496      483.85092      8332.3437      1.5509919      0.87196142   
     19600  -6089.7956     -6169.8699      80.074342      33738.553      478.36453      8324.0934      1.5525292      0.87196142   
     19700  -6088.1977     -6168.8953      80.697586      34713.65       482.0878       8324.8745      1.5523835      0.87196142   
     19800  -6088.1424     -6167.7383      79.59591       28947.038      475.50638      8334.2979      1.5506283      0.87196142   
     19900  -6087.2312     -6167.4059      80.174701      26503.81       478.96407      8352.0033      1.5473411      0.87196142   
     20000  -6088.96       -6168.3665      79.406507      24786.779      474.37488      8379.1078      1.5423358      0.72702363   
     20033  -6090.6322     -6171.4925      80.860291      32932.767      483.05979      8388.8997      1.5405355      0.72702363   
Loop time of 85.2699 on 1 procs for 20000 steps with 1296 atoms

Performance: 10.133 ns/day, 2.369 hours/ns, 234.549 timesteps/s, 303.976 katom-step/s
99.8% CPU use with 1 MPI tasks x 1 OpenMP threads

MPI task timing breakdown:
Section |  min time  |  avg time  |  max time  |%varavg| %total
---------------------------------------------------------------
Pair    | 65.369     | 65.369     | 65.369     |   0.0 | 76.66
Neigh   | 0.86125    | 0.86125    | 0.86125    |   0.0 |  1.01
Comm    | 0.83725    | 0.83725    | 0.83725    |   0.0 |  0.98
Output  | 0.02511    | 0.02511    | 0.02511    |   0.0 |  0.03
Modify  | 17.736     | 17.736     | 17.736     |   0.0 | 20.80
Other   |            | 0.4411     |            |       |  0.52

Nlocal:           1296 ave        1296 max        1296 min
Histogram: 1 0 0 0 0 0 0 0 0 0
Nghost:           4422 ave        4422 max        4422 min
Histogram: 1 0 0 0 0 0 0 0 0 0
Neighs:              0 ave           0 max           0 min
Histogram: 1 0 0 0 0 0 0 0 0 0
FullNghs:       230266 ave      230266 max      230266 min
Histogram: 1 0 0 0 0 0 0 0 0 0

Total # of neighbors = 230266
Ave neighs/atom = 177.67438
Neighbor list builds = 1999
Dangerous builds = 1996

unfix 3
unfix 4

################## main calculation

dump 		3 all custom 1000 traj.lammpstrj id type element x y z
dump_modify     3 element H O

fix             3 all nph aniso ${pressure} ${pressure} ${pressureDamp}
fix             3 all nph aniso 30000 ${pressure} ${pressureDamp}
fix             3 all nph aniso 30000 30000 ${pressureDamp}
fix             3 all nph aniso 30000 30000 1
fix             4 all temp/csvr ${temperature} ${temperature} ${tempDamp} ${seed}
fix             4 all temp/csvr 470 ${temperature} ${tempDamp} ${seed}
fix             4 all temp/csvr 470 470 ${tempDamp} ${seed}
fix             4 all temp/csvr 470 470 0.1 ${seed}
fix             4 all temp/csvr 470 470 0.1 45964
velocity 	all create ${temperature} ${seed} dist gaussian
velocity 	all create 470 ${seed} dist gaussian
velocity 	all create 470 45964 dist gaussian

run             2000000
WARNING: Fix with atom-based arrays not compatible with Kokkos sorting on device, switching to classic host sorting (src/KOKKOS/atom_kokkos.cpp:216)
Per MPI rank memory allocation (min/avg/max) = 1140 | 1140 | 1140 Mbytes
   Step         TotEng         PotEng         KinEng         Press           Temp          Volume        Density     c_max_pace_gamma
     20033  -6092.8183     -6171.4925      78.674187      32654.422      470            8388.8997      1.5405355      0.72702363   
     20100  -6094.0904     -6172.8305      78.740143      28722.208      470.39402      8386.5924      1.5409593      0.72702363   
     20200  -6093.0166     -6171.3756      78.358918      30294.362      468.11658      8372.4233      1.5435672      0.72702363   
     20300  -6089.8382     -6169.5482      79.710011      32333.711      476.18802      8351.9871      1.5473441      0.72702363   
     20400  -6090.6668     -6171.4427      80.775936      29122.958      482.55586      8331.2698      1.5511919      0.72702363   
     20500  -6090.478      -6170.9979      80.519828      30012.035      481.02587      8315.3998      1.5541523      0.72702363   
     20600  -6089.3148     -6169.2587      79.943848      33552.519      477.58496      8307.7012      1.5555925      0.72702363   
     20700  -6089.361      -6168.8984      79.537411      33164.646      475.1569       8310.7783      1.5550166      0.72702363   
     20800  -6089.1273     -6170.4945      81.367174      34743.501      486.08792      8323.5215      1.5526359      0.72702363   
     20900  -6090.4087     -6170.2993      79.890635      33426.428      477.26707      8342.1883      1.5491616      0.72702363   
     21000  -6090.3166     -6169.046       78.729438      28983.705      470.33007      8364.4205      1.545044       0.84747443   
     21100  -6091.384      -6170.5327      79.148752      27886.455      472.83505      8386.6694      1.5409452      0.84747443   
     21200  -6091.0424     -6169.4638      78.421416      28289.178      468.48994      8399.2363      1.5386396      0.84747443   
     21300  -6091.1081     -6171.4225      80.314421      28066.826      479.79876      8400.0813      1.5384849      0.84747443   
     21400  -6090.7483     -6170.0893      79.341009      34027.745      473.9836       8391.5201      1.5400545      0.84747443   
     21500  -6091.554      -6168.6335      77.079411      34304.591      460.4728       8379.3887      1.5422841      0.84747443   
     21600  -6090.5455     -6171.7834      81.237901      32158.1        485.31564      8361.3446      1.5456124      0.84747443   
     21700  -6089.9918     -6168.9987      79.006822      29930.769      471.98716      8338.2753      1.5498886      0.84747443   
     21800  -6089.7301     -6169.3569      79.626802      33240.874      475.69093      8319.9966      1.5532937      0.84747443   
     21900  -6088.3037     -6169.8057      81.502015      30761.983      486.89346      8310.686       1.5550338      0.84747443   
     22000  -6089.2361     -6169.1534      79.917305      32340.187      477.42639      8309.9893      1.5551642      0.84147108   
     22100  -6087.3022     -6168.3106      81.008314      29118.448      483.94408      8319.1125      1.5534587      0.84147108   
     22200  -6087.5614     -6167.4663      79.904817      28303.081      477.35179      8336.9152      1.5501415      0.84147108   
     22300  -6090.7514     -6172.1492      81.397741      27620.781      486.27053      8360.8946      1.5456956      0.84147108   
     22400  -6092.69       -6170.294       77.604039      26712.807      463.60693      8380.0026      1.5421711      0.84147108   
     22500  -6094.403      -6171.0592      76.65614       28522.583      457.94418      8396.0112      1.5392307      0.84147108   
     22600  -6093.0233     -6171.5734      78.550098      26181.108      469.25869      8405.0008      1.5375844      0.84147108   
     22700  -6093.0027     -6173.1579      80.155188      30191.243      478.84751      8406.3129      1.5373444      0.84147108   
     22800  -6091.1121     -6169.8583      78.746154      30344.7        470.42993      8397.5357      1.5389512      0.84147108   
     22900  -6091.0087     -6170.8851      79.876448      28478.492      477.18231      8382.9078      1.5416367      0.84147108   
     23000  -6089.8402     -6168.4306      78.590392      27645.767      469.4994       8367.6345      1.5444506      0.7448265    
     23100  -6090.9917     -6170.139       79.147279      30501.278      472.82625      8355.7372      1.5466496      0.7448265    
     23200  -6090.9124     -6171.138       80.225554      30985.946      479.26787      8346.9828      1.5482718      0.7448265    
     23300  -6088.1823     -6169.386       81.203706      31621.086      485.11136      8340.2373      1.549524       0.7448265    
     23400  -6090.1698     -6170.3027      80.132939      30445.523      478.71459      8339.0793      1.5497392      0.7448265    
     23500  -6089.8812     -6167.7005      77.81932       31586.912      464.89302      8342.1248      1.5491734      0.7448265    
     23600  -6089.8376     -6169.3059      79.468262      31324.464      474.74381      8352.9825      1.5471597      0.7448265    
     23700  -6090.3497     -6170.7017      80.352009      30951.34       480.02332      8367.9286      1.5443963      0.7448265    
     23800  -6089.3731     -6170.7244      81.351298      30574.124      485.99308      8382.5628      1.5417001      0.7448265    
     23900  -6087.4314     -6168.6316      81.200247      28534.434      485.0907       8393.5056      1.5396901      0.7448265    
     24000  -6088.9583     -6168.6004      79.64213       30525.248      475.78249      8402.4486      1.5380514      0.74607153   
     24100  -6089.1475     -6170.1495      81.002036      25469.117      483.90658      8407.0741      1.5372052      0.74607153   
     24200  -6087.8665     -6165.9044      78.03791       28300.596      466.19887      8405.874       1.5374247      0.74607153   
     24300  -6089.5571     -6171.7336      82.176506      26083.306      490.92287      8406.6373      1.5372851      0.74607153   
     24400  -6089.0586     -6170.2777      81.219132      29673.027      485.20351      8402.353       1.5380689      0.74607153   
     24500  -6090.7981     -6171.4522      80.65412       28696.599      481.82813      8391.8217      1.5399991      0.74607153   
     24600  -6089.2723     -6165.5442      76.271925      24009.947      455.64888      8378.3913      1.5424677      0.74607153   
     24700  -6090.2237     -6170.5226      80.298956      23421.85       479.70638      8364.5259      1.5450246      0.74607153   
     24800  -6092.9727     -6171.0487      78.076015      33917.552      466.42652      8349.3381      1.547835       0.74607153   
     24900  -6092.8372     -6172.2079      79.370736      33375.705      474.16119      8333.0903      1.550853       0.74607153   
     25000  -6092.2156     -6171.3096      79.093972      30923.234      472.5078       8320.6685      1.5531682      0.81772518   
     25100  -6090.8107     -6171.7186      80.907887      29285.315      483.34413      8312.6165      1.5546727      0.81772518   
     25200  -6091.2482     -6167.5779      76.329677      26809.125      455.99388      8313.6412      1.5544811      0.81772518   
     25300  -6092.1587     -6171.0276      78.868855      28749.573      471.16295      8323.8985      1.5525655      0.81772518   
     25400  -6093.1252     -6171.3353      78.210171      34127.609      467.22797      8336.1439      1.5502849      0.81772518   
     25500  -6093.8621     -6172.6929      78.830812      36297.039      470.93568      8349.4385      1.5478164      0.81772518   
     25600  -6094.6033     -6173.0486      78.44524       35345.011      468.63227      8362.3781      1.5454214      0.81772518   
     25700  -6095.8475     -6173.6891      77.841609      32073          465.02618      8371.2267      1.5437878      0.81772518   
     25800  -6095.9714     -6174.0065      78.035073      30517.73       466.18193      8372.9015      1.543479       0.81772518   
     25900  -6094.5564     -6172.6292      78.072845      31004.33       466.40758      8367.5598      1.5444644      0.81772518   
     26000  -6093.2175     -6169.1         75.882495      31174.423      453.32242      8360.4821      1.5457718      0.81383428   
     26100  -6090.7369     -6172.4809      81.743909      29043.161      488.33853      8354.3197      1.5469121      0.81383428   
     26200  -6090.8572     -6169.4989      78.641645      30056.491      469.80559      8347.7349      1.5481323      0.81383428   
     26300  -6089.9464     -6169.5748      79.628338      31962.093      475.7001       8345.7997      1.5484913      0.81383428   
     26400  -6092.4013     -6169.1177      76.716353      29024.567      458.30389      8349.5116      1.5478029      0.81383428   
     26500  -6092.7452     -6169.096       76.350753      28649.906      456.11979      8355.8261      1.5466332      0.81383428   
     26600  -6095.3421     -6171.5356      76.193447      30177.823      455.18004      8358.2765      1.5461797      0.81383428   
     26700  -6092.266      -6172.4777      80.211652      32100.172      479.18482      8354.8847      1.5468074      0.81383428   
     26800  -6089.8613     -6170.9139      81.052568      31054.295      484.20846      8348.0516      1.5480736      0.81383428   
     26900  -6091.1614     -6171.2595      80.098129      27307.984      478.50664      8341.1435      1.5493557      0.81383428   
     27000  -6092.5918     -6169.9744      77.382625      28863.548      462.2842       8335.8654      1.5503367      0.88582336   
     27100  -6092.4187     -6171.226       78.807319      31373.173      470.79533      8334.6467      1.5505634      0.88582336   
     27200  -6091.8383     -6169.8143      77.975959      28180.083      465.82878      8335.1215      1.5504751      0.88582336   
     27300  -6091.9215     -6169.4844      77.562868      28725.554      463.36097      8337.7419      1.5499878      0.88582336   
     27400  -6093.1279     -6172.5021      79.374246      27409.988      474.18215      8338.8835      1.5497756      0.88582336   
     27500  -6092.2799     -6167.9054      75.625552      29655.288      451.78744      8339.5585      1.5496501      0.88582336   
     27600  -6093.027      -6173.6894      80.662397      31075.393      481.87758      8343.7007      1.5488808      0.88582336   
     27700  -6093.9744     -6173.7624      79.787987      24697.377      476.65384      8348.4142      1.5480063      0.88582336   
     27800  -6093.3219     -6171.5218      78.19989       29808.316      467.16655      8353.6272      1.5470403      0.88582336   
     27900  -6093.3638     -6172.0981      78.73433       31110.21       470.35929      8357.2417      1.5463712      0.88582336   
     28000  -6092.1222     -6173.1428      81.020542      28368.664      484.01713      8357.4737      1.5463283      0.81264498   
     28100  -6091.21       -6169.5201      78.310138      30019.902      467.82517      8359.6786      1.5459204      0.81264498   
     28200  -6088.621      -6170.9987      82.377692      31325.363      492.12476      8365.0372      1.5449301      0.81264498   
     28300  -6089.6406     -6169.5876      79.946968      33382.124      477.6036       8371.7534      1.5436907      0.81264498   
     28400  -6090.7994     -6171.161       80.361636      32807.618      480.08083      8381.5331      1.5418895      0.81264498   
     28500  -6090.4553     -6169.4463      78.990964      35204.451      471.89243      8389.2476      1.5404716      0.81264498   
     28600  -6090.5913     -6170.6534      80.06202       35535.695      478.29092      8397.5454      1.5389494      0.81264498   
     28700  -6089.9796     -6170.5026      80.523011      31751.73       481.04488      8404.972       1.5375896      0.81264498   
     28800  -6092.1023     -6170.6419      78.539579      33234.694      469.19585      8407.34        1.5371566      0.81264498   
     28900  -6092.7333     -6170.6346      77.90134       28020.531      465.38301      8401.7232      1.5381842      0.81264498   
     29000  -6093.6789     -6169.2365      75.557599      29619.786      451.38149      8382.5598      1.5417006      0.83907515   
     29100  -6092.5561     -6171.6431      79.08692       29653.827      472.46566      8356.5126      1.5465061      0.83907515   
     29200  -6091.8913     -6169.1751      77.283823      32677.513      461.69396      8327.8534      1.5518282      0.83907515   
     29300  -6089.5179     -6170.8613      81.343432      28466.547      485.94608      8306.6076      1.5557973      0.83907515   
     29400  -6090.5131     -6168.173       77.659873      28879.747      463.94048      8296.2259      1.5577442      0.83907515   
     29500  -6086.5882     -6167.8438      81.255682      30235.111      485.42186      8301.3703      1.5567789      0.83907515   
     29600  -6089.4038     -6169.9397      80.535876      33702.571      481.12174      8321.1998      1.553069       0.83907515   
     29700  -6091.2097     -6172.8828      81.673041      33367.955      487.91517      8349.1311      1.5478734      0.83907515   
     29800  -6091.975      -6170.6903      78.715218      31795.995      470.24512      8378.904       1.5423733      0.83907515   
     29900  -6089.8068     -6172.0461      82.239335      28238.949      491.29821      8407.0528      1.5372091      0.83907515   
     30000  -6087.5252     -6166.7262      79.200945      26475.426      473.14685      8428.5029      1.533297       0.85195959   
     30100  -6087.866      -6169.4003      81.534276      30980.15       487.08618      8444.9186      1.5303164      0.85195959   
     30200  -6090.6218     -6171.0501      80.428302      28181.279      480.47909      8452.8267      1.5288848      0.85195959   
     30300  -6091.0137     -6168.445       77.431277      27241.878      462.57485      8446.5861      1.5300143      0.85195959   
     30400  -6088.1846     -6168.5026      80.31795       29922.897      479.81985      8430.7027      1.5328969      0.85195959   
     30500  -6089.3547     -6169.1441      79.789407      27324.619      476.66233      8406.5417      1.5373025      0.85195959   
     30600  -6085.1546     -6165.3511      80.196483      32078.009      479.09421      8379.5523      1.542254       0.85195959   
     30700  -6084.8809     -6167.774       82.893089      29154.568      495.20374      8361.7348      1.5455403      0.85195959   
     30800  -6084.6412     -6167.8553      83.214051      32401.465      497.12117      8353.2639      1.5471076      0.85195959   
     30900  -6086.0115     -6167.2628      81.251261      33447.159      485.39545      8355.0005      1.546786       0.85195959   
     31000  -6087.1235     -6167.6728      80.549305      32749.493      481.20196      8365.1811      1.5449035      0.81057876   
     31100  -6087.9854     -6167.6916      79.706181      29869.124      476.16514      8377.8572      1.542566       0.81057876   
     31200  -6090.7736     -6169.0156      78.242067      29737.275      467.41851      8392.4031      1.5398924      0.81057876   
     31300  -6090.594      -6171.2482      80.654198      29419.112      481.82859      8400.7737      1.5383581      0.81057876   
     31400  -6088.8002     -6168.1626      79.362444      28275.382      474.11165      8400.5265      1.5384033      0.81057876   
     31500  -6089.4883     -6168.409       78.920738      26649.077      471.4729       8397.066       1.5390373      0.81057876   
     31600  -6091.0944     -6170.3708      79.27641       27052.177      473.59768      8391.9212      1.5399808      0.81057876   
     31700  -6091.4496     -6172.175       80.725375      32024.709      482.2538       8383.6992      1.5414911      0.81057876   
     31800  -6094.9964     -6169.9977      75.001313      34743.602      448.05823      8370.6695      1.5438906      0.81057876   
     31900  -6093.9108     -6172.887       78.976176      30852.049      471.80408      8353.8457      1.5469998      0.81057876   
     32000  -6096.478      -6171.0569      74.578836      30936.63       445.53435      8331.3964      1.5511683      0.89704968   
     32100  -6095.8071     -6172.6917      76.884607      26342.88       459.30904      8307.8026      1.5555735      0.89704968   
     32200  -6097.1992     -6170.9413      73.742093      27464.316      440.53564      8288.3334      1.5592276      0.89704968   
     32300  -6094.4682     -6171.0116      76.543315      29922.245      457.27016      8275.8483      1.5615798      0.89704968   
     32400  -6098.3828     -6174.3507      75.967909      27566.574      453.83268      8272.1633      1.5622755      0.89704968   
     32500  -6096.0462     -6173.2812      77.234995      28332.576      461.40226      8273.1646      1.5620864      0.89704968   
     32600  -6097.3215     -6172.1376      74.816121      32471.017      446.95189      8280.8248      1.5606414      0.89704968   
     32700  -6097.7274     -6173.8531      76.125647      31145.504      454.77501      8294.5994      1.5580497      0.89704968   
     32800  -6097.0146     -6173.9722      76.957598      30840.026      459.74509      8311.1271      1.5549513      0.89704968   
     32900  -6095.6219     -6172.8897      77.26773       31996.505      461.59782      8326.9611      1.5519945      0.89704968   
     33000  -6094.5291     -6170.5073      75.978191      27104.127      453.8941       8338.5359      1.5498402      0.89253151   
     33100  -6094.6355     -6172.889       78.253452      27789.333      467.48652      8347.372       1.5481996      0.89253151   
     33200  -6094.7677     -6173.4813      78.71358       27977.689      470.23533      8355.219       1.5467456      0.89253151   
     33300  -6094.524      -6171.1474      76.623346      30423.169      457.74826      8357.5933      1.5463061      0.89253151   
     33400  -6094.9814     -6174.4103      79.428904      29750.032      474.50868      8355.3877      1.5467143      0.89253151   
     33500  -6094.4528     -6170.0577      75.604907      29266.669      451.6641       8349.8813      1.5477343      0.89253151   
     33600  -6090.9979     -6168.5375      77.539604      30117.763      463.22199      8343.902       1.5488434      0.89253151   
     33700  -6090.1044     -6169.5482      79.443825      30650.459      474.59782      8339.9135      1.5495842      0.89253151   
     33800  -6092.4741     -6170.5854      78.111296      31102.711      466.63728      8337.8596      1.5499659      0.89253151   
     33900  -6090.5381     -6170.1208      79.582666      23202.672      475.42726      8335.6788      1.5503714      0.89253151   
     34000  -6087.2688     -6168.5728      81.304061      21728.16       485.71088      8333.8589      1.5507099      0.75753802   
     34100  -6090.2174     -6169.1563      78.938856      20434.139      471.58113      8336.0137      1.5503091      0.75753802   
     34200  -6090.0218     -6168.8745      78.852787      23962.258      471.06696      8342.1523      1.5491683      0.75753802   
     34300  -6089.5425     -6170.1158      80.573299      30186.479      481.3453       8350.819       1.5475605      0.75753802   
     34400  -6090.5601     -6167.151       76.590954      30118.008      457.55475      8362.8473      1.5453347      0.75753802   
     34500  -6088.8521     -6167.3319      78.479898      25954.823      468.83932      8372.5852      1.5435373      0.75753802   
     34600  -6088.3723     -6167.1196      78.747276      29064.38       470.43663      8376.5554      1.5428058      0.75753802   
     34700  -6087.7245     -6167.0563      79.33176       30443.301      473.92834      8380.9148      1.5420032      0.75753802   
     34800  -6090.7432     -6172.029       81.285895      29210.908      485.60236      8383.8923      1.5414556      0.75753802   
     34900  -6087.0898     -6168.7012      81.611353      29604.281      487.54664      8382.7947      1.5416574      0.75753802   
     35000  -6086.8335     -6164.9422      78.10868       31068.855      466.62166      8379.6301      1.5422397      0.88948828   
     35100  -6088.4044     -6169.2601      80.855731      31172.84       483.03255      8377.4752      1.5426364      0.88948828   
     35200  -6088.1738     -6170.892       82.718231      32280.139      494.15914      8373.1915      1.5434256      0.88948828   
     35300  -6086.4196     -6166.647       80.227328      30743.203      479.27847      8368.1465      1.5443561      0.88948828   
     35400  -6087.3148     -6168.8488      81.53399       27521.167      487.08448      8364.8399      1.5449665      0.88948828   
     35500  -6088.8495     -6168.7646      79.915141      27375.223      477.41347      8361.0728      1.5456627      0.88948828   
     35600  -6088.6085     -6167.295       78.686514      30597.556      470.07364      8357.2481      1.54637        0.88948828   
     35700  -6089.5744     -6170.7895      81.215072      29451.963      485.17926      8354.4042      1.5468964      0.88948828   
     35800  -6089.5152     -6168.5257      79.010516      30112.848      472.00923      8348.7765      1.5479391      0.88948828   
     35900  -6090.9312     -6168.5162      77.585016      28675.596      463.49329      8342.5861      1.5490877      0.88948828   
     36000  -6093.7953     -6172.2798      78.484515      27188.926      468.86689      8340.6355      1.54945        0.84873488   
     36100  -6093.0795     -6173.421       80.341431      29872.931      479.96012      8338.4066      1.5498642      0.84873488   
     36200  -6091.6122     -6170.1601      78.547894      28778.285      469.24552      8330.9247      1.5512561      0.84873488   
     36300  -6092.3964     -6171.3514      78.955059      28738.494      471.67793      8323.2455      1.5526873      0.84873488   
     36400  -6095.6297     -6173.7874      78.157674      31767.869      466.91435      8315.4378      1.5541452      0.84873488   
     36500  -6094.3971     -6172.3882      77.991069      33292.598      465.91905      8308.3514      1.5554708      0.84873488   
     36600  -6093.2743     -6172.9189      79.644634      32486.883      475.79745      8302.74        1.556522       0.84873488   
     36700  -6093.8115     -6171.2043      77.392772      28520.535      462.34482      8299.8803      1.5570584      0.84873488   
     36800  -6092.5396     -6171.5155      78.975906      29751.84       471.80247      8302.3263      1.5565996      0.84873488   
     36900  -6092.5833     -6172.2635      79.680271      33796.576      476.01035      8311.4638      1.5548883      0.84873488   
     37000  -6090.971      -6166.5001      75.529158      32303.693      451.21158      8325.0183      1.5523567      0.77837033   
     37100  -6094.5331     -6173.8549      79.3218        28157.84       473.86884      8346.8011      1.5483055      0.77837033   
     37200  -6091.5647     -6169.863       78.298233      28696.008      467.75405      8364.6091      1.5450092      0.77837033   
     37300  -6091.5699     -6170.6605      79.090581      29414.846      472.48754      8380.6649      1.5420492      0.77837033   
     37400  -6091.4065     -6172.4176      81.011015      27247.04       483.96022      8392.3388      1.5399042      0.77837033   
     37500  -6091.5622     -6169.8725      78.310272      29831.748      467.82597      8395.0597      1.5394051      0.77837033   
     37600  -6092.1805     -6170.163       77.982512      30113.848      465.86793      8387.6342      1.5407679      0.77837033   
     37700  -6095.0996     -6169.768       74.668368      28209.626      446.06921      8371.7193      1.543697       0.77837033   
     37800  -6092.7954     -6171.5765      78.781061      27228.64       470.63846      8351.5322      1.5474284      0.77837033   
     37900  -6094.1066     -6173.1765      79.069953      34242.737      472.3643       8329.1733      1.5515823      0.77837033   
     38000  -6094.8817     -6171.8927      77.010974      34460.494      460.06395      8306.7491      1.5557708      0.80791232   
     38100  -6095.76       -6173.1958      77.435857      33902.682      462.60221      8289.238       1.5590574      0.80791232   
     38200  -6095.0153     -6173.5292      78.513933      36041.73       469.04264      8274.712       1.5617943      0.80791232   
     38300  -6096.807      -6173.1296      76.322628      37239.08       455.95178      8266.5955      1.5633277      0.80791232   
     38400  -6095.1021     -6171.1242      76.022066      34109.166      454.15621      8267.326       1.5631896      0.80791232   
     38500  -6095.5581     -6173.9445      78.38636       26016.617      468.28052      8278.3893      1.5611005      0.80791232   
     38600  -6092.5482     -6170.0178      77.469602      28676.335      462.8038       8297.366       1.5575302      0.80791232   
     38700  -6094.7613     -6172.4938      77.732437      26011.414      464.37398      8322.3968      1.5528457      0.80791232   
     38800  -6093.99       -6170.8986      76.908688      28304.564      459.4529       8347.5483      1.5481669      0.80791232   
     38900  -6095.354      -6171.6749      76.32092       28265.742      455.94157      8371.2663      1.5437805      0.80791232   
     39000  -6092.7292     -6171.0565      78.327255      28354.988      467.92743      8387.6305      1.5407686      0.86894247   
     39100  -6091.4704     -6171.0267      79.556315      25086.421      475.26983      8398.1336      1.5388417      0.86894247   
     39200  -6095.7115     -6171.2709      75.559414      27535.201      451.39233      8401.2685      1.5382675      0.86894247   
     39300  -6093.2641     -6171.3815      78.117438      28336.71       466.67398      8393.797       1.5396367      0.86894247   
     39400  -6090.259      -6169.6283      79.369289      31181.292      474.15254      8376.8216      1.5427567      0.86894247   
     39500  -6088.5103     -6170.6436      82.133298      30470.313      490.66474      8358.2372      1.546187       0.86894247   
     39600  -6089.7254     -6169.6923      79.966917      27471.872      477.72277      8341.982       1.5491999      0.86894247   
     39700  -6088.1678     -6168.7862      80.61843       31338.213      481.61491      8330.1472      1.5514009      0.86894247   
     39800  -6087.5632     -6169.1341      81.570863      29230.52       487.30476      8324.2465      1.5525006      0.86894247   
     39900  -6086.625      -6167.6531      81.028116      29065.817      484.06238      8326.8663      1.5520122      0.86894247   
     40000  -6088.7726     -6168.9434      80.170799      32638.597      478.94076      8337.0627      1.550114       0.75890463   
     40100  -6090.0575     -6172.2401      82.18256       30343.128      490.95904      8349.523       1.5478007      0.75890463   
     40200  -6090.4117     -6172.2705      81.858805      30714.624      489.02492      8362.6864      1.5453644      0.75890463   
     40300  -6092.9331     -6170.6434      77.710361      31460.15       464.2421       8371.6685      1.5437064      0.75890463   
     40400  -6093.7908     -6170.5372      76.746373      26532.879      458.48323      8371.6369      1.5437122      0.75890463   
     40500  -6094.5138     -6172.9272      78.413388      31347.749      468.44198      8362.3442      1.5454276      0.75890463   
     40600  -6093.5242     -6170.8097      77.285461      34663.912      461.70374      8346.949       1.5482781      0.75890463   
     40700  -6090.0913     -6168.955       78.863627      31768.613      471.13171      8331.0747      1.5512282      0.75890463   
     40800  -6087.8086     -6167.3144      79.505824      32524.624      474.9682       8317.8068      1.5537026      0.75890463   
     40900  -6085.9837     -6166.0315      80.047801      31107.182      478.20598      8313.945       1.5544243      0.75890463   
     41000  -6086.6259     -6168.0434      81.417489      29805.688      486.3885       8320.3774      1.5532226      0.82785049   
     41100  -6088.5221     -6169.4208      80.898704      28579.84       483.28927      8332.8911      1.5508901      0.82785049   
     41200  -6088.1827     -6168.6543      80.471528      26382.766      480.73732      8346.4203      1.5483761      0.82785049   
     41300  -6091.6287     -6169.5891      77.960424      32056.531      465.73597      8359.3898      1.5459738      0.82785049   
     41400  -6090.7425     -6170.4256      79.683024      29660.253      476.02679      8367.7946      1.544421       0.82785049   
     41500  -6088.9475     -6170.426       81.478587      31851.659      486.7535       8368.5285      1.5442856      0.82785049   
     41600  -6089.6238     -6166.4358      76.812062      33070.899      458.87565      8363.9204      1.5451364      0.82785049   
     41700  -6089.4947     -6170.2739      80.779239      31786.81       482.57559      8357.8807      1.546253       0.82785049   
     41800  -6090.0486     -6172.3613      82.312689      28254.355      491.73643      8349.4913      1.5478066      0.82785049   
     41900  -6090.2145     -6168.3688      78.154338      29899          466.89442      8337.9492      1.5499492      0.82785049   
     42000  -6093.5366     -6171.8194      78.282792      31425.115      467.66181      8326.408       1.5520976      0.83579719   
     42100  -6092.9127     -6171.3982      78.485473      31096.328      468.87262      8315.3529      1.5541611      0.83579719   
     42200  -6094.8978     -6172.8875      77.989731      26453.056      465.91106      8306.0915      1.555894       0.83579719   
     42300  -6096.4388     -6174.5823      78.143486      29861.565      466.82959      8299.0828      1.557208       0.83579719   
     42400  -6093.4693     -6171.7178      78.248572      30642.791      467.45737      8291.4163      1.5586478      0.83579719   
     42500  -6090.969      -6171.8489      80.87992       33362.035      483.17706      8288.4956      1.5591971      0.83579719   
     42600  -6091.4634     -6170.3792      78.91586       31943.556      471.44375      8297.0739      1.557585       0.83579719   
     42700  -6092.0444     -6172.784       80.739657      31832.694      482.33913      8314.2817      1.5543613      0.83579719   
     42800  -6092.508      -6169.0409      76.532857      34089.9        457.20768      8334.1505      1.5506557      0.83579719   
     42900  -6094.6748     -6173.5529      78.878116      32717.362      471.21827      8352.919       1.5471715      0.83579719   
     43000  -6093.4629     -6171.2264      77.763495      29505.048      464.55952      8364.9794      1.5449408      0.85188583   
     43100  -6092.4193     -6171.7714      79.352156      26127.625      474.05019      8371.208       1.5437913      0.85188583   
     43200  -6090.8915     -6168.4691      77.577582      28784.221      463.44888      8372.7512      1.5435067      0.85188583   
     43300  -6090.6364     -6169.4853      78.848875      29563.674      471.04358      8371.7545      1.5436905      0.85188583   
     43400  -6088.2132     -6168.3637      80.150498      31699.203      478.81949      8369.1973      1.5441622      0.85188583   
     43500  -6090.4846     -6170.3337      79.849045      32402.53       477.01861      8367.7792      1.5444239      0.85188583   
     43600  -6092.0622     -6169.4672      77.405         27873.963      462.41787      8366.0151      1.5447495      0.85188583   
     43700  -6091.7974     -6171.1116      79.314196      30601.276      473.82342      8364.4587      1.545037       0.85188583   
     43800  -6091.9909     -6169.1443      77.153455      26481.461      460.91514      8361.4985      1.5455839      0.85188583   
     43900  -6093.2714     -6170.6722      77.400827      29825.486      462.39294      8359.2842      1.5459934      0.85188583   
     44000  -6093.6193     -6172.5285      78.909239      26286.771      471.4042       8356.8527      1.5464432      0.77797548   
     44100  -6093.6704     -6171.9055      78.235023      29119.092      467.37643      8351.2361      1.5474832      0.77797548   
     44200  -6093.2362     -6170.4464      77.210275      28259.403      461.25458      8346.286       1.548401       0.77797548   
     44300  -6089.6196     -6171.3293      81.709615      31104.798      488.13366      8344.2834      1.5487726      0.77797548   
     44400  -6089.6046     -6167.6071      78.002465      28240.054      465.98713      8348.9462      1.5479077      0.77797548   
     44500  -6090.374      -6169.7551      79.381104      30135.389      474.22313      8362.2927      1.5454372      0.77797548   
     44600  -6090.9702     -6169.4874      78.517211      32648.884      469.06222      8381.2354      1.5419443      0.77797548   
     44700  -6091.7597     -6169.73        77.97029       28564.75       465.79491      8402.8813      1.5379722      0.77797548   
     44800  -6090.9127     -6168.6402      77.727502      29677.776      464.34449      8420.0692      1.5348327      0.77797548   
     44900  -6092.0695     -6171.8807      79.811161      28570.504      476.79229      8430.2481      1.5329795      0.77797548   
     45000  -6092.1835     -6168.2849      76.10134       31949.104      454.6298       8432.2519      1.5326153      0.81741414   
     45100  -6092.5071     -6169.8757      77.368579      27129.69       462.20029      8424.7431      1.5339812      0.81741414   
     45200  -6093.3196     -6170.8738      77.554207      27271.497      463.30923      8406.487       1.5373125      0.81741414   
     45300  -6092.8247     -6171.8841      79.059424      25288.048      472.30141      8380.7361      1.5420361      0.81741414   
     45400  -6091.5681     -6171.6788      80.110676      35280.767      478.58159      8348.3157      1.5480246      0.81741414   
     45500  -6090.4724     -6169.8961      79.42369       35203.622      474.47753      8319.8257      1.5533255      0.81741414   
     45600  -6089.658      -6169.6414      79.983476      35028.436      477.8217       8301.4705      1.5567601      0.81741414   
     45700  -6089.0857     -6169.6356      80.549924      31819.3        481.20566      8294.3854      1.5580899      0.81741414   
     45800  -6087.7156     -6169.5821      81.866498      30773.168      489.07088      8302.2129      1.5566209      0.81741414   
     45900  -6088.8989     -6168.8535      79.954624      25243.921      477.64934      8323.7968      1.5525845      0.81741414   
     46000  -6091.2516     -6168.6125      77.360903      25093.394      462.15444      8352.0427      1.5473338      0.82494348   
     46100  -6094.3593     -6168.8615      74.502123      29740.091      445.07606      8375.7421      1.5429556      0.82494348   
     46200  -6093.7582     -6173.1631      79.40488       22944.684      474.36516      8390.2644      1.5402849      0.82494348   
     46300  -6091.8218     -6170.2577      78.435894      30789.808      468.57643      8393.7382      1.5396475      0.82494348   
     46400  -6091.9974     -6170.1634      78.165994      30066.713      466.96405      8389.2348      1.540474       0.82494348   
     46500  -6092.5676     -6170.7543      78.186659      30528.457      467.0875       8377.063       1.5427123      0.82494348   
     46600  -6091.6411     -6169.4274      77.786286      30943.752      464.69567      8359.2199      1.5460053      0.82494348   
     46700  -6091.3196     -6168.9387      77.619063      34972.733      463.69668      8336.3317      1.55025        0.82494348   
     46800  -6090.4961     -6170.2034      79.707275      32958.252      476.17167      8312.7599      1.5546459      0.82494348   
     46900  -6089.1655     -6167.4315      78.266038      34098.863      467.56171      8292.8717      1.5583743      0.82494348   
     47000  -6088.2464     -6171.0995      82.853038      31394.678      494.96447      8283.0405      1.5602239      0.81911125   
     47100  -6090.9215     -6169.4292      78.507705      31125.614      469.00543      8282.0206      1.5604161      0.81911125   
     47200  -6090.5766     -6170.8195      80.242864      30465.796      479.37128      8288.6385      1.5591702      0.81911125   
     47300  -6089.9534     -6170.5919      80.638481      27681.315      481.7347       8300.6189      1.5569198      0.81911125   
     47400  -6091.3268     -6171.519       80.192168      27097.803      479.06842      8316.2004      1.5540027      0.81911125   
     47500  -6092.7488     -6173.5125      80.763685      29275.447      482.48267      8331.6285      1.5511251      0.81911125   
     47600  -6092.8281     -6170.1681      77.339987      27898.926      462.02948      8342.7453      1.5490582      0.81911125   
     47700  -6091.1489     -6168.861       77.712083      30530.776      464.25239      8349.2724      1.5478472      0.81911125   
     47800  -6094.6656     -6172.9578      78.292234      30178.67       467.71821      8352.8926      1.5471763      0.81911125   
     47900  -6094.4764     -6172.7134      78.236924      26394.902      467.38778      8346.3691      1.5483856      0.81911125   
     48000  -6093.2708     -6173.028       79.757151      25650.744      476.46963      8331.8074      1.5510918      0.81617061   
     48100  -6089.9669     -6169.1405      79.173557      32588.058      472.98323      8314.7709      1.5542699      0.81617061   
     48200  -6088.7825     -6167.0892      78.306652      30560.189      467.80434      8301.6391      1.5567285      0.81617061   
     48300  -6087.1372     -6167.8725      80.735311      30883.982      482.31316      8295.1582      1.5579447      0.81617061   
     48400  -6089.6275     -6170.1502      80.522674      29834.704      481.04287      8298.7122      1.5572775      0.81617061   
     48500  -6091.5205     -6168.4918      76.971295      30223.557      459.82691      8309.6255      1.5552323      0.81617061   
     48600  -6094.8675     -6172.5843      77.71683       30462.005      464.28075      8324.75        1.5524067      0.81617061   
     48700  -6097.7476     -6173.8153      76.067688      25419.776      454.42876      8333.23        1.550827       0.81617061   
     48800  -6097.7306     -6172.0298      74.299209      34899.123      443.86386      8332.3453      1.5509916      0.81617061   
     48900  -6097.0142     -6175.9461      78.931896      27832.291      471.53955      8324.0125      1.5525443      0.81617061   
     49000  -6099.6573     -6174.9251      75.267784      32614.399      449.65013      8306.6544      1.5557886      0.80155688   
     49100  -6095.6659     -6172.6662      77.000327      29137.083      460.00035      8284.0261      1.5600383      0.80155688   
     49200  -6097.138      -6175.2661      78.128086      34298.41       466.73759      8262.3532      1.5641304      0.80155688   
     49300  -6092.778      -6173.4175      80.63951       29390.875      481.74085      8247.638       1.5669211      0.80155688   
     49400  -6093.3254     -6172.0969      78.771512      33933.532      470.58142      8242.5244      1.5678932      0.80155688   
     49500  -6092.5214     -6172.4757      79.954322      38264.349      477.64753      8248.0356      1.5668456      0.80155688   
     49600  -6093.9038     -6172.4425      78.538648      33644.678      469.19029      8261.0274      1.5643814      0.80155688   
     49700  -6089.0802     -6169.0723      79.992121      31118.19       477.87334      8281.6364      1.5604884      0.80155688   
     49800  -6093.5341     -6172.74        79.205902      28091.143      473.17647      8313.2673      1.554551       0.80155688   
     49900  -6094.9179     -6173.781       78.863023      30568.395      471.1281       8345.9552      1.5484624      0.80155688   
     50000  -6094.5537     -6173.6303      79.076574      30676.354      472.40386      8372.9943      1.5434619      0.77246984   
     50100  -6091.5507     -6168.562       77.011303      26031.372      460.06592      8388.0302      1.5406952      0.77246984   
     50200  -6094.3013     -6171.4176      77.116339      25538.981      460.69341      8395.4261      1.5393379      0.77246984   
     50300  -6093.5494     -6174.2743      80.724862      25972.272      482.25074      8391.6467      1.5400312      0.77246984   
     50400  -6094.9853     -6172.1019      77.116589      30896.789      460.6949       8377.4113      1.5426481      0.77246984   
     50500  -6091.952      -6169.3537      77.401697      31212.256      462.39814      8353.3901      1.5470842      0.77246984   
     50600  -6091.686      -6171.636       79.950029      29283.937      477.62189      8328.9427      1.5516253      0.77246984   
     50700  -6089.1954     -6171.1787      81.983335      28598.525      489.76886      8312.4466      1.5547045      0.77246984   
     50800  -6092.2594     -6170.2535      77.99414       28229.897      465.93739      8302.7397      1.5565221      0.77246984   
     50900  -6095.3973     -6175.7946      80.397328      27746.871      480.29405      8299.3679      1.5571545      0.77246984   
     51000  -6093.9938     -6169.8086      75.814779      30092.241      452.91788      8300.9279      1.5568618      0.79890163   
     51100  -6092.6517     -6170.9965      78.34477       30674.381      468.03206      8310.452       1.5550776      0.79890163   
     51200  -6092.4321     -6172.7115      80.279471      31574.203      479.58997      8325.741       1.5522219      0.79890163   
     51300  -6095.7464     -6173.8016      78.055252      32957.992      466.30248      8343.2075      1.5489724      0.79890163   
     51400  -6093.7287     -6173.6612      79.932487      32173.672      477.51709      8359.798       1.5458983      0.79890163   
     51500  -6092.8303     -6171.4745      78.644264      31380.267      469.82124      8373.2147      1.5434213      0.79890163   
     51600  -6093.0683     -6170.5979      77.529556      25019.174      463.16197      8379.5245      1.5422591      0.79890163   
     51700  -6090.9563     -6169.3274      78.371109      26806.475      468.18941      8378.9241      1.5423696      0.79890163   
     51800  -6088.5142     -6171.2098      82.695622      24521.398      494.02407      8373.5898      1.5433522      0.79890163   
     51900  -6089.74       -6170.9524      81.212372      31116.464      485.16313      8363.3994      1.5452327      0.79890163   
     52000  -6088.9991     -6168.2045      79.205401      27838.864      473.17347      8353.2479      1.5471105      0.79221907   
     52100  -6092.131      -6170.7733      78.642264      28710.167      469.80929      8346.1423      1.5484277      0.79221907   
     52200  -6093.6901     -6171.9593      78.269203      24377.154      467.58062      8338.4941      1.5498479      0.79221907   
     52300  -6092.3466     -6171.3931      79.046484      28985.4        472.2241       8327.4228      1.5519085      0.79221907   
     52400  -6090.8733     -6170.354       79.480688      32897.069      474.81804      8315.4003      1.5541522      0.79221907   
     52500  -6093.0413     -6172.9617      79.920472      30257.333      477.44531      8307.4464      1.5556402      0.79221907   
     52600  -6093.4177     -6172.214       78.796309      30090.256      470.72956      8302.9861      1.5564759      0.79221907   
     52700  -6092.0963     -6171.503       79.406756      30223.118      474.37637      8305.8009      1.5559484      0.79221907   
     52800  -6090.0795     -6170.7645      80.684972      29075.952      482.01244      8315.4357      1.5541456      0.79221907   
     52900  -6089.368      -6171.0476      81.679598      27530.578      487.95434      8332.9546      1.5508782      0.79221907   
     53000  -6090.4577     -6171.3718      80.914179      29601.865      483.38172      8354.3732      1.5469022      0.81320407   
     53100  -6092.2152     -6171.6995      79.484221      26878.091      474.83915      8373.8176      1.5433102      0.81320407   
[...]
   2006100  -6090.6074     -6172.2835      81.676082      29264.57       487.93334      8365.7821      1.5447925      0.76517098   
   2006200  -6091.1565     -6171.3618      80.20527       36757.558      479.1467       8365.9349      1.5447643      0.76517098   
   2006300  -6090.6203     -6170.9217      80.301418      31218.271      479.72108      8363.0586      1.5452956      0.76517098   
   2006400  -6088.7009     -6171.2119      82.510988      31540.254      492.92106      8358.6506      1.5461105      0.76517098   
   2006500  -6091.9077     -6172.049       80.141302      32020.322      478.76455      8353.8268      1.5470033      0.76517098   
   2006600  -6091.1308     -6172.6929      81.562093      30450.492      487.25236      8347.3986      1.5481947      0.76517098   
   2006700  -6092.3077     -6171.7768      79.469161      30198.432      474.74918      8342.917       1.5490263      0.76517098   
   2006800  -6092.8471     -6172.5468      79.699711      25041.391      476.12648      8339.7208      1.54962        0.76517098   
   2006900  -6094.2164     -6175.5603      81.343867      27715.441      485.94868      8336.3257      1.5502511      0.76517098   
   2007000  -6095.3633     -6174.6881      79.324784      33364.605      473.88667      8331.2913      1.5511879      0.99032199   
   2007100  -6095.3352     -6173.9602      78.624999      33705.585      469.70615      8323.188       1.5526981      0.99032199   
   2007200  -6094.3856     -6172.1396      77.754053      32339.202      464.50311      8317.8115      1.5537017      0.99032199   
   2007300  -6097.4699     -6174.441       76.971128      29704.947      459.82592      8315.5594      1.5541225      0.99032199   
   2007400  -6097.831      -6179.1639      81.332944      29834.766      485.88343      8313.1105      1.5545803      0.99032199   
   2007500  -6097.1897     -6173.8793      76.689584      34443.905      458.14397      8307.5262      1.5556253      0.99032199   
   2007600  -6096.6839     -6172.1801      75.49617       34040.804      451.01451      8298.2813      1.5573584      0.99032199   
   2007700  -6094.4347     -6172.4855      78.050856      29439.696      466.27622      8291.8342      1.5585693      0.99032199   
   2007800  -6096.1195     -6175.0124      78.892928      32325.029      471.30676      8291.7142      1.5585918      0.99032199   
   2007900  -6094.2588     -6173.7638      79.505023      34558.024      474.96342      8294.139       1.5581362      0.99032199   
   2008000  -6092.7651     -6172.8979      80.13284       30702.328      478.714        8300.566       1.5569297      0.88678933   
   2008100  -6096.1296     -6173.3466      77.21699       31298.868      461.29469      8313.0543      1.5545908      0.88678933   
   2008200  -6098.727      -6174.1712      75.444147      29265.603      450.70373      8328.4146      1.5517236      0.88678933   
   2008300  -6098.7113     -6176.9151      78.203812      25418.595      467.18997      8341.8902      1.549217       0.88678933   
   2008400  -6096.3664     -6174.8523      78.485934      25784.828      468.87537      8347.8814      1.5481051      0.88678933   
   2008500  -6097.2001     -6176.0318      78.831652      29663.172      470.9407       8345.5717      1.5485336      0.88678933   
   2008600  -6097.819      -6175.5073      77.688281      33083.638      464.11019      8337.0983      1.5501074      0.88678933   
   2008700  -6097.0742     -6174.515       77.440734      30439.513      462.63134      8324.2588      1.5524983      0.88678933   
   2008800  -6096.2023     -6176.5397      80.3374        33253.148      479.93604      8311.2444      1.5549294      0.88678933   
   2008900  -6096.2456     -6173.6145      77.368958      31249.448      462.20256      8298.5899      1.5573005      0.88678933   
   2009000  -6098.2737     -6172.7977      74.523991      34916.882      445.20671      8289.0974      1.5590838      0.86282864   
   2009100  -6098.7622     -6175.4535      76.691395      29857.558      458.15479      8285.5828      1.5597452      0.86282864   
   2009200  -6098.2567     -6175.7957      77.539029      29543.698      463.21856      8285.5505      1.5597513      0.86282864   
   2009300  -6097.1352     -6174.4326      77.297438      26910.788      461.77529      8289.2101      1.5590627      0.86282864   
   2009400  -6096.6125     -6175.1897      78.577275      27897.397      469.42105      8296.6735      1.5576602      0.86282864   
   2009500  -6098.011      -6174.559       76.548012      32753.913      457.29822      8308.3443      1.5554721      0.86282864   
   2009600  -6100.5405     -6177.1946      76.65408       31177.812      457.93187      8320.2087      1.5532541      0.86282864   
   2009700  -6100.3087     -6176.7228      76.414138      30836.432      456.49845      8329.54        1.551514       0.86282864   
   2009800  -6100.4486     -6174.9022      74.453584      27515.025      444.78609      8332.7309      1.5509199      0.86282864   
   2009900  -6097.2347     -6176.7402      79.505494      26639.237      474.96623      8332.4747      1.5509676      0.86282864   
   2010000  -6097.5992     -6173.4726      75.873404      28041.022      453.26811      8328.1381      1.5517752      0.80810455   
   2010100  -6096.5092     -6175.1861      78.676852      30672.653      470.01592      8325.7774      1.5522152      0.80810455   
   2010200  -6096.6999     -6175.2089      78.509016      27741.226      469.01327      8326.2648      1.5521243      0.80810455   
   2010300  -6095.06       -6171.9569      76.896842      29771.893      459.38213      8325.1951      1.5523237      0.80810455   
   2010400  -6094.0991     -6173.3277      79.228588      31602.271      473.31199      8326.4221      1.552095       0.80810455   
   2010500  -6093.3923     -6173.356       79.963683      30234.191      477.70345      8330.5869      1.551319       0.80810455   
   2010600  -6094.1733     -6172.8669      78.693572      30246.64       470.1158       8337.2539      1.5500785      0.80810455   
   2010700  -6093.8717     -6174.2205      80.348814      27851.843      480.00423      8343.7733      1.5488673      0.80810455   
   2010800  -6091.5326     -6171.61        80.077433      31711.218      478.383        8351.6286      1.5474105      0.80810455   
   2010900  -6090.2346     -6172.0553      81.820684      28560.983      488.79719      8363.6465      1.545187       0.80810455   
   2011000  -6090.3665     -6172.5483      82.181812      29839.565      490.95457      8379.4083      1.5422805      0.73592664   
   2011100  -6090.2811     -6171.6072      81.326062      32629.825      485.84231      8396.0268      1.5392278      0.73592664   
   2011200  -6090.0792     -6170.055       79.975759      33900.07       477.7756       8411.1899      1.536453       0.73592664   
   2011300  -6090.5348     -6169.4147      78.879898      28306.835      471.22891      8421.2234      1.5346224      0.73592664   
   2011400  -6092.6091     -6171.1795      78.570413      25395.899      469.38005      8424.0947      1.5340993      0.73592664   
   2011500  -6093.0659     -6172.163       79.097164      34663.342      472.52687      8416.4722      1.5354887      0.73592664   
   2011600  -6095.3465     -6173.0749      77.728428      33890.397      464.35003      8399.4617      1.5385984      0.73592664   
   2011700  -6096.404      -6174.8776      78.473612      30774.889      468.80176      8372.035       1.5436388      0.73592664   
   2011800  -6093.5974     -6174.2088      80.611442      29820.334      481.57317      8339.3927      1.5496809      0.73592664   
   2011900  -6094.5401     -6171.9216      77.381526      36578.976      462.27764      8310.6712      1.5550366      0.73592664   
   2012000  -6093.983      -6174.0771      80.094173      33641.154      478.483        8290.3833      1.558842       0.86069054   
   2012100  -6096.4575     -6175.3446      78.887075      36235.189      471.27179      8279.8233      1.5608301      0.86069054   
   2012200  -6094.7835     -6177.5768      82.793329      33961.369      494.60777      8279.1025      1.560966       0.86069054   
   2012300  -6095.7787     -6172.7512      76.972527      36516.113      459.83427      8287.6034      1.5593649      0.86069054   
   2012400  -6094.7213     -6173.577       78.855726      34672.216      471.08451      8308.3488      1.5554713      0.86069054   
   2012500  -6095.7097     -6175.5535      79.843834      30636.684      476.98748      8336.8347      1.5501564      0.86069054   
   2012600  -6097.8133     -6176.4217      78.60847       28790.84       469.60741      8365.9953      1.5447532      0.86069054   
   2012700  -6095.9218     -6174.4558      78.533997      27384.318      469.1625       8386.4022      1.5409943      0.86069054   
   2012800  -6099.3724     -6174.6137      75.241385      31566.734      449.49242      8397.1308      1.5390254      0.86069054   
   2012900  -6098.4761     -6179.0879      80.611813      26759.75       481.57539      8395.7408      1.5392802      0.86069054   
   2013000  -6095.3521     -6175.2435      79.891317      30609.146      477.27114      8377.6621      1.542602       0.80485073   
   2013100  -6095.3716     -6173.1569      77.785341      34695.172      464.69003      8350.516       1.5476167      0.80485073   
   2013200  -6092.9945     -6172.7131      79.718681      31933.844      476.23981      8322.0639      1.5529078      0.80485073   
   2013300  -6093.741      -6175.135       81.393992      32575.311      486.24813      8298.137       1.5573855      0.80485073   
   2013400  -6097.6888     -6176.2318      78.542942      27901.099      469.21594      8279.1866      1.5609502      0.80485073   
   2013500  -6095.8117     -6174.3741      78.562467      28322.85       469.33258      8266.9145      1.5632674      0.80485073   
   2013600  -6097.2937     -6175.6694      78.375674      31415.371      468.21668      8263.1172      1.5639858      0.80485073   
   2013700  -6096.8715     -6171.8764      75.004886      32368.994      448.07957      8268.0657      1.5630497      0.80485073   
   2013800  -6095.9835     -6172.9303      76.946786      30815.947      459.68049      8285.0698      1.5598418      0.80485073   
   2013900  -6096.7125     -6176.0665      79.35404       28090.767      474.06144      8309.6907      1.5552201      0.80485073   
   2014000  -6095.6175     -6174.6423      79.024739      30127.162      472.0942       8337.2205      1.5500847      0.78902692   
   2014100  -6095.9628     -6175.7741      79.811325      27537.083      476.79327      8364.5329      1.5450233      0.78902692   
   2014200  -6093.2502     -6172.8607      79.610454      26588.354      475.59326      8387.5128      1.5407902      0.78902692   
   2014300  -6096.6286     -6173.1959      76.56735       28399.891      457.41374      8401.5749      1.5382114      0.78902692   
   2014400  -6095.5355     -6176.0357      80.500177      26261.279      480.90847      8403.5955      1.5378415      0.78902692   
   2014500  -6094.3373     -6169.9087      75.571316      28142.768      451.46343      8389.9663      1.5403397      0.78902692   
   2014600  -6092.5064     -6174.4725      81.966032      26775.757      489.6655       8366.2391      1.5447082      0.78902692   
   2014700  -6093.5747     -6171.8619      78.287138      31918.354      467.68777      8334.7371      1.5505465      0.78902692   
   2014800  -6094.4832     -6172.613       78.129751      29654.943      466.74753      8300.119       1.5570136      0.78902692   
   2014900  -6096.9715     -6174.9941      78.022615      30766.054      466.1075       8268.4038      1.5629858      0.78902692   
   2015000  -6097.9705     -6175.85        77.879502      32161.69       465.25255      8244.5869      1.567501       0.86117474   
   2015100  -6098.6028     -6175.5639      76.961123      34967.29       459.76615      8235.3145      1.5692659      0.86117474   
   2015200  -6098.9642     -6177.5618      78.597586      31160.121      469.54238      8241.9904      1.5679948      0.86117474   
   2015300  -6098.8653     -6175.7793      76.913904      34719.64       459.48406      8264.0115      1.5638165      0.86117474   
   2015400  -6101.284      -6174.4015      73.11745       27313.04       436.80402      8293.9347      1.5581745      0.86117474   
   2015500  -6102.8362     -6176.8083      73.972133      28310.465      441.9099       8323.6694      1.5526083      0.86117474   
   2015600  -6100.0105     -6176.223       76.212454      27570.359      455.29359      8346.6148      1.54834        0.86117474   
   2015700  -6099.4083     -6176.5245      77.116195      27662.945      460.69254      8360.916       1.5456916      0.86117474   
   2015800  -6098.6596     -6175.8064      77.146735      27633.5        460.87499      8363.6263      1.5451907      0.86117474   
   2015900  -6094.4215     -6173.1329      78.711354      29883.388      470.22203      8356.2613      1.5465526      0.86117474   
   2016000  -6094.6229     -6175.1604      80.537454      30058.305      481.13116      8347.9038      1.548101       0.84323559   
   2016100  -6097.1264     -6176.2726      79.146161      33223.771      472.81957      8334.8435      1.5505268      0.84323559   
   2016200  -6094.8416     -6172.1736      77.332014      31783.34       461.98185      8318.3481      1.5536015      0.84323559   
   2016300  -6095.2674     -6173.3351      78.067693      34438.842      466.3768       8304.848       1.556127       0.84323559   
   2016400  -6095.7245     -6173.9336      78.209062      32896.887      467.22134      8297.4197      1.5575201      0.84323559   
   2016500  -6096.4678     -6176.7164      80.248578      33371.392      479.40542      8296.7362      1.5576484      0.84323559   
   2016600  -6097.2292     -6173.0875      75.858264      32707.863      453.17766      8300.5909      1.5569251      0.84323559   
   2016700  -6095.9363     -6175.2751      79.338829      32483.912      473.97058      8310.8247      1.5550079      0.84323559   
   2016800  -6095.6364     -6175.6045      79.968089      30448.223      477.72977      8323.1811      1.5526994      0.84323559   
   2016900  -6095.963      -6175.0084      79.045365      27699.133      472.21742      8336.9667      1.5501319      0.84323559   
   2017000  -6094.4539     -6173.6792      79.225234      28551.496      473.29196      8348.1981      1.5480464      0.80756684   
   2017100  -6095.5957     -6172.2193      76.62361       32631.142      457.74984      8357.1867      1.5463814      0.80756684   
   2017200  -6098.0622     -6173.3148      75.2526        27289.499      449.55942      8360.3876      1.5457893      0.80756684   
   2017300  -6097.7757     -6172.765       74.989301      24946.785      447.98647      8356.6378      1.546483       0.80756684   
   2017400  -6097.7653     -6173.8727      76.107342      24899.319      454.66565      8346.5451      1.548353       0.80756684   
   2017500  -6096.4942     -6174.2762      77.78201       25853.788      464.67013      8332.4271      1.5509764      0.80756684   
   2017600  -6095.1838     -6174.0369      78.853078      30493.936      471.06869      8316.9151      1.5538692      0.80756684   
   2017700  -6095.5414     -6174.5302      78.988771      30766.395      471.87932      8307.0163      1.5557208      0.80756684   
   2017800  -6096.5962     -6174.6539      78.057669      28216.528      466.31692      8302.7104      1.5565276      0.80756684   
   2017900  -6096.4749     -6175.4723      78.997439      27680.107      471.93111      8299.16        1.5571935      0.80756684   
   2018000  -6096.342      -6175.7789      79.436914      34384.583      474.55653      8298.0326      1.557405       0.83470325   
   2018100  -6096.5289     -6174.7056      78.176707      35695.084      467.02805      8299.5828      1.5571142      0.83470325   
   2018200  -6098.4161     -6174.7818      76.365751      30959.291      456.20939      8303.6942      1.5563432      0.83470325   
   2018300  -6098.4957     -6174.7423      76.246627      26929.279      455.49774      8312.1501      1.5547599      0.83470325   
   2018400  -6100.3999     -6175.273       74.873101      27025.898      447.29229      8318.3701      1.5535974      0.83470325   
   2018500  -6098.7492     -6175.1592      76.41005       25403.288      456.47403      8319.685       1.5533518      0.83470325   
   2018600  -6098.3046     -6177.1189      78.814343      29806.295      470.83729      8316.3195      1.5539804      0.83470325   
   2018700  -6099.1786     -6174.6452      75.466673      29815.83       450.83829      8310.9168      1.5549907      0.83470325   
   2018800  -6098.5724     -6175.7469      77.174532      30654.802      461.04105      8303.2777      1.5564213      0.83470325   
   2018900  -6098.7107     -6178.9086      80.197916      33158.09       479.10276      8296.4087      1.5577099      0.83470325   
   2019000  -6095.8007     -6174.5769      78.776206      33827.775      470.60946      8289.2906      1.5590475      0.81828753   
   2019100  -6098.7456     -6177.7568      79.011174      28582.797      472.01316      8285.5218      1.5597567      0.81828753   
   2019200  -6098.7057     -6175.3974      76.691754      29782.859      458.15693      8282.2065      1.560381       0.81828753   
   2019300  -6099.1063     -6175.8762      76.769861      30809.952      458.62355      8284.1781      1.5600097      0.81828753   
   2019400  -6100.4607     -6176.9263      76.465624      26394.054      456.80603      8289.6911      1.5589722      0.81828753   
   2019500  -6100.8412     -6178.4269      77.585787      28143.299      463.49789      8295.0951      1.5579566      0.81828753   
   2019600  -6098.7796     -6178.3596      79.579924      30456.8        475.41087      8300.0348      1.5570294      0.81828753   
   2019700  -6099.5142     -6177.3978      77.883591      29116.147      465.27697      8307.2943      1.5556687      0.81828753   
   2019800  -6095.2722     -6173.1627      77.890466      34052.133      465.31805      8311.6849      1.554847       0.81828753   
   2019900  -6097.0753     -6175.3398      78.264519      31833.947      467.55264      8317.8844      1.5536881      0.81828753   
   2020000  -6096.9766     -6174.6763      77.699742      31243.531      464.17866      8325.6411      1.5522406      0.8137811    
   2020033  -6097.2171     -6174.7946      77.577445      28601.992      463.44806      8327.9283      1.5518143      0.8137811    
Loop time of 8541.98 on 1 procs for 2000000 steps with 1296 atoms

Performance: 10.115 ns/day, 2.373 hours/ns, 234.138 timesteps/s, 303.443 katom-step/s
99.8% CPU use with 1 MPI tasks x 1 OpenMP threads

MPI task timing breakdown:
Section |  min time  |  avg time  |  max time  |%varavg| %total
---------------------------------------------------------------
Pair    | 6562.8     | 6562.8     | 6562.8     |   0.0 | 76.83
Neigh   | 86.116     | 86.116     | 86.116     |   0.0 |  1.01
Comm    | 83.051     | 83.051     | 83.051     |   0.0 |  0.97
Output  | 5.2756     | 5.2756     | 5.2756     |   0.0 |  0.06
Modify  | 1761       | 1761       | 1761       |   0.0 | 20.62
Other   |            | 43.74      |            |       |  0.51

Nlocal:           1296 ave        1296 max        1296 min
Histogram: 1 0 0 0 0 0 0 0 0 0
Nghost:           4426 ave        4426 max        4426 min
Histogram: 1 0 0 0 0 0 0 0 0 0
Neighs:              0 ave           0 max           0 min
Histogram: 1 0 0 0 0 0 0 0 0 0
FullNghs:       232134 ave      232134 max      232134 min
Histogram: 1 0 0 0 0 0 0 0 0 0

Total # of neighbors = 232134
Ave neighs/atom = 179.11574
Neighbor list builds = 200000
Dangerous builds = 200000

unfix		3
unfix		4
Total wall time: 2:23:48
