LAMMPS (27 Jun 2024)
KOKKOS mode with Kokkos version 4.3.1 is enabled (src/KOKKOS/kokkos.cpp:72)
  will use up to 1 GPU(s) per node
WARNING: When using a single thread, the Kokkos Serial backend (i.e. Makefile.kokkos_mpi_only) gives better performance than the OpenMP backend (src/KOKKOS/kokkos.cpp:202)
  using 1 OpenMP thread(s) per MPI task
package kokkos
package kokkos newton on neigh half

units		metal						## E in [eV], t in [ps], P in [10000 Pa], l in [A]
atom_style	atomic						## mass x y z vx vy vz

neighbor	0.5 bin						## neighbor list, skin = 0.5 Angstrom
neigh_modify	every 2 delay 10 check yes			## update of neighbor list

############################## main variables
variable        seed equal 72922

variable	temperature equal 400
variable	tempDamp equal 0.1

variable        pressure equal 20000
variable        pressureDamp equal 1.0 				# This is 1 ps

##############################

read_data water.dat
Reading data file ...
  orthogonal box = (0 0 0) to (18.18769 21.422696 22.188939)
  1 by 1 by 1 MPI processor grid
  reading atoms ...
  864 atoms
  read_data CPU = 0.048 seconds

mass		1 1.008    # H
mass		2 15.9994  # O


pair_style	pace/extrapolation
ACE/AL version: 2023.11.25
pair_coeff	* * /pc2/users/a/acepdw01/work/phase_diagram/pot_dir/interim_potential_ladder_step_1.yaml /pc2/users/a/acepdw01/work/phase_diagram/pot_dir/interim_potential_ladder_step_1.asi H O
Loading /pc2/users/a/acepdw01/work/phase_diagram/pot_dir/interim_potential_ladder_step_1.yaml
Total number of basis functions
	H: 23 (r=1) 664 (r>1)
	O: 23 (r=1) 664 (r>1)
Mapping LAMMPS atom type #1(H) -> ACE species type #0
Mapping LAMMPS atom type #2(O) -> ACE species type #1
Loading ASI /pc2/users/a/acepdw01/work/phase_diagram/pot_dir/interim_potential_ladder_step_1.asi
LINEAR ASI is loaded

fix pace_gamma all pair 1000 pace/extrapolation gamma 1
compute max_pace_gamma all reduce max f_pace_gamma
variable dump_skip equal "c_max_pace_gamma < 10"

dump pace_dump all custom 1000 extrapolative_structures.dump id type x y z f_pace_gamma
dump_modify pace_dump skip v_dump_skip
dump_modify pace_dump element H O

variable max_pace_gamma equal c_max_pace_gamma

timestep	0.0005						## timestep = 0.0005*ps = 0.5 fs

thermo		100
thermo_style custom step etotal pe ke press temp vol density c_max_pace_gamma


min_style cg
minimize 0.0 5.0e-4 10000 100000

CITE-CITE-CITE-CITE-CITE-CITE-CITE-CITE-CITE-CITE-CITE-CITE-CITE

Your simulation uses code contributions which should be cited:

- Type Label Framework: https://doi.org/10.1021/acs.jpcb.3c08419

@Article{Gissinger24,
 author = {Jacob R. Gissinger, Ilia Nikiforov, Yaser Afshar, Brendon Waters, Moon-ki Choi, Daniel S. Karls, Alexander Stukowski, Wonpil Im, Hendrik Heinz, Axel Kohlmeyer, and Ellad B. Tadmor},
 title = {Type Label Framework for Bonded Force Fields in LAMMPS},
 journal = {J. Phys. Chem. B},
 year =    2024,
 volume =  128,
 number =  13,
 pages =   {3282–-3297}
}

CITE-CITE-CITE-CITE-CITE-CITE-CITE-CITE-CITE-CITE-CITE-CITE-CITE

Switching to 'neigh_modify every 1 delay 0 check yes' setting during minimization
Neighbor list info ...
  update: every = 1 steps, delay = 0 steps, check = yes
  max neighbors/atom: 2000, page size: 100000
  master list distance cutoff = 6.5
  ghost atom cutoff = 6.5
  binsize = 6.5, bins = 3 4 4
  1 neighbor lists, perpetual/occasional/extra = 1 0 0
  (1) pair pace/extrapolation/kk, perpetual
      attributes: full, newton on, kokkos_device
      pair build: full/bin/kk/device
      stencil: full/bin/3d
      bin: kk/device
WARNING: Fix with atom-based arrays not compatible with sending data in Kokkos communication, switching to classic exchange/border communication (src/KOKKOS/comm_kokkos.cpp:754)
WARNING: Fix with atom-based arrays not compatible with Kokkos sorting on device, switching to classic host sorting (src/KOKKOS/atom_kokkos.cpp:216)
Per MPI rank memory allocation (min/avg/max) = 687.3 | 687.3 | 687.3 Mbytes
   Step         TotEng         PotEng         KinEng         Press           Temp          Volume        Density     c_max_pace_gamma
         0  -4122.5852     -4122.5852      0              47781.072      0              8645.4617      0.99654581     0.77349043   
       100  -4161.8156     -4161.8156      0             -3777.5916      0              8645.4617      0.99654581     0.77349043   
       200  -4163.3059     -4163.3059      0             -3779.8896      0              8645.4617      0.99654581     0.77349043   
       300  -4163.5832     -4163.5832      0             -3745.5811      0              8645.4617      0.99654581     0.77349043   
       400  -4163.6347     -4163.6347      0             -3751.7236      0              8645.4617      0.99654581     0.77349043   
       500  -4163.6433     -4163.6433      0             -3732.0038      0              8645.4617      0.99654581     0.77349043   
       600  -4163.7066     -4163.7066      0             -3706.0142      0              8645.4617      0.99654581     0.77349043   
       700  -4163.709      -4163.709       0             -3709.6984      0              8645.4617      0.99654581     0.77349043   
       800  -4163.7238     -4163.7238      0             -3563.2965      0              8645.4617      0.99654581     0.77349043   
       900  -4163.8997     -4163.8997      0             -3527.2606      0              8645.4617      0.99654581     0.77349043   
      1000  -4163.9044     -4163.9044      0             -3542.4939      0              8645.4617      0.99654581     0.62734998   
      1100  -4163.9084     -4163.9084      0             -3605.0091      0              8645.4617      0.99654581     0.62734998   
      1200  -4163.9094     -4163.9094      0             -3600.5751      0              8645.4617      0.99654581     0.62734998   
      1300  -4163.9166     -4163.9166      0             -3614.1498      0              8645.4617      0.99654581     0.62734998   
      1400  -4163.9171     -4163.9171      0             -3618.8776      0              8645.4617      0.99654581     0.62734998   
      1461  -4163.9171     -4163.9171      0             -3619.1311      0              8645.4617      0.99654581     0.62734998   
Loop time of 7.00691 on 1 procs for 1461 steps with 864 atoms

99.7% CPU use with 1 MPI tasks x 1 OpenMP threads

Minimization stats:
  Stopping criterion = force tolerance
  Energy initial, next-to-last, final = 
     -4122.58523137055  -4163.91712780265  -4163.91712780922
  Force two-norm initial, final = 42.505904 0.00046509357
  Force max component initial, final = 2.1459331 0.00010429386
  Final line search alpha, max atom move = 1 0.00010429386
  Iterations, force evaluations = 1461 2920

MPI task timing breakdown:
Section |  min time  |  avg time  |  max time  |%varavg| %total
---------------------------------------------------------------
Pair    | 5.9193     | 5.9193     | 5.9193     |   0.0 | 84.48
Neigh   | 0.021455   | 0.021455   | 0.021455   |   0.0 |  0.31
Comm    | 0.079277   | 0.079277   | 0.079277   |   0.0 |  1.13
Output  | 0.0018127  | 0.0018127  | 0.0018127  |   0.0 |  0.03
Modify  | 0.61187    | 0.61187    | 0.61187    |   0.0 |  8.73
Other   |            | 0.3732     |            |       |  5.33

Nlocal:            864 ave         864 max         864 min
Histogram: 1 0 0 0 0 0 0 0 0 0
Nghost:           2858 ave        2858 max        2858 min
Histogram: 1 0 0 0 0 0 0 0 0 0
Neighs:              0 ave           0 max           0 min
Histogram: 1 0 0 0 0 0 0 0 0 0
FullNghs:        97324 ave       97324 max       97324 min
Histogram: 1 0 0 0 0 0 0 0 0 0

Total # of neighbors = 97324
Ave neighs/atom = 112.64352
Neighbor list builds = 53
Dangerous builds = 0

################## equilibration of main calculation
# Equilibrate to specified number of ice

fix             3 all nph iso ${pressure} ${pressure} ${pressureDamp}
fix             3 all nph iso 20000 ${pressure} ${pressureDamp}
fix             3 all nph iso 20000 20000 ${pressureDamp}
fix             3 all nph iso 20000 20000 1
fix             4 all temp/csvr ${temperature} ${temperature} ${tempDamp} ${seed}
fix             4 all temp/csvr 400 ${temperature} ${tempDamp} ${seed}
fix             4 all temp/csvr 400 400 ${tempDamp} ${seed}
fix             4 all temp/csvr 400 400 0.1 ${seed}
fix             4 all temp/csvr 400 400 0.1 72922
velocity 	all create ${temperature} ${seed} dist gaussian
velocity 	all create 400 ${seed} dist gaussian
velocity 	all create 400 72922 dist gaussian

run 20000
WARNING: Fix with atom-based arrays not compatible with Kokkos sorting on device, switching to classic host sorting (src/KOKKOS/atom_kokkos.cpp:216)
Per MPI rank memory allocation (min/avg/max) = 686.5 | 686.5 | 686.5 Mbytes
   Step         TotEng         PotEng         KinEng         Press           Temp          Volume        Density     c_max_pace_gamma
      1461  -4119.2965     -4163.9171      44.620602      1893.594       400            8645.4617      0.99654581     0.62734998   
      1500  -4115.8958     -4147.7468      31.850959      5741.3494      285.52693      8627.9488      0.99856858     0.62734998   
      1600  -4106.8252     -4134.3194      27.49414       5327.9066      246.47036      8448.7413      1.0197494      0.62734998   
      1700  -4097.6069     -4128.3702      30.763299      8515.359       275.77664      8148.6504      1.0573037      0.62734998   
      1800  -4091.9873     -4125.9661      33.978819      12111.903      304.60207      7873.4781      1.0942557      0.62734998   
      1900  -4086.8187     -4123.9143      37.095605      14039.749      332.5424       7666.2263      1.1238383      0.62734998   
      2000  -4082.6464     -4120.2915      37.645115      18984.19       337.46846      7491.5839      1.150037       0.82950386   
      2100  -4077.2395     -4116.1017      38.862156      14074.497      348.37859      7337.532       1.1741821      0.82950386   
      2200  -4075.1117     -4114.3902      39.278497      17022.704      352.11086      7208.6179      1.1951804      0.82950386   
      2300  -4073.8826     -4113.9569      40.074333      16994.539      359.24511      7107.536       1.212178       0.82950386   
      2400  -4069.1604     -4109.5865      40.426057      19412.736      362.39813      7029.4149      1.2256495      0.82950386   
      2500  -4066.372      -4108.5899      42.217948      18417.152      378.46148      6974.8934      1.2352301      0.82950386   
      2600  -4064.83       -4106.4655      41.635521      19942.541      373.24033      6937.1885      1.2419438      0.82950386   
      2700  -4062.6331     -4105.5648      42.931783      19189.453      384.86063      6907.1327      1.2473481      0.82950386   
      2800  -4062.0108     -4106.4426      44.431746      21676.623      398.307        6878.9147      1.2524648      0.82950386   
      2900  -4060.0678     -4104.2911      44.223295      20475.042      396.43836      6847.6231      1.2581882      0.82950386   
      3000  -4058.5057     -4102.7303      44.224613      21029.308      396.45017      6816.0317      1.2640197      0.79783057   
      3100  -4059.7365     -4102.402       42.665472      20942.98       382.4733       6789.5648      1.2689471      0.79783057   
      3200  -4059.9168     -4103.5329      43.616084      17586.057      390.99503      6767.5399      1.2730769      0.79783057   
      3300  -4061.1858     -4104.0472      42.8614        21901.57       384.22968      6745.4195      1.2772517      0.79783057   
      3400  -4060.7645     -4103.4987      42.734218      19967.619      383.08957      6724.2583      1.2812712      0.79783057   
      3500  -4062.48       -4103.8078      41.327873      21611.543      370.48243      6707.5605      1.2844608      0.79783057   
      3600  -4060.5134     -4103.713       43.199622      18790.477      387.26167      6694.1482      1.2870343      0.79783057   
      3700  -4061.8065     -4105.0604      43.253865      20880.197      387.74793      6683.1092      1.2891602      0.79783057   
      3800  -4061.2211     -4104.4215      43.200395      22507.52       387.2686       6672.3856      1.2912321      0.79783057   
      3900  -4059.735      -4104.9464      45.211355      23592.832      405.29579      6668.0104      1.2920794      0.79783057   
      4000  -4057.523      -4102.6444      45.121322      19924.748      404.48869      6669.2261      1.2918438      0.75130034   
      4100  -4057.8406     -4102.9986      45.15804       23881.729      404.81784      6676.4174      1.2904524      0.75130034   
      4200  -4057.0444     -4103.5849      46.540491      22629.023      417.21079      6691.7574      1.2874942      0.75130034   
      4300  -4058.6168     -4104.1355      45.518691      21023.709      408.05089      6712.9654      1.2834266      0.75130034   
      4400  -4060.0497     -4104.1798      44.130101      17617.688      395.60292      6730.4115      1.2800998      0.75130034   
      4500  -4057.5468     -4103.3462      45.799404      21500.268      410.56733      6738.9337      1.278481       0.75130034   
      4600  -4058.9123     -4103.1131      44.20083       18773.891      396.23697      6735.7035      1.2790941      0.75130034   
      4700  -4058.9754     -4101.1624      42.186982      15933.082      378.18389      6721.5201      1.2817932      0.75130034   
      4800  -4060.4744     -4105.1027      44.628253      16759.198      400.06859      6703.2227      1.285292       0.75130034   
      4900  -4061.2933     -4104.4071      43.113759      17709.925      386.49195      6681.5952      1.2894523      0.75130034   
      5000  -4060.1815     -4104.5247      44.343284      19470.901      397.51399      6660.7485      1.293488       0.7981763    
      5100  -4060.1032     -4105.0957      44.99246       19523.792      403.33351      6644.8112      1.2965904      0.7981763    
      5200  -4056.9478     -4102.4865      45.53874       21976.734      408.23062      6637.8944      1.2979415      0.7981763    
      5300  -4056.3184     -4102.9762      46.657782      23849.441      418.26223      6646.4635      1.2962681      0.7981763    
      5400  -4056.3172     -4102.3849      46.067727      25951.299      412.97271      6667.6094      1.2921571      0.7981763    
      5500  -4056.0113     -4102.7957      46.784352      15632.446      419.39687      6692.4463      1.2873616      0.7981763    
      5600  -4055.4394     -4102.3652      46.92575       23064.708      420.66443      6713.3662      1.28335        0.7981763    
      5700  -4055.0491     -4101.5931      46.544021      20411.199      417.24243      6730.2089      1.2801384      0.7981763    
      5800  -4056.3459     -4101.9176      45.571783      19563.843      408.52683      6736.0678      1.2790249      0.7981763    
      5900  -4054.3035     -4100.2295      45.925983      24012.629      411.70204      6729.6704      1.2802408      0.7981763    
      6000  -4055.7875     -4100.973       45.185483      22928.724      405.06386      6717.2398      1.2826099      0.74662277   
      6100  -4054.5188     -4100.7261      46.207306      19748.536      414.22396      6703.8381      1.285174       0.74662277   
      6200  -4055.3515     -4101.9341      46.582569      26564.117      417.588        6688.9229      1.2880397      0.74662277   
      6300  -4055.0881     -4100.1371      45.049038      19672.611      403.8407       6674.0077      1.2909183      0.74662277   
      6400  -4055.1798     -4100.3831      45.203326      21092.423      405.22381      6658.9298      1.2938413      0.74662277   
      6500  -4055.4782     -4100.7057      45.227594      15513.447      405.44136      6647.7445      1.2960183      0.74662277   
      6600  -4055.7949     -4099.3105      43.515618      20666.086      390.09441      6639.5844      1.2976111      0.74662277   
      6700  -4054.6031     -4098.642       44.03886       17962.805      394.78499      6634.7432      1.2985579      0.74662277   
      6800  -4053.9079     -4100.5279      46.620021      19282.274      417.92373      6637.5456      1.2980097      0.74662277   
      6900  -4054.5217     -4101.7026      47.180888      21781.293      422.95161      6650.6521      1.2954517      0.74662277   
      7000  -4053.5666     -4100.1821      46.615483      22296.553      417.88305      6668.6683      1.2919519      0.68006814   
      7100  -4056.4337     -4102.42        45.986347      23224.387      412.24317      6692.0186      1.2874439      0.68006814   
      7200  -4054.2692     -4102.6394      48.370268      21306.663      433.61376      6711.4368      1.283719       0.68006814   
      7300  -4054.1577     -4100.9662      46.808491      25095.599      419.61326      6723.0754      1.2814967      0.68006814   
      7400  -4054.3173     -4100.1923      45.874922      22951.599      411.24431      6729.6655      1.2802417      0.68006814   
      7500  -4055.2274     -4101.419       46.191539      19738.546      414.08261      6731.6673      1.279861       0.68006814   
      7600  -4054.9279     -4100.2841      45.356237      19007.713      406.59458      6726.9436      1.2807597      0.68006814   
      7700  -4055.5897     -4102.3207      46.731006      14513.819      418.91865      6717.5026      1.2825598      0.68006814   
      7800  -4056.3136     -4101.9629      45.649351      20217.449      409.22219      6701.6595      1.2855918      0.68006814   
      7900  -4057.0112     -4102.2069      45.195726      19801.351      405.15568      6679.5324      1.2898506      0.68006814   
      8000  -4057.2762     -4102.8253      45.549095      23250.405      408.32345      6655.0971      1.2945865      0.74006713   
      8100  -4055.9877     -4100.365       44.377317      22188.082      397.81908      6631.9078      1.2991131      0.74006713   
      8200  -4056.8609     -4103.7566      46.895668      19103.791      420.39475      6621.962       1.3010643      0.74006713   
      8300  -4056.0708     -4100.7946      44.723877      18387.785      400.92581      6625.5893      1.300352       0.74006713   
      8400  -4057.15       -4102.1399      44.989908      20250.75       403.31063      6638.6568      1.2977924      0.74006713   
      8500  -4058.3064     -4102.5177      44.211359      17447.673      396.33135      6656.3976      1.2943335      0.74006713   
      8600  -4058.038      -4104.2809      46.242885      20885.027      414.54291      6674.9162      1.2907426      0.74006713   
      8700  -4057.1703     -4101.3421      44.171809      19576.988      395.97681      6689.7838      1.287874       0.74006713   
      8800  -4057.9486     -4103.7041      45.75548       15076.761      410.17357      6697.0336      1.2864798      0.74006713   
      8900  -4057.4634     -4102.0059      44.542419      17383.462      399.29913      6694.5259      1.2869617      0.74006713   
      9000  -4058.5362     -4103.2255      44.689342      16821.52       400.61621      6684.1914      1.2889515      0.723012     
      9100  -4059.0809     -4104.0627      44.981749      21343.976      403.23749      6673.5166      1.2910133      0.723012     
      9200  -4057.4037     -4104.3572      46.953484      19601.676      420.91305      6668.8185      1.2919228      0.723012     
      9300  -4057.6642     -4103.968       46.303826      23538.634      415.08921      6673.4028      1.2910353      0.723012     
      9400  -4058.2429     -4104.3189      46.076057      17713.01       413.04738      6681.7635      1.2894199      0.723012     
      9500  -4057.0159     -4103.7403      46.724395      16326.474      418.85938      6688.3039      1.288159       0.723012     
      9600  -4057.453      -4102.3953      44.942362      20029.148      402.88441      6690.6697      1.2877035      0.723012     
      9700  -4056.2666     -4101.0301      44.763475      21101.372      401.28078      6692.0576      1.2874364      0.723012     
      9800  -4057.3427     -4100.4751      43.132385      21729.824      386.65893      6688.7797      1.2880673      0.723012     
      9900  -4056.979      -4102.1013      45.122328      23411.207      404.49771      6681.0435      1.2895588      0.723012     
     10000  -4058.2867     -4103.314       45.027341      16691.705      403.6462       6669.2018      1.2918485      0.69594429   
     10100  -4056.754      -4102.274       45.519949      19143.743      408.06217      6656.954       1.2942254      0.69594429   
     10200  -4056.2499     -4102.3586      46.10874       17732.345      413.34036      6647.5138      1.2960633      0.69594429   
     10300  -4056.7724     -4102.1602      45.387779      24484.641      406.87733      6643.3308      1.2968794      0.69594429   
     10400  -4057.1298     -4103.2175      46.087645      22760.102      413.15126      6643.4038      1.2968651      0.69594429   
     10500  -4057.3094     -4103.8047      46.495255      26405.929      416.80527      6650.866       1.29541        0.69594429   
     10600  -4058.1408     -4103.0509      44.910062      26351.729      402.59485      6668.1721      1.292048       0.69594429   
     10700  -4060.1314     -4103.9607      43.82933       21288.665      392.90667      6689.0023      1.2880245      0.69594429   
     10800  -4060.9342     -4105.4229      44.488761      17308.486      398.81811      6703.9842      1.285146       0.69594429   
     10900  -4062.195      -4105.9992      43.804167      19704.877      392.68109      6705.6626      1.2848244      0.69594429   
     11000  -4061.455      -4106.1216      44.666602      23062.232      400.41236      6695.7301      1.2867303      0.68984849   
     11100  -4061.9395     -4105.2175      43.277961      18582.049      387.96394      6682.0652      1.2893616      0.68984849   
     11200  -4061.1228     -4105.138       44.015139      20226.886      394.57235      6666.7022      1.2923329      0.68984849   
     11300  -4060.6904     -4103.7622      43.071831      24873.663      386.11609      6655.2428      1.2945581      0.68984849   
     11400  -4060.7804     -4104.5132      43.732798      19876.373      392.0413       6650.3994      1.2955009      0.68984849   
     11500  -4061.2987     -4104.5669      43.268162      20643.95       387.8761       6647.3761      1.2960901      0.68984849   
     11600  -4061.2577     -4106.1193      44.861567      19740.486      402.16012      6647.4809      1.2960697      0.68984849   
     11700  -4061.0627     -4105.6855      44.622799      21567.993      400.01969      6644.8391      1.296585       0.68984849   
     11800  -4062.4808     -4105.6975      43.216717      26123.769      387.41492      6636.0051      1.298311       0.68984849   
     11900  -4060.4886     -4107.2684      46.779802      17986.625      419.35608      6623.5245      1.3007574      0.68984849   
     12000  -4060.952      -4105.5753      44.623341      19974.558      400.02455      6609.475       1.3035224      0.71131855   
     12100  -4059.1012     -4103.4971      44.395977      20951.381      397.98636      6597.0515      1.3059772      0.71131855   
     12200  -4061.351      -4104.5864      43.235442      20428.585      387.58277      6594.2379      1.3065344      0.71131855   
     12300  -4060.9878     -4103.1206      42.132807      22785.727      377.69824      6601.3115      1.3051344      0.71131855   
     12400  -4060.012      -4105.0202      45.008216      20280.391      403.47476      6612.1125      1.3030024      0.71131855   
     12500  -4059.4686     -4104.2119      44.743327      21182.388      401.10016      6627.8832      1.299902       0.71131855   
     12600  -4057.0479     -4104.1339      47.085997      20618.628      422.10096      6648.1873      1.295932       0.71131855   
     12700  -4059.5872     -4102.4328      42.845634      19191.213      384.08835      6670.4283      1.291611       0.71131855   
     12800  -4061.8092     -4105.5368      43.727673      16322.622      391.99537      6691.1426      1.2876125      0.71131855   
     12900  -4061.5627     -4105.3443      43.781647      19487.524      392.47921      6699.856       1.2859379      0.71131855   
     13000  -4061.5264     -4105.1005      43.57404       17955.231      390.61813      6692.0071      1.2874461      0.6850458    
     13100  -4060.7632     -4104.5157      43.752557      20041.339      392.21844      6672.4145      1.2912265      0.6850458    
     13200  -4060.788      -4103.5187      42.730682      22939.892      383.05787      6646.6291      1.2962358      0.6850458    
     13300  -4058.7529     -4104.2734      45.520502      20736.387      408.06713      6615.9638      1.3022439      0.6850458    
     13400  -4057.2955     -4102.5573      45.261786      22940.56       405.74787      6587.7463      1.3078219      0.6850458    
     13500  -4056.6763     -4102.9685      46.292234      21650.528      414.9853       6576.2395      1.3101102      0.6850458    
     13600  -4056.3547     -4101.082       44.727358      17685.691      400.95701      6580.136       1.3093344      0.6850458    
     13700  -4056.6993     -4102.0692      45.369944      24398.052      406.71745      6594.0363      1.3065743      0.6850458    
     13800  -4058.2148     -4101.2155      43.000626      24074.672      385.47777      6615.2968      1.3023752      0.6850458    
     13900  -4057.7846     -4103.0015      45.216843      16666.374      405.34498      6642.7235      1.2969979      0.6850458    
     14000  -4059.2617     -4103.7957      44.534046      20118.794      399.22407      6666.7457      1.2923245      0.67904973   
     14100  -4058.7051     -4103.9184      45.213259      14675.88       405.31285      6686.4382      1.2885184      0.67904973   
     14200  -4059.9298     -4104.8134      44.883583      20454.673      402.35748      6699.1988      1.286064       0.67904973   
     14300  -4057.8849     -4103.7367      45.851766      19206.724      411.03673      6702.5771      1.2854158      0.67904973   
     14400  -4058.2736     -4102.3578      44.084139      15328.888      395.19089      6694.9244      1.2868851      0.67904973   
     14500  -4057.107      -4102.3251      45.2181        20299.162      405.35625      6680.1167      1.2897377      0.67904973   
     14600  -4056.564      -4100.2271      43.663099      26135.524      391.4165       6666.0928      1.292451       0.67904973   
     14700  -4056.5135     -4101.6772      45.163693      21099.873      404.86853      6661.9655      1.2932518      0.67904973   
     14800  -4058.1465     -4103.0774      44.930962      13127.039      402.78221      6664.1665      1.2928246      0.67904973   
     14900  -4059.4142     -4101.9574      42.543197      22423.727      381.37716      6669.8527      1.2917225      0.67904973   
     15000  -4060.5025     -4105.874       45.371443      19354.421      406.73089      6680.2239      1.289717       0.64001564   
     15100  -4058.8702     -4103.7741      44.903902      20352.5        402.53964      6685.3885      1.2887207      0.64001564   
     15200  -4061.362      -4105.1585      43.796463      22039.539      392.61203      6680.7473      1.289616       0.64001564   
     15300  -4060.3129     -4105.6547      45.341828      17615.607      406.46541      6663.7709      1.2929014      0.64001564   
     15400  -4058.2867     -4104.447       46.160318      21505.123      413.80274      6637.7093      1.2979777      0.64001564   
     15500  -4057.6273     -4102.9715      45.344202      19884.179      406.48669      6610.4232      1.3033354      0.64001564   
     15600  -4056.8897     -4101.7572      44.867457      24687.673      402.21292      6589.4549      1.3074828      0.64001564   
     15700  -4057.9385     -4104.0708      46.132229      19665.479      413.55093      6580.2925      1.3093033      0.64001564   
     15800  -4059.7412     -4105.2236      45.482409      19999.514      407.72564      6588.2621      1.3077195      0.64001564   
     15900  -4059.6396     -4104.4903      44.850732      18489.413      402.06299      6611.5193      1.3031193      0.64001564   
     16000  -4061.7227     -4103.9568      42.234112      22438.714      378.60639      6643.8268      1.2967825      0.78369001   
     16100  -4061.8319     -4104.092       42.260089      17754.208      378.83925      6677.1763      1.2903057      0.78369001   
     16200  -4061.9835     -4105.6109      43.627387      16174.674      391.09636      6704.2375      1.2850975      0.78369001   
     16300  -4058.1739     -4105.5715      47.397552      17588.455      424.89388      6719.7135      1.2821378      0.78369001   
     16400  -4059.1457     -4103.7396      44.593807      15921.906      399.7598       6718.6171      1.282347       0.78369001   
     16500  -4057.8839     -4103.7776      45.893683      16877.052      411.4125       6702.8733      1.285359       0.78369001   
     16600  -4058.1542     -4104.411       46.256844      16416.501      414.66804      6678.2041      1.2901071      0.78369001   
     16700  -4058.4117     -4103.1706      44.75893       19454.335      401.24004      6647.3653      1.2960922      0.78369001   
     16800  -4059.5893     -4104.7995      45.210275      15518.582      405.28611      6615.1757      1.302399       0.78369001   
     16900  -4059.3236     -4103.2613      43.937681      22652.399      393.87798      6588.1301      1.3077457      0.78369001   
     17000  -4057.7922     -4103.2366      45.444461      19395.748      407.38546      6574.2182      1.310513       0.75909215   
     17100  -4058.1218     -4102.9092      44.787329      21228.855      401.49462      6575.6839      1.3102209      0.75909215   
     17200  -4058.7149     -4104.0672      45.352378      18986.902      406.55998      6593.917       1.306598       0.75909215   
     17300  -4059.9229     -4103.6482      43.725331      22499.644      391.97437      6621.7314      1.3011096      0.75909215   
     17400  -4059.7119     -4105.1924      45.480546      19062.263      407.70894      6651.4645      1.2952935      0.75909215   
     17500  -4060.297      -4103.1775      42.880423      24533.567      384.40022      6678.7177      1.2900079      0.75909215   
     17600  -4059.0576     -4104.4535      45.395951      15830.448      406.95059      6696.663       1.286551       0.75909215   
     17700  -4060.5935     -4104.8547      44.261227      20858.785      396.7784       6698.1572      1.286264       0.75909215   
     17800  -4059.5398     -4102.7773      43.237482      19123.993      387.60106      6686.4832      1.2885097      0.75909215   
     17900  -4059.1768     -4103.6148      44.438011      18963.885      398.36317      6663.56        1.2929423      0.75909215   
     18000  -4058.4401     -4101.9537      43.513637      22254.29       390.07665      6636.9548      1.2981253      0.76300812   
     18100  -4058.4329     -4102.0765      43.643591      19916.645      391.24161      6610.6963      1.3032816      0.76300812   
     18200  -4057.1281     -4102.0686      44.940567      23273.773      402.86832      6588.9993      1.3075732      0.76300812   
     18300  -4055.2517     -4102.1497      46.897974      24312.55       420.41543      6579.298       1.3095012      0.76300812   
     18400  -4057.9629     -4102.013       44.050149      22002.891      394.88619      6582.9593      1.3087729      0.76300812   
     18500  -4057.9328     -4102.8249      44.892148      23451.128      402.43427      6595.1598      1.3063517      0.76300812   
     18600  -4057.1252     -4100.8149      43.689675      25258.72       391.65473      6612.6898      1.3028887      0.76300812   
     18700  -4057.6011     -4103.1209      45.519886      21197.08       408.0616       6639.6954      1.2975894      0.76300812   
     18800  -4059.007      -4103.6334      44.626422      21348.35       400.05217      6666.2276      1.2924249      0.76300812   
     18900  -4057.8454     -4102.1208      44.275406      19195.668      396.9055       6684.6116      1.2888705      0.76300812   
     19000  -4057.704      -4103.9811      46.277101      23991.717      414.84963      6691.7393      1.2874976      0.6518961    
     19100  -4058.9573     -4103.5535      44.596271      18219.021      399.78188      6689.8548      1.2878603      0.6518961    
     19200  -4058.6313     -4101.803       43.171734      15316.897      387.01167      6678.8585      1.2899807      0.6518961    
     19300  -4057.1799     -4103.5023      46.322434      18848.05       415.25602      6663.8194      1.292892       0.6518961    
     19400  -4057.4415     -4102.6096      45.168115      15585.45       404.90816      6646.8569      1.2961914      0.6518961    
     19500  -4055.4174     -4102.689       47.271545      18585.132      423.76429      6629.1515      1.2996533      0.6518961    
     19600  -4054.4491     -4102.0939      47.644894      17518.222      427.11118      6615.9269      1.3022512      0.6518961    
     19700  -4056.3266     -4100.7729      44.446311      19116.623      398.43757      6605.1107      1.3043837      0.6518961    
     19800  -4055.6969     -4100.5648      44.86781       22318.392      402.21608      6600.0033      1.3053931      0.6518961    
     19900  -4057.4655     -4102.3609      44.895427      22716.811      402.46366      6605.4554      1.3043156      0.6518961    
     20000  -4056.6307     -4102.571       45.940292      16852.654      411.83032      6617.717       1.3018989      0.73086582   
     20100  -4057.291      -4102.4348      45.143816      18352.986      404.69034      6632.7532      1.2989476      0.73086582   
     20200  -4056.8035     -4102.2922      45.488657      21208.292      407.78165      6651.7166      1.2952444      0.73086582   
     20300  -4056.8144     -4101.9814      45.167013      22787.267      404.89828      6667.2302      1.2922306      0.73086582   
     20400  -4055.7721     -4102.4939      46.721801      21564.691      418.83614      6673.1086      1.2910922      0.73086582   
     20500  -4054.8977     -4101.2933      46.395557      20235.207      415.91153      6670.5856      1.2915805      0.73086582   
     20600  -4054.2245     -4101.6251      47.400596      21282.408      424.92117      6666.1867      1.2924328      0.73086582   
     20700  -4055.3398     -4101.031       45.691135      22532.855      409.59676      6661.5355      1.2933352      0.73086582   
     20800  -4054.2806     -4100.7685      46.487981      20159.862      416.74006      6657.1017      1.2941966      0.73086582   
     20900  -4055.9665     -4101.9355      45.969041      23164.984      412.08804      6649.8463      1.2956087      0.73086582   
     21000  -4056.4945     -4102.0419      45.547361      17357.411      408.3079       6640.2568      1.2974797      0.74007593   
     21100  -4057.7948     -4102.0104      44.215631      18591.356      396.36965      6634.0148      1.2987005      0.74007593   
     21200  -4059.5894     -4103.4389      43.849565      17455.312      393.08806      6629.1241      1.2996587      0.74007593   
     21300  -4059.3817     -4104.1292      44.747488      26692.012      401.13746      6625.3903      1.3003911      0.74007593   
     21400  -4059.6131     -4104.2794      44.66635       23345.956      400.4101       6626.6652      1.3001409      0.74007593   
     21461  -4058.0103     -4103.5953      45.584988      18967.062      408.64521      6628.3261      1.2998151      0.74007593   
Loop time of 67.1577 on 1 procs for 20000 steps with 864 atoms

Performance: 12.865 ns/day, 1.865 hours/ns, 297.807 timesteps/s, 257.305 katom-step/s
99.7% CPU use with 1 MPI tasks x 1 OpenMP threads

MPI task timing breakdown:
Section |  min time  |  avg time  |  max time  |%varavg| %total
---------------------------------------------------------------
Pair    | 47.231     | 47.231     | 47.231     |   0.0 | 70.33
Neigh   | 0.84046    | 0.84046    | 0.84046    |   0.0 |  1.25
Comm    | 0.85481    | 0.85481    | 0.85481    |   0.0 |  1.27
Output  | 0.025204   | 0.025204   | 0.025204   |   0.0 |  0.04
Modify  | 17.753     | 17.753     | 17.753     |   0.0 | 26.43
Other   |            | 0.4531     |            |       |  0.67

Nlocal:            864 ave         864 max         864 min
Histogram: 1 0 0 0 0 0 0 0 0 0
Nghost:           3299 ave        3299 max        3299 min
Histogram: 1 0 0 0 0 0 0 0 0 0
Neighs:              0 ave           0 max           0 min
Histogram: 1 0 0 0 0 0 0 0 0 0
FullNghs:       129964 ave      129964 max      129964 min
Histogram: 1 0 0 0 0 0 0 0 0 0

Total # of neighbors = 129964
Ave neighs/atom = 150.4213
Neighbor list builds = 1999
Dangerous builds = 1996

unfix 3
unfix 4

################## main calculation

#dump 		3 all custom 1000 traj.lammpstrj id type element x y z
#dump_modify     3 element H O

variable	dump_out_freq equal 500
dump            myDump all atom ${dump_out_freq} dump.na
dump            myDump all atom 500 dump.na
dump            myDcdDump all dcd ${dump_out_freq} out.dcd
dump            myDcdDump all dcd 500 out.dcd
dump_modify	myDump append yes
dump_modify     myDcdDump append yes

fix             3 all nph iso ${pressure} ${pressure} ${pressureDamp}
fix             3 all nph iso 20000 ${pressure} ${pressureDamp}
fix             3 all nph iso 20000 20000 ${pressureDamp}
fix             3 all nph iso 20000 20000 1
fix             4 all temp/csvr ${temperature} ${temperature} ${tempDamp} ${seed}
fix             4 all temp/csvr 400 ${temperature} ${tempDamp} ${seed}
fix             4 all temp/csvr 400 400 ${tempDamp} ${seed}
fix             4 all temp/csvr 400 400 0.1 ${seed}
fix             4 all temp/csvr 400 400 0.1 72922
velocity 	all create ${temperature} ${seed} dist gaussian
velocity 	all create 400 ${seed} dist gaussian
velocity 	all create 400 72922 dist gaussian

run             200000
WARNING: Fix with atom-based arrays not compatible with Kokkos sorting on device, switching to classic host sorting (src/KOKKOS/atom_kokkos.cpp:216)
Per MPI rank memory allocation (min/avg/max) = 733.6 | 733.6 | 733.6 Mbytes
   Step         TotEng         PotEng         KinEng         Press           Temp          Volume        Density     c_max_pace_gamma
     21461  -4058.9747     -4103.5953      44.620602      18811.656      400            6628.3261      1.2998151      0.74007593   
     21500  -4058.9291     -4104.685       45.755896      20599.901      410.17731      6628.5274      1.2997757      0.74007593   
     21600  -4059.005      -4102.6926      43.687605      19386.068      391.63618      6630.0964      1.2994681      0.74007593   
     21700  -4058.391      -4102.3452      43.954114      19739.431      394.02529      6634.8907      1.2985291      0.74007593   
     21800  -4060.7144     -4103.9199      43.205498      20409.707      387.31435      6644.5155      1.2966481      0.74007593   
     21900  -4061.2645     -4103.7716      42.507088      23757.06       381.05347      6654.1031      1.2947799      0.74007593   
     22000  -4062.1249     -4104.8916      42.766784      22187.754      383.38151      6667.0721      1.2922612      0.67323973   
     22100  -4060.7802     -4102.3257      41.545454      18776.31       372.43293      6679.6465      1.2898285      0.67323973   
     22200  -4062.1961     -4104.7916      42.595522      18539.745      381.84623      6686.7122      1.2884656      0.67323973   
     22300  -4063.3527     -4105.1241      41.771316      20485.849      374.45766      6680.999       1.2895674      0.67323973   
     22400  -4060.8483     -4104.0153      43.16695       18626.758      386.96878      6665.8654      1.2924951      0.67323973   
     22500  -4059.6966     -4104.6272      44.930638      19128.249      402.77931      6646.3733      1.2962857      0.67323973   
     22600  -4059.4714     -4103.0407      43.569336      19028.329      390.57596      6629.9915      1.2994886      0.67323973   
     22700  -4057.979      -4104.0646      46.085653      18133.073      413.13341      6621.6169      1.3011321      0.67323973   
     22800  -4058.2822     -4102.0849      43.802745      23907.728      392.66835      6624.519       1.3005621      0.67323973   
     22900  -4057.3438     -4101.6575      44.313645      22614.919      397.2483       6639.2508      1.2976763      0.67323973   
     23000  -4056.647      -4100.8359      44.188842      18150.517      396.1295       6660.3969      1.2935563      0.75149968   
     23100  -4058.5836     -4101.4597      42.876133      23155.133      384.36176      6685.1617      1.2887644      0.75149968   
     23200  -4059.2354     -4103.5309      44.295484      21721.607      397.08549      6708.2536      1.2843281      0.75149968   
     23300  -4061.0547     -4105.1627      44.107997      20383.966      395.40477      6719.509       1.2821768      0.75149968   
     23400  -4060.6294     -4103.0159      42.386508      13594.717      379.97253      6717.0537      1.2826455      0.75149968   
     23500  -4062.4247     -4104.6131      42.188387      13774.132      378.19649      6703.623       1.2852153      0.75149968   
     23600  -4060.3548     -4102.4341      42.079297      17525.715      377.21855      6683.0511      1.2891714      0.75149968   
     23700  -4061.6492     -4105.0069      43.357656      23933.904      388.67836      6664.7519      1.2927111      0.75149968   
     23800  -4060.9985     -4105.3955      44.396945      22743.352      397.99503      6643.1246      1.2969196      0.75149968   
     23900  -4059.0614     -4103.0964      44.034997      24643.587      394.75036      6620.0798      1.3014342      0.75149968   
     24000  -4056.2391     -4101.5245      45.285392      20560.701      405.95949      6607.0719      1.3039965      0.67623847   
     24100  -4056.2128     -4099.9068      43.693998      25259.021      391.69348      6612.6008      1.3029062      0.67623847   
     24200  -4055.5201     -4100.8601      45.340043      20806.513      406.4494       6636.2942      1.2982545      0.67623847   
     24300  -4057.3859     -4104.3673      46.981368      21528.994      421.16301      6672.158       1.2912762      0.67623847   
     24400  -4059.1077     -4103.5373      44.429545      17246.679      398.28728      6712.5524      1.2835056      0.67623847   
     24500  -4056.8599     -4104.1939      47.33401       17857.117      424.32426      6749.3537      1.2765072      0.67623847   
     24600  -4058.9805     -4103.5681      44.587591      16625.03       399.70407      6772.1267      1.2722146      0.67623847   
     24700  -4059.4038     -4103.9625      44.558632      20304.675      399.44447      6777.6972      1.271169       0.67623847   
     24800  -4061.4024     -4104.6043      43.201931      18474.104      387.28237      6768.1323      1.2729655      0.67623847   
     24900  -4062.0269     -4105.8713      43.844385      17649.869      393.04162      6741.0658      1.2780766      0.67623847   
     25000  -4061.0005     -4104.7257      43.725261      20307.678      391.97374      6699.0548      1.2860917      0.66570797   
     25100  -4060.435      -4105.4006      44.965525      19761.325      403.09206      6654.5741      1.2946882      0.66570797   
     25200  -4057.1167     -4103.7032      46.586475      16303.257      417.62301      6614.9503      1.3024434      0.66570797   
     25300  -4056.2325     -4101.739       45.50645       18111.947      407.94116      6588.1567      1.3077404      0.66570797   
     25400  -4055.8829     -4101.9504      46.06744       19328.912      412.97013      6575.0701      1.3103432      0.66570797   
     25500  -4055.5183     -4100.544       45.025704      25262.133      403.63152      6576.6027      1.3100379      0.66570797   
     25600  -4054.651      -4102.2985      47.647425      16884.043      427.13386      6592.0279      1.3069724      0.66570797   
     25700  -4054.4067     -4101.6326      47.225879      21379.015      423.35493      6619.7892      1.3014914      0.66570797   
     25800  -4056.3133     -4101.2834      44.970102      19979.784      403.13308      6657.6021      1.2940994      0.66570797   
     25900  -4055.0984     -4102.4338      47.335332      18166.968      424.33612      6695.4931      1.2867758      0.66570797   
     26000  -4057.1765     -4102.4729      45.296357      18086.367      406.05778      6726.4056      1.2808622      0.68330934   
     26100  -4056.096      -4102.3836      46.287539      20344.169      414.94321      6744.087       1.2775041      0.68330934   
     26200  -4056.7778     -4102.1973      45.419482      18674.583      407.16154      6747.4614      1.2768652      0.68330934   
     26300  -4056.7481     -4102.866       46.117894      13372.286      413.42242      6735.1695      1.2791955      0.68330934   
     26400  -4056.4943     -4101.3584      44.86415       19607.623      402.18327      6705.4713      1.284861       0.68330934   
     26500  -4056.7533     -4102.3911      45.63777       22979.516      409.11837      6667.3655      1.2922043      0.68330934   
     26600  -4056.4281     -4100.8199      44.391747      18739.937      397.94844      6630.1017      1.299467       0.68330934   
     26700  -4055.1896     -4099.8265      44.636885      22434.216      400.14596      6601.7067      1.3050562      0.68330934   
     26800  -4054.0773     -4099.3403      45.262959      24027.26       405.75839      6586.2166      1.3081256      0.68330934   
     26900  -4054.3389     -4101.1481      46.809143      23015.535      419.61911      6587.3632      1.3078979      0.68330934   
     27000  -4052.9234     -4099.1315      46.208081      25179.759      414.23091      6603.5926      1.3046835      0.69736302   
     27100  -4055.8029     -4101.9544      46.151406      22702.747      413.72285      6631.1878      1.2992542      0.69736302   
     27200  -4053.9896     -4102.0449      48.05525       19072.315      430.78979      6660.7372      1.2934902      0.69736302   
     27300  -4053.6437     -4100.0179      46.3742        22993.551      415.72008      6688.4873      1.2881236      0.69736302   
     27400  -4054.0926     -4101.4851      47.39258       18194.533      424.84931      6716.4374      1.2827632      0.69736302   
     27500  -4054.8708     -4101.4497      46.578893      18813.653      417.55503      6737.3461      1.2787823      0.69736302   
     27600  -4054.6576     -4098.9194      44.261801      19904.808      396.78354      6748.9776      1.2765783      0.69736302   
     27700  -4055.3271     -4101.852       46.524814      18243.46       417.07025      6745.0927      1.2773136      0.69736302   
     27800  -4056.0035     -4104.1724      48.168893      21631.319      431.80854      6721.5409      1.2817892      0.69736302   
     27900  -4056.5537     -4102.1744      45.620736      23278.213      408.96567      6684.6163      1.2888696      0.69736302   
     28000  -4056.7951     -4101.5307      44.73557       18784.623      401.03063      6642.9041      1.2969627      0.70261568   
     28100  -4055.0787     -4099.4736      44.394925      26234.712      397.97693      6604.7836      1.3044483      0.70261568   
     28200  -4055.7635     -4100.2602      44.496681      22354.829      398.88911      6581.0613      1.3091503      0.70261568   
     28300  -4055.1524     -4100.4824      45.330042      22985.037      406.35975      6572.8709      1.3107817      0.70261568   
     28400  -4056.9114     -4102.3565      45.445106      22524.337      407.39124      6580.8836      1.3091857      0.70261568   
     28500  -4058.1126     -4102.75        44.637403      21342.275      400.15062      6604.7753      1.3044499      0.70261568   
     28600  -4058.0464     -4102.407       44.360585      17615.139      397.66909      6643.3622      1.2968732      0.70261568   
     28700  -4057.333      -4102.16        44.82693       23174.64       401.84962      6685.1267      1.2887712      0.70261568   
     28800  -4058.6602     -4102.2337      43.573521      16141.053      390.61347      6719.5767      1.2821639      0.70261568   
     28900  -4058.1852     -4101.4734      43.288141      21172.46       388.0552       6739.0824      1.2784528      0.70261568   
     29000  -4059.094      -4104.3315      45.237528      18272.009      405.53041      6750.278       1.2763324      0.70068965   
     29100  -4059.9138     -4102.9264      43.012628      16240.876      385.58537      6747.9274      1.276777       0.70068965   
     29200  -4057.5494     -4100.5231      42.973684      18010.375      385.23626      6728.0068      1.2805574      0.70068965   
     29300  -4057.343      -4101.5094      44.166315      19753.651      395.92756      6697.1853      1.2864507      0.70068965   
     29400  -4057.1916     -4101.075       43.883381      22105.228      393.3912       6663.605       1.2929336      0.70068965   
     29500  -4055.8186     -4103.4633      47.644734      22017.481      427.10974      6636.6787      1.2981792      0.70068965   
     29600  -4055.9605     -4100.826       44.865473      18985.092      402.19514      6616.6081      1.3021171      0.70068965   
     29700  -4055.1266     -4101.1621      46.035526      22244.042      412.68405      6610.3778      1.3033444      0.70068965   
     29800  -4057.0458     -4102.8617      45.815961      21025.879      410.71576      6618.4303      1.3017586      0.70068965   
     29900  -4057.3702     -4102.9462      45.576063      23581.458      408.5652       6642.1861      1.2971029      0.70068965   
     30000  -4059.2925     -4103.7269      44.434459      19719.916      398.33133      6683.5003      1.2890848      0.70344694   
     30100  -4058.347      -4103.0836      44.736567      17307.508      401.03956      6729.3303      1.2803055      0.70344694   
     30200  -4057.6291     -4101.1186      43.489418      18161.877      389.85954      6765.2043      1.2735164      0.70344694   
     30300  -4057.4806     -4102.6857      45.205109      18986.787      405.23979      6788.165       1.2692088      0.70344694   
     30400  -4057.6635     -4101.65        43.986433      16222.77       394.31501      6796.4013      1.2676707      0.70344694   
     30500  -4057.7436     -4102.2424      44.498837      20771.834      398.90844      6785.6043      1.2696877      0.70344694   
     30600  -4057.7289     -4103.2422      45.513345      17317.499      408.00297      6760.5559      1.274392       0.70344694   
     30700  -4058.8944     -4102.4018      43.507371      20593.813      390.02047      6726.1313      1.2809144      0.70344694   
     30800  -4059.4114     -4102.8707      43.459241      21267.69       389.58901      6686.1097      1.2885817      0.70344694   
     30900  -4059.8319     -4102.9496      43.117776      17366.68       386.52796      6645.929       1.2963724      0.70344694   
     31000  -4058.791      -4101.7572      42.966212      24007.992      385.16927      6611.8702      1.3030502      0.70221681   
     31100  -4059.5484     -4103.8134      44.265051      25567.68       396.81268      6591.7391      1.3070297      0.70221681   
     31200  -4059.0539     -4103.309       44.255085      23448.551      396.72333      6592.1226      1.3069536      0.70221681   
     31300  -4059.7111     -4103.0248      43.313687      19748.662      388.2842       6611.2132      1.3031797      0.70221681   
     31400  -4060.2318     -4105.6331      45.401268      19196.713      406.99825      6638.8364      1.2977573      0.70221681   
     31500  -4060.9476     -4105.8203      44.872667      24300.544      402.25963      6666.1429      1.2924413      0.70221681   
     31600  -4060.911      -4104.1347      43.223736      17456.021      387.47784      6689.9887      1.2878346      0.70221681   
     31700  -4060.8967     -4104.6779      43.781197      22090.261      392.47518      6706.9559      1.2845766      0.70221681   
     31800  -4061.9768     -4104.1989      42.22208       20449.005      378.49852      6720.3402      1.2820182      0.70221681   
     31900  -4059.963      -4103.7792      43.816238      15315.872      392.78931      6728.356       1.2804909      0.70221681   
     32000  -4060.7057     -4103.8925      43.186808      14581.296      387.1468       6727.1227      1.2807257      0.78606945   
     32100  -4059.0126     -4103.044       44.03133       14634.966      394.71749      6716.1061      1.2828265      0.78606945   
     32200  -4061.6481     -4106.2463      44.598207      20867.038      399.79924      6700.3262      1.2858476      0.78606945   
     32300  -4061.1759     -4105.8328      44.656876      24313.564      400.32518      6679.9011      1.2897794      0.78606945   
     32400  -4060.1014     -4106.4901      46.388727      20532.518      415.8503       6661.3385      1.2933735      0.78606945   
     32500  -4059.273      -4103.9108      44.637816      19391.369      400.15431      6650.2176      1.2955363      0.78606945   
     32600  -4056.9421     -4104.851       47.908924      20674.006      429.47806      6642.4033      1.2970605      0.78606945   
     32700  -4059.3044     -4103.8114      44.506927      18967.203      398.98096      6636.5837      1.2981978      0.78606945   
     32800  -4061.6079     -4104.7464      43.138491      21543.845      386.71366      6631.1899      1.2992538      0.78606945   
     32900  -4061.5174     -4104.9205      43.403025      15001.904      389.08507      6621.8849      1.3010795      0.78606945   
     33000  -4061.6074     -4105.8617      44.254289      20951.449      396.7162       6613.5317      1.3027228      0.71270891   
     33100  -4061.1634     -4104.986       43.822581      19089.85       392.84617      6608.6159      1.3036918      0.71270891   
     33200  -4061.594      -4104.5575      42.963484      18051.893      385.14482      6604.6892      1.3044669      0.71270891   
     33300  -4059.7656     -4105.0329      45.267234      20096.339      405.79671      6602.3948      1.3049202      0.71270891   
     33400  -4058.9743     -4103.726       44.751674      16766.978      401.17499      6602.4015      1.3049189      0.71270891   
     33500  -4058.5568     -4103.5352      44.978388      23068.137      403.20736      6606.2593      1.3041569      0.71270891   
     33600  -4058.2941     -4102.9815      44.687348      18424.435      400.59834      6618.515       1.301742       0.71270891   
     33700  -4058.8883     -4105.3925      46.504219      18540.368      416.88563      6637.113       1.2980943      0.71270891   
     33800  -4060.5565     -4105.6364      45.079862      17390.261      404.11702      6654.8688      1.2946309      0.71270891   
     33900  -4059.6481     -4103.9906      44.342559      17632.914      397.5075       6668.8279      1.291921       0.71270891   
     34000  -4060.8965     -4104.7168      43.820325      17841.653      392.82595      6677.5679      1.29023        0.70510405   
     34100  -4059.9482     -4104.2119      44.263717      18707.829      396.80072      6675.2607      1.290676       0.70510405   
     34200  -4060.7051     -4103.8603      43.155162      19844.846      386.86311      6663.0351      1.2930441      0.70510405   
     34300  -4058.6643     -4105.031       46.366685      16654.941      415.65271      6644.0155      1.2967457      0.70510405   
     34400  -4059.1036     -4104.4814      45.377823      18256.78       406.78808      6620.2744      1.301396       0.70510405   
     34500  -4058.0648     -4102.2311      44.166316      17431.488      395.92757      6603.2593      1.3047494      0.70510405   
     34600  -4058.1479     -4103.8312      45.683356      22539.293      409.52702      6593.0359      1.3067726      0.70510405   
     34700  -4058.2492     -4102.9925      44.743343      24149.183      401.10031      6588.2729      1.3077173      0.70510405   
     34800  -4060.0542     -4105.3765      45.322253      21061.772      406.28993      6592.1215      1.3069539      0.70510405   
     34900  -4061.5863     -4104.7474      43.161093      21635.629      386.91628      6604.1022      1.3045829      0.70510405   
     35000  -4062.9954     -4105.7395      42.744054      19571.66       383.17774      6621.6883      1.3011181      0.67489289   
     35100  -4060.9679     -4105.6868      44.718889      18486.209      400.88109      6640.3727      1.2974571      0.67489289   
     35200  -4063.144      -4105.3         42.156072      19865.782      377.9068       6660.6888      1.2934996      0.67489289   
     35300  -4062.0933     -4105.123       43.029671      13783.205      385.73815      6675.1306      1.2907011      0.67489289   
     35400  -4059.8979     -4102.8346      42.93677       19082.53       384.90534      6675.6642      1.290598       0.67489289   
     35500  -4059.3856     -4104.4901      45.104564      21590.752      404.33846      6666.3039      1.2924101      0.67489289   
     35600  -4058.2992     -4104.9212      46.622079      20710.016      417.94218      6652.2271      1.295145       0.67489289   
     35700  -4058.3407     -4103.5729      45.232144      22207.866      405.48215      6639.1058      1.2977047      0.67489289   
     35800  -4059.875      -4103.1471      43.27211       21519.395      387.91148      6631.0853      1.2992743      0.67489289   
     35900  -4059.2465     -4103.5286      44.282096      16738.696      396.96547      6624.8297      1.3005011      0.67489289   
     36000  -4060.865      -4103.9714      43.106438      22516.739      386.42632      6623.4394      1.3007741      0.70925753   
     36100  -4060.852      -4104.4537      43.601672      16260.358      390.86583      6629.2502      1.299634       0.70925753   
     36200  -4060.832      -4105.1108      44.278784      18816.132      396.93578      6638.4892      1.2978252      0.70925753   
     36300  -4056.4683     -4101.9643      45.496003      21326.058      407.8475       6648.3784      1.2958947      0.70925753   
     36400  -4057.5579     -4103.4941      45.936227      19785.668      411.79388      6662.7467      1.2931001      0.70925753   
     36500  -4056.6335     -4101.6012      44.967797      18705.156      403.11242      6680.8369      1.2895987      0.70925753   
     36600  -4057.0736     -4103.5726      46.499001      16841.302      416.83885      6702.9038      1.2853532      0.70925753   
     36700  -4058.0118     -4103.2109      45.199148      20635.918      405.18635      6721.5059      1.2817959      0.70925753   
     36800  -4059.3475     -4103.6598      44.312281      17123.043      397.23607      6737.8238      1.2786916      0.70925753   
     36900  -4059.7202     -4104.6365      44.91635       18683.837      402.65123      6752.4554      1.2759208      0.70925753   
     37000  -4058.4922     -4103.8268      45.334622      23336.021      406.40081      6763.7043      1.2737988      0.73331883   
     37100  -4058.6185     -4102.8775      44.259017      15831.968      396.75858      6780.0409      1.2707296      0.73331883   
     37200  -4058.7562     -4102.0488      43.292596      20884.665      388.09513      6792.6443      1.2683718      0.73331883   
     37300  -4059.1997     -4102.7278      43.52808       14376.677      390.20612      6795.8237      1.2677784      0.73331883   
     37400  -4058.0843     -4102.1098      44.025549      26790.473      394.66567      6789.0834      1.2690371      0.73331883   
     37500  -4058.8387     -4104.52        45.681237      15120.7        409.50803      6772.7156      1.272104       0.73331883   
     37600  -4057.0003     -4100.2522      43.251906      16664.918      387.73037      6746.4487      1.2770569      0.73331883   
     37700  -4058.004      -4102.4042      44.40026       19779.07       398.02475      6713.7142      1.2832835      0.73331883   
     37800  -4056.5807     -4100.7623      44.181597      22158.861      396.06455      6683.378       1.2891084      0.73331883   
     37900  -4056.7765     -4101.75        44.973437      19874.318      403.16298      6658.9574      1.293836       0.73331883   
     38000  -4056.5396     -4101.5913      45.051639      20414.553      403.86402      6637.6739      1.2979846      0.71875835   
     38100  -4057.2065     -4102.6059      45.399367      16409.485      406.98121      6622.916       1.3008769      0.71875835   
     38200  -4056.3237     -4102.5026      46.17888       17727.328      413.96914      6609.341       1.3035488      0.71875835   
     38300  -4054.8095     -4101.8104      47.000968      21494.937      421.33871      6600.2073      1.3053527      0.71875835   
     38400  -4057.5881     -4102.839       45.250907      21111.84       405.65035      6600.5008      1.3052947      0.71875835   
     38500  -4057.6539     -4103.6443      45.990366      23530.381      412.27921      6612.323       1.3029609      0.71875835   
     38600  -4057.4299     -4102.9652      45.535303      22140.61       408.19981      6632.7052      1.298957       0.71875835   
     38700  -4058.2726     -4103.882       45.609356      15092.656      408.86366      6660.58        1.2935208      0.71875835   
     38800  -4060.1883     -4103.7824      43.594141      13693.929      390.79832      6693.0658      1.2872425      0.71875835   
     38900  -4059.0827     -4102.9329      43.850122      19185.019      393.09306      6717.9048      1.282483       0.71875835   
     39000  -4058.607      -4103.5679      44.960874      17818.805      403.05036      6727.8687      1.2805836      0.70127366   
     39100  -4060.1151     -4106.6136      46.49849       19336.211      416.83427      6720.9998      1.2818924      0.70127366   
     39200  -4059.5248     -4105.51        45.98525       18896.209      412.23334      6700.5425      1.2858061      0.70127366   
     39300  -4058.4181     -4104.1688      45.75077       20321.759      410.13136      6674.0927      1.2909018      0.70127366   
     39400  -4058.0975     -4103.6879      45.590425      22005.629      408.69395      6649.1421      1.2957459      0.70127366   
     39500  -4055.9255     -4101.5404      45.614996      25364.303      408.91421      6626.7542      1.3001235      0.70127366   
     39600  -4054.3739     -4100.4382      46.064337      19492.739      412.94232      6609.2614      1.3035645      0.70127366   
     39700  -4056.0313     -4100.764       44.732744      17446.978      401.00529      6604.3304      1.3045378      0.70127366   
     39800  -4055.8099     -4101.2417      45.431745      23019.938      407.27147      6613.3838      1.3027519      0.70127366   
     39900  -4058.2462     -4104.2788      46.03255       24509.762      412.65737      6636.2562      1.2982619      0.70127366   
     40000  -4058.0243     -4102.278       44.253676      19187.352      396.71071      6668.7227      1.2919414      0.70934898   
     40100  -4058.6877     -4103.9145      45.22679       19794.26       405.43416      6700.7793      1.2857607      0.70934898   
     40200  -4057.7681     -4101.4955      43.727383      17175.908      391.99276      6725.1637      1.2810987      0.70934898   
     40300  -4057.9311     -4103.8836      45.952516      16921.875      411.9399       6739.2045      1.2784296      0.70934898   
     40400  -4056.7311     -4102.6532      45.922084      16933.86       411.66709      6740.8839      1.2781111      0.70934898   
     40500  -4055.7393     -4102.6735      46.934118      19884.085      420.73944      6730.9316      1.2800009      0.70934898   
     40600  -4054.9394     -4102.3117      47.372254      22829.23       424.6671       6712.7118      1.2834751      0.70934898   
     40700  -4056.0967     -4102.9309      46.834201      24294.021      419.84374      6690.2521      1.2877838      0.70934898   
     40800  -4054.7871     -4102.4481      47.661022      24936.817      427.25575      6664.1691      1.2928241      0.70934898   
     40900  -4056.4991     -4102.0813      45.582236      22370.951      408.62054      6639.906       1.2975483      0.70934898   
     41000  -4056.9611     -4102.9854      46.024353      24235.189      412.58388      6626.2093      1.3002304      0.6601643    
     41100  -4058.7829     -4103.0856      44.302719      21723.012      397.15035      6631.4423      1.2992043      0.6601643    
     41200  -4060.9416     -4103.9371      42.995455      23245.424      385.43142      6654.8108      1.2946422      0.6601643    
     41300  -4060.8834     -4104.9886      44.1052        23867.569      395.3797       6688.6146      1.2880991      0.6601643    
     41400  -4061.6976     -4107.292       45.594442      13662.297      408.72996      6720.264       1.2820328      0.6601643    
     41500  -4061.0944     -4103.7286      42.634225      16981.244      382.19318      6738.7877      1.2785087      0.6601643    
     41600  -4061.1462     -4105.1386      43.992454      20421.329      394.36898      6745.0232      1.2773268      0.6601643    
     41700  -4061.018      -4105.505       44.486985      16455.246      398.80219      6738.0034      1.2786575      0.6601643    
     41800  -4058.6185     -4103.8475      45.228946      21916.421      405.45348      6718.5457      1.2823606      0.6601643    
     41900  -4058.404      -4104.584       46.180017      17848.4        413.97932      6696.842       1.2865166      0.6601643    
     42000  -4059.4509     -4104.6803      45.229374      17722.692      405.45732      6679.5167      1.2898536      0.78179755   
     42100  -4059.4475     -4104.3936      44.946017      20457.94       402.91717      6667.6768      1.292144       0.78179755   
     42200  -4060.7126     -4102.7503      42.03767       19193.547      376.84538      6661.7277      1.2932979      0.78179755   
     42300  -4059.3069     -4102.836       43.529122      25063.693      390.21546      6655.4647      1.294515       0.78179755   
     42400  -4059.5217     -4103.3119      43.790156      19976.543      392.55549      6649.0506      1.2957637      0.78179755   
     42500  -4060.4776     -4103.6681      43.190474      18578.467      387.17966      6644.4114      1.2966685      0.78179755   
     42600  -4059.6799     -4105.2701      45.590154      24438.14       408.69152      6642.5894      1.2970241      0.78179755   
     42700  -4060.6114     -4103.1943      42.582932      21322.494      381.73337      6647.8076      1.296006       0.78179755   
     42800  -4058.4303     -4103.5172      45.086827      16713.245      404.17945      6657.5096      1.2941173      0.78179755   
     42900  -4058.164      -4104.8225      46.658573      14875.167      418.26932      6669.8584      1.2917214      0.78179755   
     43000  -4060.1629     -4104.2242      44.061385      20599.701      394.98692      6682.4906      1.2892796      0.72888107   
     43100  -4059.5412     -4103.6764      44.135255      17959.192      395.64912      6696.1391      1.2866517      0.72888107   
     43200  -4059.418      -4103.7926      44.374588      18137.836      397.79461      6709.3571      1.2841169      0.72888107   
     43300  -4059.4553     -4104.2407      44.785319      18940.223      401.4766       6715.7897      1.2828869      0.72888107   
     43400  -4058.3925     -4103.5595      45.166965      20862.791      404.89785      6713.7265      1.2832811      0.72888107   
     43500  -4059.8552     -4104.2341      44.378866      18483.88       397.83297      6705.7456      1.2848084      0.72888107   
     43600  -4058.7168     -4102.5533      43.83649       26303.773      392.97085      6693.3681      1.2871843      0.72888107   
     43700  -4057.7274     -4103.0698      45.342398      22446.837      406.47051      6684.5293      1.2888863      0.72888107   
     43800  -4059.5194     -4103.2778      43.758396      23019.832      392.27078      6689.289       1.2879693      0.72888107   
     43900  -4058.9878     -4102.0537      43.065942      18486.917      386.0633       6701.292       1.2856623      0.72888107   
     44000  -4058.7237     -4102.8452      44.121527      15726.528      395.52605      6708.3923      1.2843015      0.68895077   
     44100  -4059.8797     -4103.706       43.826262      19215.893      392.87916      6705.9895      1.2847617      0.68895077   
     44200  -4057.5366     -4102.4074      44.870844      22016.87       402.24329      6695.438       1.2867864      0.68895077   
     44300  -4056.7212     -4103.5254      46.804248      18368.784      419.57523      6682.8199      1.289216       0.68895077   
     44400  -4057.2113     -4103.5795      46.368253      24300.348      415.66676      6672.6373      1.2911834      0.68895077   
     44500  -4056.1601     -4101.1357      44.975675      19448.957      403.18304      6668.3053      1.2920222      0.68895077   
     44600  -4055.5891     -4100.6911      45.102036      24583.268      404.3158       6670.5504      1.2915874      0.68895077   
     44700  -4057.1966     -4102.1582      44.961555      21505.313      403.05646      6673.8829      1.2909424      0.68895077   
     44800  -4056.3997     -4100.3712      43.971443      25039.718      394.18064      6672.508       1.2912084      0.68895077   
     44900  -4058.3792     -4103.5572      45.177934      17979.883      404.99619      6669.4415      1.2918021      0.68895077   
     45000  -4057.1856     -4102.8602      45.674565      20270.886      409.44822      6659.3166      1.2937662      0.69911382   
     45100  -4055.5292     -4101.4064      45.877222      17115.265      411.26493      6645.6222      1.2964322      0.69911382   
     45200  -4055.8283     -4102.1085      46.280146      21475.692      414.87693      6633.3306      1.2988345      0.69911382   
     45300  -4055.6205     -4100.7226      45.102104      15178.445      404.31641      6628.8354      1.2997153      0.69911382   
     45400  -4055.9497     -4101.4519      45.502223      24094.776      407.90326      6631.5633      1.2991806      0.69911382   
     45500  -4056.3613     -4102.8954      46.534151      22412.67       417.15395      6642.8266      1.2969778      0.69911382   
     45600  -4058.422      -4103.9257      45.50367       16135.251      407.91623      6656.1005      1.2943913      0.69911382   
     45700  -4057.3834     -4103.0959      45.712478      22729.998      409.78808      6666.1803      1.2924341      0.69911382   
     45800  -4057.9201     -4103.4562      45.53607       19832.119      408.20668      6673.39        1.2910378      0.69911382   
     45900  -4059.2238     -4104.376       45.152256      15918.717      404.76599      6677.2229      1.2902967      0.69911382   
     46000  -4060.7697     -4104.5279      43.758242      20386.908      392.2694       6675.0386      1.2907189      0.69856835   
     46100  -4061.317      -4104.8211      43.504178      17052.211      389.99185      6667.8062      1.2921189      0.69856835   
     46200  -4061.6656     -4105.0629      43.397289      14049.545      389.03365      6654.6882      1.294666       0.69856835   
     46300  -4063.1091     -4105.2966      42.187477      17349.029      378.18833      6632.7929      1.2989398      0.69856835   
     46400  -4061.0082     -4107.0231      46.014951      19626.061      412.4996       6606.2645      1.3041559      0.69856835   
     46500  -4060.4406     -4104.1566      43.716029      22423.313      391.89098      6583.2316      1.3087188      0.69856835   
     46600  -4060.8685     -4104.0645      43.19597       24899.549      387.22893      6569.0165      1.3115508      0.69856835   
     46700  -4059.6233     -4104.8302      45.206917      24012.788      405.256        6568.5355      1.3116468      0.69856835   
     46800  -4059.5258     -4103.4644      43.938643      20818.159      393.8866       6580.052       1.3093511      0.69856835   
     46900  -4061.2466     -4103.1168      41.870135      19098.853      375.34352      6595.8693      1.3062112      0.69856835   
     47000  -4061.8092     -4105.3742      43.564978      19057.398      390.53689      6617.2209      1.3019965      0.75569135   
     47100  -4061.1562     -4105.9232      44.766999      22126.203      401.31237      6641.7799      1.2971822      0.75569135   
     47200  -4060.2352     -4104.1562      43.921032      15996.542      393.72873      6666.7249      1.2923285      0.75569135   
     47300  -4060.7692     -4102.5401      41.770912      18695.942      374.45404      6688.4811      1.2881248      0.75569135   
     47400  -4061.5837     -4103.8589      42.275212      23630.373      378.97483      6703.1595      1.2853041      0.75569135   
     47500  -4062.9942     -4104.4658      41.471653      15826.196      371.77134      6707.5764      1.2844578      0.75569135   
     47600  -4059.7227     -4104.3245      44.601874      18421.833      399.83212      6700.1939      1.285873       0.75569135   
     47700  -4059.0757     -4102.8086      43.732968      18140.62       392.04283      6685.3196      1.288734       0.75569135   
     47800  -4057.8897     -4102.4028      44.513097      22809.114      399.03628      6666.5947      1.2923537      0.75569135   
     47900  -4056.6165     -4103.1347      46.518241      23589.35       417.01133      6648.0132      1.2959659      0.75569135   
     48000  -4055.9566     -4101.5635      45.606937      20012.206      408.84197      6634.5606      1.2985937      0.70007973   
     48100  -4057.0714     -4101.7587      44.68725       23239.785      400.59746      6628.0703      1.2998653      0.70007973   
     48200  -4056.9782     -4101.4005      44.422299      24915.895      398.22232      6627.7282      1.2999324      0.70007973   
     48300  -4056.1173     -4100.2112      44.093854      23321.006      395.27798      6633.4223      1.2988165      0.70007973   
     48400  -4057.1075     -4102.1641      45.056528      17035.414      403.90785      6647.3269      1.2960997      0.70007973   
     48500  -4056.4712     -4102.7088      46.237543      17713.987      414.49501      6667.4437      1.2921892      0.70007973   
     48600  -4058.0762     -4102.0035      43.927239      19231.533      393.78437      6689.5082      1.2879271      0.70007973   
     48700  -4057.4032     -4101.7581      44.354888      19257.326      397.61802      6711.4854      1.2837097      0.70007973   
     48800  -4056.4419     -4100.5424      44.10047       18480.649      395.33729      6731.5154      1.2798899      0.70007973   
     48900  -4056.1568     -4100.2363      44.079497      20883.01       395.14928      6747.2147      1.2769119      0.70007973   
     49000  -4056.6976     -4101.5866      44.888954      17009.468      402.40563      6752.6725      1.2758798      0.62576506   
     49100  -4056.4008     -4100.1993      43.798435      16835.829      392.62971      6744.5898      1.2774088      0.62576506   
     49200  -4055.7678     -4101.5891      45.821307      18056.686      410.76369      6727.4845      1.2806568      0.62576506   
     49300  -4057.0084     -4099.7983      42.789981      19235.759      383.58945      6703.3595      1.2852658      0.62576506   
     49400  -4056.7284     -4103.0898      46.361443      24185.352      415.60572      6674.831       1.2907591      0.62576506   
     49500  -4058.0171     -4102.8559      44.838835      15933.079      401.95634      6645.5955      1.2964374      0.62576506   
     49600  -4059.407      -4103.5432      44.136141      23567.641      395.65707      6618.2697      1.3017902      0.62576506   
     49700  -4058.6773     -4103.1975      44.520227      23731.529      399.10019      6597.9045      1.3058083      0.62576506   
     49800  -4057.4584     -4103.515       46.056523      21998.137      412.87227      6593.1593      1.3067481      0.62576506   
     49900  -4056.6669     -4104.3132      47.646324      21612.534      427.12399      6605.9165      1.3042246      0.62576506   
     50000  -4056.7505     -4103.9584      47.207886      19194.165      423.19363      6635.1672      1.298475       0.72034261   
     50100  -4058.9328     -4104.1972      45.264357      22069.925      405.77092      6677.3467      1.2902728      0.72034261   
     50200  -4060.7936     -4104.173       43.379452      15000.453      388.87374      6725.5982      1.2810159      0.72034261   
     50300  -4060.9039     -4104.1742      43.270298      14489.059      387.89524      6767.3445      1.2731136      0.72034261   
     50400  -4062.7542     -4107.6374      44.883177      16952.673      402.35384      6788.1683      1.2692082      0.72034261   
     50500  -4062.7833     -4106.0633      43.27997       17268.141      387.98194      6784.6021      1.2698753      0.72034261   
     50600  -4062.1154     -4105.8899      43.774448      19853.985      392.41468      6757.5395      1.2749609      0.72034261   
     50700  -4061.1738     -4103.8203      42.646559      15134.58       382.30375      6710.7888      1.2838429      0.72034261   
     50800  -4060.5255     -4104.5882      44.062726      20920.403      394.99894      6649.6279      1.2956512      0.72034261   
     50900  -4058.7212     -4102.4943      43.773111      25885.825      392.40269      6588.4717      1.3076779      0.72034261   
     51000  -4058.131      -4104.2278      46.096839      28078.586      413.23368      6549.2717      1.3155048      0.64305251   
     51100  -4058.0031     -4103.4749      45.47185       23812.831      407.63098      6537.2925      1.3179154      0.64305251   
     51200  -4060.0581     -4103.7889      43.730828      21192.215      392.02365      6544.2093      1.3165225      0.64305251   
     51300  -4059.3233     -4104.5801      45.256864      25734.26       405.70375      6561.2881      1.3130956      0.64305251   
     51400  -4058.5091     -4104.2837      45.774544      23444.322      410.34447      6586.7443      1.3080208      0.64305251   
     51500  -4057.0385     -4101.2459      44.207342      21310.086      396.29534      6616.8314      1.3020732      0.64305251   
     51600  -4055.9204     -4101.3932      45.472833      16265.701      407.6398       6647.9372      1.2959808      0.64305251   
     51700  -4057.3179     -4101.6034      44.28548       19964.874      396.9958       6675.4978      1.2906301      0.64305251   
     51800  -4056.9428     -4103.0354      46.092628      18833.536      413.19593      6694.5904      1.2869493      0.64305251   
     51900  -4057.4839     -4102.5833      45.099454      22027.717      404.29266      6710.8698      1.2838274      0.64305251   
     52000  -4058.622      -4102.957       44.335069      18864.192      397.44035      6726.1492      1.280911       0.70211894   
     52100  -4056.9825     -4100.7711      43.788572      18875.242      392.54129      6734.2414      1.2793718      0.70211894   
     52200  -4057.6698     -4103.6502      45.980408      17005.398      412.18994      6734.6771      1.279289       0.70211894   
     52300  -4059.7871     -4104.1472      44.360099      17490.541      397.66473      6721.2253      1.2818494      0.70211894   
     52400  -4058.371      -4104.5506      46.179599      21213.358      413.97558      6697.4077      1.286408       0.70211894   
     52500  -4058.2469     -4104.3318      46.084916      23587.727      413.1268       6671.8465      1.2913364      0.70211894   
     52600  -4059.4161     -4102.5885      43.172368      23190.381      387.01735      6650.1844      1.2955428      0.70211894   
     52700  -4059.1545     -4103.3465      44.192067      20503.274      396.15841      6634.1212      1.2986797      0.70211894   
     52800  -4061.2735     -4104.6675      43.393997      23427.025      389.00414      6621.3739      1.3011799      0.70211894   
     52900  -4061.4136     -4105.4449      44.031278      18150.766      394.71703      6613.4034      1.3027481      0.70211894   
[...]
    207400  -4056.7422     -4101.836       45.09379       21203.02       404.24188      6740.1797      1.2782446      0.81493177   
    207500  -4055.0383     -4101.3513      46.312986      16050.011      415.17132      6719.4009      1.2821974      0.81493177   
    207600  -4054.8038     -4101.8164      47.01258       19736.098      421.44281      6695.1052      1.2868504      0.81493177   
    207700  -4054.6426     -4100.9308      46.288131      25954.49       414.94851      6673.2213      1.2910704      0.81493177   
    207800  -4057.5214     -4103.0749      45.553447      22180.34       408.36246      6660.509       1.2935346      0.81493177   
    207900  -4056.1665     -4102.4833      46.316855      16937.129      415.20601      6653.8485      1.2948294      0.81493177   
    208000  -4054.4104     -4100.5729      46.162467      18889.487      413.822        6650.4333      1.2954943      0.67635277   
    208100  -4054.4837     -4099.7547      45.270932      22848.651      405.82986      6651.0117      1.2953817      0.67635277   
    208200  -4053.0814     -4098.5924      45.510996      19289.518      407.98191      6657.4383      1.2941312      0.67635277   
    208300  -4052.02       -4098.5273      46.507352      20109.748      416.91371      6670.2745      1.2916408      0.67635277   
    208400  -4053.1366     -4100.7859      47.649309      18371.812      427.15075      6689.8644      1.2878585      0.67635277   
    208500  -4052.5264     -4099.9943      47.467908      20410.327      425.52458      6710.0519      1.2839839      0.67635277   
    208600  -4052.4241     -4100.5736      48.149431      15048.591      431.63407      6725.9114      1.2809563      0.67635277   
    208700  -4055.9045     -4099.9106      44.006081      18136.155      394.49115      6729.5636      1.2802611      0.67635277   
    208800  -4055.6227     -4102.1432      46.520523      19220.034      417.03178      6718.2938      1.2824087      0.67635277   
    208900  -4056.4664     -4101.8668      45.400483      16873.75       406.99122      6694.7731      1.2869142      0.67635277   
    209000  -4057.5506     -4102.6163      45.065657      18011.16       403.98968      6665.1383      1.2926361      0.70750785   
    209100  -4057.5614     -4102.3124      44.751014      26179.992      401.16907      6636.5553      1.2982034      0.70750785   
    209200  -4057.5964     -4103.8485      46.252067      21796.686      414.62521      6614.8075      1.3024716      0.70750785   
    209300  -4057.5188     -4103.2729      45.754065      21841.579      410.16089      6603.3563      1.3047302      0.70750785   
    209400  -4058.1928     -4103.0557      44.862907      19063.839      402.17214      6598.9534      1.3056008      0.70750785   
    209500  -4057.4028     -4104.0518      46.649073      26666.121      418.18416      6601.6316      1.3050711      0.70750785   
    209600  -4059.6441     -4103.6925      44.048436      19783.635      394.87084      6615.4224      1.3023505      0.70750785   
    209700  -4059.7888     -4103.8266      44.037751      19352.437      394.77505      6637.3192      1.298054       0.70750785   
    209800  -4060.7286     -4104.5488      43.820171      20784.357      392.82456      6656.7427      1.2942664      0.70750785   
    209900  -4059.1044     -4104.8433      45.738935      17333.028      410.02526      6669.2382      1.2918415      0.70750785   
    210000  -4059.1368     -4103.7191      44.582243      19331.333      399.65613      6674.4017      1.2908421      0.77053591   
    210100  -4059.8237     -4102.9962      43.172493      17425.316      387.01847      6672.8414      1.2911439      0.77053591   
    210200  -4060.3721     -4103.6909      43.318806      18989.499      388.33009      6668.875       1.2919118      0.77053591   
    210300  -4059.8526     -4103.5473      43.694686      20757.674      391.69965      6662.3759      1.2931721      0.77053591   
    210400  -4059.3804     -4104.1028      44.722368      17751.263      400.91228      6652.2263      1.2951452      0.77053591   
    210500  -4059.185      -4104.3295      45.144512      21263.882      404.69658      6636.5327      1.2982078      0.77053591   
    210600  -4058.8069     -4103.0251      44.218113      23004.843      396.3919       6619.7111      1.3015067      0.77053591   
    210700  -4058.7898     -4103.1779      44.388109      22039.499      397.91582      6607.0452      1.3040018      0.77053591   
    210800  -4059.6596     -4104.1491      44.489497      25700.722      398.82471      6602.5895      1.3048818      0.77053591   
    210900  -4060.9524     -4105.659       44.706675      20001.522      400.7716       6609.7074      1.3034765      0.77053591   
    211000  -4061.162      -4105.087       43.924982      23308.464      393.76414      6625.3207      1.3004048      0.76100912   
    211100  -4060.1395     -4103.292       43.152515      21176.188      386.83938      6645.3972      1.2964761      0.76100912   
    211200  -4057.9851     -4102.1636      44.1785        23008.399      396.03679      6670.8121      1.2915367      0.76100912   
    211300  -4058.6529     -4103.1876      44.53468       16531.801      399.22975      6700.4338      1.285827       0.76100912   
    211400  -4058.7648     -4102.8727      44.10789       19985.673      395.40381      6725.8771      1.2809628      0.76100912   
    211500  -4059.6972     -4103.2526      43.555439      18478.086      390.45138      6742.683       1.2777701      0.76100912   
    211600  -4056.9934     -4101.7535      44.760037      12953.277      401.24996      6749.1658      1.2765427      0.76100912   
    211700  -4056.6494     -4102.596       45.946536      14265.944      411.88629      6743.0363      1.2777031      0.76100912   
    211800  -4056.1592     -4102.7631      46.603904      19535.054      417.77925      6720.5554      1.2819772      0.76100912   
    211900  -4055.007      -4101.3186      46.311552      15116.731      415.15846      6691.2581      1.2875902      0.76100912   
    212000  -4057.3308     -4103.8054      46.474627      22083.051      416.62035      6662.8397      1.2930821      0.6995184    
    212100  -4058.0991     -4103.1512      45.052154      23951.482      403.86864      6634.6034      1.2985853      0.6995184    
    212200  -4058.743      -4104.1103      45.367254      21541.756      406.69334      6613.5745      1.3027144      0.6995184    
    212300  -4059.4352     -4103.2065      43.771263      23056.997      392.38612      6607.1924      1.3039727      0.6995184    
    212400  -4059.5425     -4104.0347      44.492246      24219.575      398.84935      6610.8797      1.3032454      0.6995184    
    212500  -4060.2643     -4103.8919      43.627644      22919.77       391.09866      6618.5187      1.3017412      0.6995184    
    212600  -4060.9117     -4105.3502      44.438506      21429.677      398.3676       6625.0178      1.3004642      0.6995184    
    212700  -4061.6972     -4105.7228      44.025581      23730.363      394.66595      6628.6253      1.2997565      0.6995184    
    212800  -4060.5686     -4103.8647      43.296104      24516.698      388.12657      6629.2581      1.2996324      0.6995184    
    212900  -4060.0061     -4104.2804      44.274283      22134.109      396.89544      6629.4107      1.2996025      0.6995184    
    213000  -4060.2536     -4104.4281      44.174536      23241.148      396.00126      6629.8225      1.2995217      0.73716488   
    213100  -4060.3945     -4105.8733      45.478845      19234.813      407.69369      6632.4566      1.2990057      0.73716488   
    213200  -4061.5187     -4104.4623      42.943618      26325.175      384.96673      6635.5326      1.2984035      0.73716488   
    213300  -4060.0485     -4104.4572      44.408667      20482.523      398.10011      6638.6953      1.2977849      0.73716488   
    213400  -4059.823      -4103.7134      43.890451      23900.272      393.45459      6646.0981      1.2963394      0.73716488   
    213500  -4059.2924     -4101.4711      42.178717      18899.117      378.1098       6653.3319      1.2949299      0.73716488   
    213600  -4059.7294     -4103.3751      43.645692      23327.518      391.26045      6656.6853      1.2942776      0.73716488   
    213700  -4059.114      -4103.8561      44.742145      22798.206      401.08957      6657.0077      1.2942149      0.73716488   
    213800  -4059.3095     -4103.1285      43.819002      19395.576      392.81408      6657.4922      1.2941207      0.73716488   
    213900  -4060.162      -4104.2343      44.072306      18070.211      395.08482      6659.0597      1.2938161      0.73716488   
    214000  -4058.7843     -4102.0334      43.249134      19526.009      387.70551      6660.9959      1.29344        0.67125875   
    214100  -4058.835      -4103.0287      44.193679      19612.712      396.17286      6659.0467      1.2938186      0.67125875   
    214200  -4057.1538     -4103.5024      46.348581      20006.713      415.49041      6647.7258      1.296022       0.67125875   
    214300  -4056.0857     -4101.9882      45.902559      21579.052      411.49206      6631.4701      1.2991989      0.67125875   
    214400  -4056.4884     -4101.9559      45.467518      19248.06       407.59215      6621.9505      1.3010666      0.67125875   
    214500  -4055.5431     -4101.5894      46.046295      18278.565      412.78058      6613.4059      1.3027476      0.67125875   
    214600  -4055.2313     -4100.7759      45.544601      20663.391      408.28316      6611.2341      1.3031756      0.67125875   
    214700  -4056.6888     -4101.0465      44.357754      18746.64       397.64371      6616.4994      1.3021385      0.67125875   
    214800  -4055.0044     -4104.0787      49.074263      20719.478      439.92471      6623.0977      1.3008412      0.67125875   
    214900  -4056.2683     -4102.2099      45.941657      18995.561      411.84256      6630.8239      1.2993255      0.67125875   
    215000  -4056.4549     -4101.6965      45.241654      21073.019      405.5674       6642.7862      1.2969857      0.64808795   
    215100  -4056.4499     -4101.0947      44.644796      13356.82       400.21689      6655.155       1.2945752      0.64808795   
    215200  -4055.9705     -4100.8479      44.877419      16387.647      402.30223      6662.8633      1.2930775      0.64808795   
    215300  -4057.1183     -4102.7669      45.648613      20980.625      409.21557      6664.3584      1.2927874      0.64808795   
    215400  -4056.3966     -4101.6254      45.22885       15882.002      405.45262      6656.8296      1.2942495      0.64808795   
    215500  -4055.1853     -4101.541       46.355689      21179.057      415.55413      6645.4052      1.2964745      0.64808795   
    215600  -4055.6886     -4100.0462      44.35752       17394.977      397.64161      6632.4701      1.299003       0.64808795   
    215700  -4056.7798     -4102.2014      45.421576      19968.703      407.18031      6620.4732      1.3013569      0.64808795   
    215800  -4055.9598     -4102.2764      46.316578      15830.926      415.20353      6608.0261      1.3038082      0.64808795   
    215900  -4059.0175     -4103.4239      44.406449      19121.125      398.08023      6597.5836      1.3058718      0.64808795   
    216000  -4060.4772     -4103.2208      42.743544      21707.141      383.17317      6588.7088      1.3076308      0.69093088   
    216100  -4059.5914     -4105.275       45.683621      18672.438      409.5294       6588.0625      1.3077591      0.69093088   
    216200  -4059.455      -4103.812       44.356934      16632.644      397.63636      6598.951       1.3056012      0.69093088   
    216300  -4058.9684     -4104.1287      45.1603        18471.678      404.83811      6613.7379      1.3026822      0.69093088   
    216400  -4058.2793     -4102.8347      44.555403      21050.013      399.41552      6627.1256      1.3000506      0.69093088   
    216500  -4058.6613     -4106.1037      47.442381      19056.125      425.29575      6641.9042      1.2971579      0.69093088   
    216600  -4060.4126     -4104.3129      43.900249      16238.738      393.54242      6655.3825      1.2945309      0.69093088   
    216700  -4060.3726     -4103.0438      42.671164      19132.363      382.52433      6661.9408      1.2932566      0.69093088   
    216800  -4059.575      -4102.1582      42.583171      20284.045      381.73552      6665.7442      1.2925186      0.69093088   
    216900  -4059.1399     -4102.1313      42.991428      16220.326      385.39532      6665.1491      1.292634       0.69093088   
    217000  -4060.1181     -4104.6232      44.505052      16992.891      398.96416      6656.9984      1.2942167      0.70834965   
    217100  -4059.9726     -4103.4158      43.44322       20480.977      389.44539      6640.0178      1.2975264      0.70834965   
    217200  -4058.9537     -4104.3759      45.422251      21705.054      407.18635      6622.3147      1.300995       0.70834965   
    217300  -4058.9562     -4104.7146      45.758341      21367.143      410.19922      6611.3453      1.3031536      0.70834965   
    217400  -4059.497      -4103.7827      44.285669      22510.214      396.9975       6607.4841      1.3039152      0.70834965   
    217500  -4059.2277     -4106.0396      46.811952      25054.071      419.64429      6613.286       1.3027712      0.70834965   
    217600  -4060.4535     -4105.2117      44.758147      22302.969      401.23302      6625.9606      1.3002792      0.70834965   
    217700  -4060.2323     -4105.7117      45.479442      22715.794      407.69905      6640.3099      1.2974694      0.70834965   
    217800  -4060.693      -4105.1738      44.480812      22372.917      398.74685      6652.2667      1.2951373      0.70834965   
    217900  -4061.5422     -4105.7854      44.243184      14882.208      396.61664      6661.7562      1.2932924      0.70834965   
    218000  -4060.962      -4105.3853      44.423379      19694.431      398.232        6663.9169      1.292873       0.65057868   
    218100  -4062.8551     -4105.3355      42.480446      21167.328      380.81464      6658.7495      1.2938764      0.65057868   
    218200  -4060.3756     -4106.326       45.950338      18523.689      411.92038      6648.9158      1.29579        0.65057868   
    218300  -4058.8481     -4104.6413      45.793162      21724.737      410.51138      6634.2801      1.2986486      0.65057868   
    218400  -4057.2598     -4103.3128      46.052924      16949.063      412.84         6617.7696      1.3018886      0.65057868   
    218500  -4057.2321     -4102.5189      45.286826      20491.845      405.97234      6601.849       1.3050281      0.65057868   
    218600  -4057.997      -4103.461       45.464004      19319.592      407.56065      6592.527       1.3068735      0.65057868   
    218700  -4057.9077     -4103.6615      45.753867      23991.804      410.15911      6589.9909      1.3073764      0.65057868   
    218800  -4057.9055     -4103.7929      45.887421      16845.73       411.35636      6595.2094      1.3063419      0.65057868   
    218900  -4056.8694     -4102.5193      45.649895      20494.3        409.22707      6607.2024      1.3039707      0.65057868   
    219000  -4057.8705     -4101.2115      43.341024      19477.88       388.52926      6621.0954      1.3012346      0.70130666   
    219100  -4059.4515     -4104.3263      44.874812      18176.92       402.27886      6634.7777      1.2985512      0.70130666   
    219200  -4060.0523     -4104.0884      44.036129      15344.897      394.76051      6644.1593      1.2967176      0.70130666   
    219300  -4060.4912     -4103.385       42.89385       16294.846      384.52058      6641.2363      1.2972884      0.70130666   
    219400  -4059.8236     -4101.6045      41.780834      25613.22       374.54298      6630.0686      1.2994735      0.70130666   
    219500  -4058.9333     -4103.4999      44.566586      18399.797      399.51577      6616.3393      1.30217        0.70130666   
    219600  -4060.3764     -4104.523       44.14661       21330.335      395.75092      6601.7394      1.3050498      0.70130666   
    219700  -4059.9398     -4104.7379      44.798113      19760.293      401.59129      6587.5993      1.307851       0.70130666   
    219800  -4059.9418     -4104.6842      44.742381      25089.294      401.09168      6573.8841      1.3105796      0.70130666   
    219900  -4059.9372     -4105.5371      45.599919      21175.696      408.77906      6563.7088      1.3126113      0.70130666   
    220000  -4059.5794     -4105.2826      45.703227      17859.155      409.70516      6561.384       1.3130764      0.68097228   
    220100  -4057.7902     -4104.5029      46.71266       24134.231      418.75418      6570.6734      1.31122        0.68097228   
    220200  -4055.2528     -4102.1337      46.880938      26575.325      420.26271      6590.9043      1.3071952      0.68097228   
    220300  -4055.1551     -4101.9051      46.749981      22693.266      419.08875      6619.0261      1.3016414      0.68097228   
    220400  -4057.9832     -4104.0149      46.031638      17631.666      412.64919      6651.6796      1.2952516      0.68097228   
    220500  -4058.5809     -4103.2655      44.684633      19819.918      400.57401      6678.7502      1.2900016      0.68097228   
    220600  -4056.0908     -4100.8579      44.767122      19053.125      401.31347      6694.3891      1.286988       0.68097228   
    220700  -4057.8704     -4101.9746      44.104238      19494.277      395.37107      6702.1578      1.2854962      0.68097228   
    220800  -4058.254      -4102.3656      44.11155       22288.977      395.43661      6699.927       1.2859243      0.68097228   
    220900  -4058.0538     -4103.0361      44.982355      19679.786      403.24292      6689.1946      1.2879874      0.68097228   
    221000  -4060.488      -4103.76        43.271954      16016.204      387.91009      6671.2446      1.291453       0.78803743   
    221100  -4060.8847     -4104.4732      43.588546      20650.287      390.74817      6649.5249      1.2956713      0.78803743   
    221200  -4060.2421     -4104.2553      44.013239      20169.116      394.55531      6630.2132      1.2994452      0.78803743   
    221300  -4059.8736     -4104.5377      44.664118      25334.556      400.39009      6614.4612      1.3025397      0.78803743   
    221400  -4058.8291     -4103.1156      44.286565      23434.645      397.00553      6601.9135      1.3050154      0.78803743   
    221461  -4057.4687     -4103.5965      46.127823      21163.077      413.51144      6597.603       1.305868       0.78803743   
Loop time of 674.126 on 1 procs for 200000 steps with 864 atoms

Performance: 12.817 ns/day, 1.873 hours/ns, 296.681 timesteps/s, 256.332 katom-step/s
99.7% CPU use with 1 MPI tasks x 1 OpenMP threads

MPI task timing breakdown:
Section |  min time  |  avg time  |  max time  |%varavg| %total
---------------------------------------------------------------
Pair    | 474.66     | 474.66     | 474.66     |   0.0 | 70.41
Neigh   | 8.3788     | 8.3788     | 8.3788     |   0.0 |  1.24
Comm    | 8.4013     | 8.4013     | 8.4013     |   0.0 |  1.25
Output  | 0.86316    | 0.86316    | 0.86316    |   0.0 |  0.13
Modify  | 177.29     | 177.29     | 177.29     |   0.0 | 26.30
Other   |            | 4.53       |            |       |  0.67

Nlocal:            864 ave         864 max         864 min
Histogram: 1 0 0 0 0 0 0 0 0 0
Nghost:           3349 ave        3349 max        3349 min
Histogram: 1 0 0 0 0 0 0 0 0 0
Neighs:              0 ave           0 max           0 min
Histogram: 1 0 0 0 0 0 0 0 0 0
FullNghs:       130968 ave      130968 max      130968 min
Histogram: 1 0 0 0 0 0 0 0 0 0

Total # of neighbors = 130968
Ave neighs/atom = 151.58333
Neighbor list builds = 20000
Dangerous builds = 20000

unfix		3
unfix		4
Total wall time: 0:12:29
