LAMMPS (7 Feb 2024 - Update 1)
KOKKOS mode with Kokkos version 4.2.0 is enabled (src/KOKKOS/kokkos.cpp:72)
  will use up to 4 GPU(s) per node
  using 1 OpenMP thread(s) per MPI task
Reading data file ...
  triclinic box = (0 0 0) to (18.047441 22.912981 19.549222) with tilt (-0.10697296 -6.2467562 -0.022549581)
  1 by 2 by 2 MPI processor grid
  reading atoms ...
  1008 atoms
  read_data CPU = 0.011 seconds
ACE/AL version: 2023.11.25
Loading /home/cicn/cicn607503/pd/pot_dir/interim_potential_ladder_step_1.yaml
Total number of basis functions
	H: 23 (r=1) 664 (r>1)
	O: 23 (r=1) 664 (r>1)
Mapping LAMMPS atom type #1(H) -> ACE species type #0
Mapping LAMMPS atom type #2(O) -> ACE species type #1
Loading ASI /home/cicn/cicn607503/pd/pot_dir/interim_potential_ladder_step_1.asi
LINEAR ASI is loaded
Switching to 'neigh_modify every 1 delay 0 check yes' setting during minimization
Neighbor list info ...
  update: every = 1 steps, delay = 0 steps, check = yes
  max neighbors/atom: 2000, page size: 100000
  master list distance cutoff = 6.5
  ghost atom cutoff = 6.5
  binsize = 6.5, bins = 4 4 4
  1 neighbor lists, perpetual/occasional/extra = 1 0 0
  (1) pair pace/extrapolation/kk, perpetual
      attributes: full, newton on, kokkos_device
      pair build: full/bin/kk/device
      stencil: full/bin/3d
      bin: kk/device
Setting up cg/kk style minimization ...
  Unit style    : metal
  Current step  : 0
WARNING: Fix with atom-based arrays not compatible with sending data in Kokkos communication, switching to classic exchange/border communication (src/KOKKOS/comm_kokkos.cpp:666)
WARNING: Fix with atom-based arrays not compatible with Kokkos sorting on device, switching to classic host sorting (src/KOKKOS/atom_kokkos.cpp:218)
Per MPI rank memory allocation (min/avg/max) = 235.3 | 242.3 | 246.3 Mbytes
   Step         TotEng         PotEng         KinEng         Press           Temp          Volume        Density     c_max_pace_gamma
         0  -4828.0548     -4828.0548      0              65519.119      0              8084.0073      1.2433848      0.66599329   
       100  -4870.1836     -4870.1836      0             -8195.723       0              8084.0073      1.2433848      0.66599329   
       200  -4870.1941     -4870.1941      0             -8254.8387      0              8084.0073      1.2433848      0.66599329   
       297  -4870.1942     -4870.1942      0             -8253.7006      0              8084.0073      1.2433848      0.66599329   
Loop time of 1.01337 on 4 procs for 297 steps with 1008 atoms

99.6% CPU use with 4 MPI tasks x 1 OpenMP threads

Minimization stats:
  Stopping criterion = force tolerance
  Energy initial, next-to-last, final = 
     -4828.05482421704   -4870.1941735052  -4870.19417350929
  Force two-norm initial, final = 47.911707 0.0004984101
  Force max component initial, final = 2.3126941 4.2962655e-05
  Final line search alpha, max atom move = 1 4.2962655e-05
  Iterations, force evaluations = 297 593

MPI task timing breakdown:
Section |  min time  |  avg time  |  max time  |%varavg| %total
---------------------------------------------------------------
Pair    | 0.59954    | 0.60848    | 0.61749    |   1.0 | 60.05
Neigh   | 0.0018201  | 0.0019433  | 0.0021024  |   0.3 |  0.19
Comm    | 0.17475    | 0.1845     | 0.19548    |   2.1 | 18.21
Output  | 0.00030527 | 0.00030561 | 0.00030602 |   0.0 |  0.03
Modify  | 0.13526    | 0.13821    | 0.14209    |   0.7 | 13.64
Other   |            | 0.07994    |            |       |  7.89

Nlocal:            252 ave         254 max         250 min
Histogram: 1 0 1 0 0 0 0 1 0 1
Nghost:           1953 ave        1955 max        1951 min
Histogram: 1 0 1 0 0 0 0 1 0 1
Neighs:              0 ave           0 max           0 min
Histogram: 4 0 0 0 0 0 0 0 0 0
FullNghs:      36659.5 ave       36861 max       36458 min
Histogram: 1 1 0 0 0 0 0 0 1 1

Total # of neighbors = 146638
Ave neighs/atom = 145.47421
Neighbor list builds = 5
Dangerous builds = 0
Setting up Verlet run ...
  Unit style    : metal
  Current step  : 297
  Time step     : 0.0005
WARNING: Fix with atom-based arrays not compatible with sending data in Kokkos communication, switching to classic exchange/border communication (src/KOKKOS/comm_kokkos.cpp:666)
WARNING: Fix with atom-based arrays not compatible with Kokkos sorting on device, switching to classic host sorting (src/KOKKOS/atom_kokkos.cpp:218)
Per MPI rank memory allocation (min/avg/max) = 242 | 244.4 | 247 Mbytes
   Step         TotEng         PotEng         KinEng         Press           Temp          Volume        Density     c_max_pace_gamma
       297  -4831.7955     -4870.1942      38.398665     -3180.1906      295            8084.0073      1.2433848      0.66599329   
       300  -4831.54       -4863.1471      31.607186     -502.89211      242.82406      8083.9684      1.2433908      0.66599329   
       400  -4823.8359     -4846.71        22.874087      2473.586       175.73152      8034.5832      1.2510334      0.66599329   
       500  -4815.9937     -4842.1847      26.190948      5608.9845      201.2135       7923.8677      1.2685133      0.66599329   
       600  -4810.7386     -4838.9841      28.24553       7727.282       216.99794      7794.968       1.2894898      0.66599329   
       700  -4805.9559     -4837.9337      31.977782      5784.0045      245.67119      7692.9121      1.3065964      0.66599329   
       800  -4802.5923     -4835.8985      33.306215      10749.524      255.87695      7642.1166      1.3152811      0.66599329   
       900  -4799.5877     -4834.5066      34.9189        9284.1242      268.2665       7650.7801      1.3137917      0.66599329   
      1000  -4797.8104     -4833.5861      35.775722      9600.3476      274.84909      7716.1089      1.3026685      0.72374567   
      1100  -4796.1031     -4831.7528      35.649666      9941.4091      273.88066      7816.7557      1.2858956      0.72374567   
      1200  -4796.0086     -4832.2593      36.250769      4546.8215      278.49866      7925.482       1.2682549      0.72374567   
      1300  -4795.5128     -4831.4795      35.966692      3278.0836      276.31622      8016.1281      1.2539136      0.72374567   
      1400  -4795.4389     -4830.8149      35.376049      2862.3365      271.77857      8072.8934      1.2450966      0.72374567   
      1500  -4794.2358     -4830.8235      36.587617      2279.6079      281.08652      8092.5063      1.2420789      0.72374567   
      1600  -4794.2254     -4830.5955      36.370146      5030.2593      279.41579      8084.6182      1.2432908      0.72374567   
      1700  -4794.2644     -4831.4742      37.209838      4846.9321      285.86676      8056.7426      1.2475925      0.72374567   
      1800  -4793.2631     -4831.823       38.559928      916.84347      296.23892      8012.8201      1.2544312      0.72374567   
      1900  -4793.8362     -4830.6603      36.824179      6294.9933      282.90392      7958.0846      1.2630592      0.72374567   
      2000  -4792.9748     -4830.6278      37.652988      3997.1588      289.27129      7908.0519      1.2710503      0.69587504   
      2100  -4792.9636     -4830.2531      37.289472      7625.7756      286.47856      7875.5743      1.2762919      0.69587504   
      2200  -4791.7152     -4830.2914      38.576148      8291.6731      296.36353      7867.8917      1.2775381      0.69587504   
      2300  -4791.683      -4830.1699      38.486949      4260.4609      295.67825      7887.3782      1.2743819      0.69587504   
      2400  -4791.6163     -4828.6181      37.001783      9985.289       284.26837      7926.7388      1.2680538      0.69587504   
      2500  -4792.1108     -4829.0559      36.945178      3332.9195      283.8335       7974.5355      1.2604536      0.69587504   
      2600  -4791.5486     -4828.7553      37.20668       3164.8448      285.8425       8022.498       1.2529179      0.69587504   
      2700  -4793.1294     -4831.0952      37.965806      1202.6376      291.67454      8060.1991      1.2470575      0.69587504   
      2800  -4793.8849     -4829.8235      35.938544      7051.3384      276.09998      8076.2685      1.2445762      0.69587504   
      2900  -4792.4475     -4829.8255      37.378003      3390.758       287.15871      8071.0171      1.245386       0.69587504   
      3000  -4791.9427     -4830.3288      38.386125      2989.6472      294.90366      8046.7394      1.2491434      0.65942923   
      3100  -4792.7892     -4831.9484      39.159263      6300.1347      300.84334      8007.4555      1.2552716      0.65942923   
      3200  -4793.5241     -4830.8845      37.360406      6981.9654      287.02351      7959.3244      1.2628624      0.65942923   
      3300  -4793.9978     -4830.7688      36.770938      6705.1809      282.49489      7911.4132      1.2705103      0.65942923   
      3400  -4792.144      -4830.0499      37.905896      7736.9091      291.21427      7873.4087      1.2766429      0.65942923   
      3500  -4791.9294     -4830.7677      38.838294      9064.7627      298.37747      7858.7357      1.2790266      0.65942923   
      3600  -4791.692      -4830.9113      39.219268      9796.5123      301.30433      7875.3295      1.2763316      0.65942923   
      3700  -4792.0585     -4831.1704      39.111881      4782.4962      300.47932      7917.9258      1.2694653      0.65942923   
      3800  -4792.4819     -4829.9376      37.45578       7161.0989      287.75623      7973.3521      1.2606406      0.65942923   
      3900  -4792.6588     -4830.7513      38.092494     -862.27394      292.64782      8032.5239      1.2513541      0.65942923   
      4000  -4791.7613     -4829.6717      37.910439      231.00774      291.24918      8077.824       1.2443366      0.65688673   
      4100  -4792.469      -4829.9177      37.448677      2858.9435      287.70166      8096.4129      1.2414796      0.65688673   
      4200  -4793.36       -4831.0208      37.660799      3394.8959      289.3313       8084.5564      1.2433003      0.65688673   
      4300  -4793.5963     -4830.6472      37.050896      3746.6961      284.64569      8043.0254      1.2497202      0.65688673   
      4400  -4792.8282     -4830.2855      37.457312      7692.62        287.768        7982.0909      1.2592605      0.65688673   
      4500  -4790.887      -4828.6121      37.725089      7120.8391      289.82521      7917.3136      1.2695634      0.65688673   
      4600  -4790.5157     -4830.519       40.003342      8805.6945      307.32803      7862.673       1.2783861      0.65688673   
      4700  -4791.1646     -4829.2357      38.071151      9937.0415      292.48385      7829.5383      1.2837962      0.65688673   
      4800  -4791.1159     -4830.3092      39.193334      10826.402      301.10509      7825.2211      1.2845045      0.65688673   
      4900  -4793.4472     -4830.0924      36.645259      8862.2432      281.52935      7852.5569      1.280033       0.65688673   
      5000  -4793.0084     -4831.0455      38.03718       5476.5415      292.22287      7904.8898      1.2715587      0.68455557   
      5100  -4791.4481     -4830.3032      38.855086      3890.4894      298.50648      7971.0201      1.2610094      0.68455557   
      5200  -4792.5405     -4830.0285      37.487985      2149.2256      288.00365      8041.2407      1.2499976      0.68455557   
      5300  -4791.6366     -4829.9848      38.348181      4327.4474      294.61216      8093.8395      1.2418744      0.68455557   
      5400  -4791.2243     -4829.8267      38.602394      2512.5209      296.56516      8115.5632      1.2385501      0.68455557   
      5500  -4790.5099     -4828.6953      38.185375      828.85988      293.36139      8100.58        1.240841       0.68455557   
      5600  -4790.4464     -4829.0954      38.64903       2145.8422      296.92344      8053.6399      1.2480731      0.68455557   
      5700  -4789.1483     -4828.4082      39.259935      5352.419       301.61676      7987.7842      1.2583629      0.68455557   
      5800  -4790.0222     -4828.1814      38.159247      8488.8049      293.16065      7916.1525      1.2697496      0.68455557   
      5900  -4790.1122     -4829.4096      39.297464      7493.9702      301.90508      7860.0215      1.2788173      0.68455557   
      6000  -4791.0113     -4830.1127      39.101391      8944.9942      300.39874      7835.1928      1.2828697      0.69278091   
      6100  -4791.2015     -4830.1284      38.926872      7776.5384      299.05798      7845.7822      1.2811383      0.69278091   
      6200  -4792.5468     -4830.0011      37.454299      8242.6544      287.74485      7883.1728      1.2750617      0.69278091   
      6300  -4793.4782     -4832.7492      39.271058      4806.5388      301.70221      7935.8333      1.2666007      0.69278091   
      6400  -4793.0091     -4829.423       36.413928      6602.6813      279.75214      7989.7496      1.2580534      0.69278091   
      6500  -4790.6545     -4828.8824      38.227959      2956.4499      293.68854      8038.0133      1.2504995      0.69278091   
      6600  -4790.6146     -4827.5109      36.896244      1498.6573      283.45756      8073.9787      1.2449292      0.69278091   
      6700  -4791.6194     -4828.9064      37.286961      3929.2347      286.45927      8091.9067      1.242171       0.69278091   
      6800  -4791.8384     -4829.6176      37.779274      4735.4629      290.24149      8089.7349      1.2425045      0.69278091   
      6900  -4792.526      -4829.9534      37.427387      3379.3558      287.5381       8065.4732      1.246242       0.69278091   
      7000  -4791.961      -4829.3833      37.422291      5367.221       287.49895      8025.1152      1.2525093      0.68290624   
      7100  -4792.1059     -4829.5095      37.403521      7631.6948      287.35475      7980.936       1.2594427      0.68290624   
      7200  -4791.0749     -4828.6307      37.555759      7002.3289      288.52433      7936.8278      1.2664419      0.68290624   
      7300  -4791.6612     -4829.2286      37.567427      7336.9088      288.61397      7903.6544      1.2717575      0.68290624   
      7400  -4791.8504     -4830.5126      38.662222      4033.9545      297.0248       7884.6338      1.2748254      0.68290624   
      7500  -4792.9173     -4831.1927      38.275357      7662.1195      294.05268      7890.9953      1.2737977      0.68290624   
      7600  -4793.1704     -4831.3598      38.189427      9222.748       293.39252      7917.6359      1.2695117      0.68290624   
      7700  -4793.3268     -4830.5446      37.217834      3290.9797      285.92819      7957.9724      1.263077       0.68290624   
      7800  -4791.7169     -4830.1444      38.427465      4266.3264      295.22126      8002.2333      1.2560908      0.68290624   
      7900  -4791.8608     -4830.7167      38.855953      2151.656       298.51314      8042.8537      1.2497469      0.68290624   
      8000  -4792.5529     -4829.5248      36.971865      4785.3226      284.03853      8071.6563      1.2452874      0.71063302   
      8100  -4791.7586     -4829.7594      38.000725      2789.3262      291.9428       8083.5715      1.2434518      0.71063302   
      8200  -4791.5433     -4828.7989      37.255506      3074.4202      286.21761      8081.664       1.2437453      0.71063302   
      8300  -4791.8582     -4829.1708      37.312673      2628.6332      286.65681      8063.2075      1.2465922      0.71063302   
      8400  -4791.8337     -4830.3817      38.547938      3746.0575      296.1468       8030.677       1.2516419      0.71063302   
      8500  -4791.4987     -4828.9695      37.470803      7517.1183      287.87165      7982.9435      1.259126       0.71063302   
      8600  -4792.1986     -4831.5327      39.334076      5540.1921      302.18635      7933.5366      1.2669673      0.71063302   
      8700  -4791.4064     -4829.3124      37.906005      6768.5682      291.21511      7889.9024      1.2739741      0.71063302   
      8800  -4790.7206     -4829.3961      38.675432      7596.8521      297.12628      7866.6079      1.2777466      0.71063302   
      8900  -4789.9721     -4827.8376      37.865546      9450.4979      290.90428      7871.91        1.276886       0.71063302   
      9000  -4790.6975     -4829.8227      39.125226      8018.7973      300.58184      7906.4617      1.2713059      0.68238716   
      9100  -4791.759      -4830.2913      38.532327      5249.6199      296.02687      7959.0568      1.2629049      0.68238716   
      9200  -4790.2222     -4827.4671      37.244949      9099.8663      286.13651      8013.426       1.2543364      0.68238716   
      9300  -4789.3469     -4827.8393      38.492438      4363.9229      295.72041      8059.8775      1.2471073      0.68238716   
      9400  -4789.803      -4828.8447      39.041701      1396.5209      299.94016      8086.2808      1.2430352      0.68238716   
      9500  -4789.0426     -4827.8133      38.77075       5748.4381      297.85857      8088.0238      1.2427673      0.68238716   
      9600  -4789.466      -4829.0101      39.544106      4847.6433      303.79992      8073.7474      1.2449649      0.68238716   
      9700  -4789.1201     -4828.6351      39.514962      3218.5415      303.57602      8046.2127      1.2492252      0.68238716   
      9800  -4788.5007     -4826.0656      37.564825      6397.8628      288.59397      8008.0014      1.2551861      0.68238716   
      9900  -4788.8198     -4828.484       39.664123      5724.8798      304.72196      7968.0475      1.2614799      0.68238716   
     10000  -4787.9891     -4828.0496      40.060453      4627.7115      307.76678      7932.7527      1.2670925      0.68029051   
     10100  -4787.9677     -4826.9536      38.985948      6713.0128      299.51184      7904.494       1.2716224      0.68029051   
     10200  -4789.3573     -4828.0352      38.677908      5486.1756      297.1453       7893.0714      1.2734627      0.68029051   
     10300  -4791.8625     -4830.4235      38.561073      4463.8592      296.24771      7904.4164      1.2716349      0.68029051   
     10400  -4791.8619     -4831.5711      39.709177      5518.1363      305.06808      7929.9385      1.2675422      0.68029051   
     10500  -4789.9667     -4829.8352      39.868538      4623.7888      306.29239      7965.9179      1.2618171      0.68029051   
     10600  -4790.046      -4828.152       38.105994      7264.0259      292.75153      8003.8912      1.2558306      0.68029051   
     10700  -4789.9074     -4828.9697      39.062345      6689.001       300.09876      8038.034       1.2504963      0.68029051   
     10800  -4789.4354     -4828.8661      39.430685      7721.5747      302.92855      8058.7155      1.2472871      0.68029051   
     10900  -4788.4637     -4828.4839      40.020239      3542.1621      307.45783      8062.8221      1.2466518      0.68029051   
     11000  -4789.0906     -4827.7857      38.695043      3219.8268      297.27694      8051.8045      1.2483576      0.71038492   
     11100  -4788.7316     -4827.2224      38.490806      6182.0777      295.70788      8026.6324      1.2522726      0.71038492   
     11200  -4790.2762     -4828.9328      38.656646      4545.277       296.98196      7992.1454      1.2576763      0.71038492   
     11300  -4790.0557     -4828.9959      38.940216      5155.5251      299.1605       7959.1651      1.2628877      0.71038492   
     11400  -4788.7803     -4828.5317      39.751432      7989.0462      305.39271      7931.0522      1.2673642      0.71038492   
     11500  -4788.4134     -4827.8446      39.431179      6189.9233      302.93235      7914.6302      1.2699939      0.71038492   
     11600  -4789.016      -4828.7024      39.686477      5770.3869      304.89369      7911.0702      1.2705653      0.71038492   
     11700  -4788.2511     -4828.1502      39.899088      5599.2267      306.52709      7921.7203      1.2688572      0.71038492   
     11800  -4788.0873     -4827.6035      39.516289      4362.3373      303.58621      7949.2655      1.2644604      0.71038492   
     11900  -4788.5501     -4828.6458      40.095691      8545.6779      308.0375       7986.793       1.2585191      0.71038492   
     12000  -4788.4939     -4828.1891      39.69518       7008.0893      304.96055      8024.3128      1.2526346      0.67784442   
     12100  -4790.8349     -4828.0042      37.169318      2546.9935      285.55547      8052.4447      1.2482584      0.67784442   
     12200  -4790.9064     -4828.4702      37.56379       3267.9521      288.58602      8061.4599      1.2468624      0.67784442   
     12300  -4791.8116     -4830.1496      38.337925      178.20658      294.53336      8051.3761      1.2484241      0.67784442   
     12400  -4792.1504     -4829.6647      37.514318      4451.4127      288.20595      8017.5493      1.2536913      0.67784442   
     12500  -4792.7972     -4830.6576      37.860428      5249.7397      290.86496      7968.1661      1.2614611      0.67784442   
     12600  -4791.5815     -4829.8837      38.302221      5041.1814      294.25906      7914.7311      1.2699777      0.67784442   
     12700  -4790.7989     -4828.9784      38.17942       10046.258      293.31564      7875.4552      1.2763112      0.67784442   
     12800  -4790.4015     -4830.2744      39.872886      8976.8282      306.32579      7858.9612      1.2789899      0.67784442   
     12900  -4791.372      -4830.5525      39.180483      9908.461       301.00636      7864.6661      1.2780621      0.67784442   
     13000  -4790.6548     -4829.1901      38.535286      4398.6483      296.0496       7892.964       1.27348        0.69031574   
     13100  -4792.317      -4830.4716      38.154601      4135.7672      293.12496      7936.6988      1.2664625      0.69031574   
     13200  -4792.0232     -4829.3886      37.365412      167.57676      287.06198      7981.5026      1.2593533      0.69031574   
     13300  -4792.9818     -4830.7569      37.775034      3472.1139      290.20892      8018.0363      1.2536151      0.69031574   
     13400  -4794.3185     -4832.334       38.015471      2843.1816      292.05609      8040.2585      1.2501503      0.69031574   
     13500  -4793.327      -4830.64        37.312998      338.75318      286.6593       8040.149       1.2501673      0.69031574   
     13600  -4792.1326     -4829.2824      37.149852      3008.7759      285.40592      8015.9302      1.2539445      0.69031574   
     13700  -4791.8981     -4829.5229      37.624832      4758.929       289.05499      7976.781       1.2600987      0.69031574   
     13800  -4791.7876     -4829.8314      38.043748      4353.2597      292.27333      7930.8024      1.2674041      0.69031574   
     13900  -4791.873      -4831.2863      39.413274      7532.752       302.79479      7894.6718      1.2732045      0.69031574   
     14000  -4792.1951     -4831.1546      38.959547      8942.1582      299.30901      7873.895       1.2765641      0.69365393   
     14100  -4792.8765     -4830.175       37.29849       3347.364       286.54784      7874.0711      1.2765355      0.69365393   
     14200  -4794.5751     -4829.9945      35.419387      6168.8552      272.11152      7888.9809      1.274123       0.69365393   
     14300  -4794.0318     -4831.5538      37.522043      4164.3383      288.2653       7913.7411      1.2701365      0.69365393   
     14400  -4793.4873     -4831.2295      37.742148      3818.9867      289.95627      7944.7584      1.2651778      0.69365393   
     14500  -4794.2602     -4831.4752      37.214996      2877.3242      285.9064       7977.19        1.2600341      0.69365393   
     14600  -4794.1222     -4829.771       35.648842      4345.5665      273.87432      8005.4513      1.2555859      0.69365393   
     14700  -4795.1917     -4832.1888      36.99704       2393.3427      284.23194      8022.9828      1.2528422      0.69365393   
     14800  -4794.774      -4831.5093      36.735286      2935.3451      282.22099      8020.9981      1.2531522      0.69365393   
     14900  -4793.7374     -4831.2698      37.532427      3518.0703      288.34508      7996.3671      1.2570123      0.69365393   
     15000  -4793.804      -4831.233       37.429016      502.83956      287.55062      7958.1329      1.2630515      0.80776034   
     15100  -4792.5895     -4830.4021      37.812626      8401.1764      290.49772      7918.1899      1.2694229      0.80776034   
     15200  -4790.8713     -4829.8597      38.988431      9067.7741      299.53091      7887.7643      1.2743195      0.80776034   
     15300  -4791.2404     -4829.2095      37.96903       6706.7862      291.69931      7876.9778      1.2760645      0.80776034   
     15400  -4792.0088     -4831.1233      39.114565      6868.476       300.49994      7891.4275      1.2737279      0.80776034   
     15500  -4793.2273     -4830.214       36.986729      8865.8179      284.15272      7926.5336      1.2680867      0.80776034   
     15600  -4792.9183     -4830.7859      37.867675      2948.3898      290.92064      7972.1472      1.2608312      0.80776034   
     15700  -4792.6639     -4830.3685      37.704671      3333.5542      289.66835      8017.9219      1.253633       0.80776034   
     15800  -4791.6951     -4828.4217      36.726686     -33.66292       282.15492      8055.0219      1.247859       0.80776034   
     15900  -4791.9921     -4829.3391      37.346986      317.80129      286.92041      8073.5089      1.2450016      0.80776034   
     16000  -4790.1648     -4829.9968      39.832026      7275.9277      306.01188      8072.0764      1.2452226      0.61855553   
     16100  -4792.2079     -4830.4993      38.291484      5127.9831      294.17658      8053.1294      1.2481523      0.61855553   
     16200  -4793.4058     -4829.2075      35.80169       4713.4436      275.04859      8016.7692      1.2538133      0.61855553   
     16300  -4792.423      -4829.7892      37.366202      6274.0562      287.06805      7975.0049      1.2603794      0.61855553   
     16400  -4793.3474     -4830.8797      37.532259      5010.8452      288.34379      7934.4207      1.2668262      0.61855553   
     16500  -4792.5274     -4830.4318      37.904433      7275.4759      291.20303      7902.7976      1.2718954      0.61855553   
     16600  -4791.2026     -4829.6581      38.45542       2768.4032      295.43602      7886.6017      1.2745073      0.61855553   
     16700  -4790.3218     -4829.5019      39.180021      5103.5729      301.00281      7889.9027      1.2739741      0.61855553   
     16800  -4790.3312     -4829.118       38.786788      6037.8351      297.98178      7913.3933      1.2701924      0.61855553   
     16900  -4792.3999     -4830.6407      38.240776      5666.6393      293.78701      7952.5409      1.2639396      0.61855553   
     17000  -4790.0008     -4828.5056      38.504817      1954.9671      295.81552      7994.8647      1.2572485      0.64464999   
     17100  -4790.7558     -4830.1323      39.376505      1920.8296      302.51231      8031.4315      1.2515243      0.64464999   
     17200  -4791.2634     -4828.0523      36.788893      3064.281       282.63283      8052.4009      1.2482652      0.64464999   
     17300  -4791.5791     -4829.5523      37.973199      1167.6314      291.73133      8055.1527      1.2478388      0.64464999   
     17400  -4791.543      -4829.6981      38.155111      2340.5637      293.12888      8037.4893      1.250581       0.64464999   
     17500  -4791.2914     -4829.2928      38.001414      3911.9977      291.94809      8007.8814      1.2552049      0.64464999   
     17600  -4791.8199     -4829.4469      37.627039      4354.9458      289.07194      7969.8192      1.2611995      0.64464999   
     17700  -4790.7736     -4830.4783      39.704696      5458.1121      305.03366      7930.4737      1.2674567      0.64464999   
     17800  -4789.6507     -4828.0856      38.434909      3566.3386      295.27845      7902.6271      1.2719228      0.64464999   
     17900  -4790.9286     -4829.3763      38.44767       4500.9598      295.37648      7894.7707      1.2731886      0.64464999   
     18000  -4791.1561     -4829.8825      38.726462      6598.1627      297.51832      7905.4167      1.271474       0.73432993   
     18100  -4792.3777     -4830.1778      37.800084      7780.781       290.40137      7930.8834      1.2673912      0.73432993   
     18200  -4792.9943     -4830.1548      37.160536      4539.3771      285.488        7963.979       1.2621243      0.73432993   
     18300  -4793.1212     -4830.3194      37.198234      3669.7482      285.77762      7999.5134      1.2565179      0.73432993   
     18400  -4793.9086     -4829.9667      36.058106      3275.6795      277.01852      8027.104       1.252199       0.73432993   
     18500  -4793.5528     -4829.812       36.259275     -288.36594      278.56401      8036.9207      1.2506695      0.73432993   
     18600  -4791.8704     -4830.8514      38.981036     -248.58111      299.4741       8025.0338      1.252522       0.73432993   
     18700  -4791.3409     -4829.3984      38.057521      3749.0827      292.37914      7994.4786      1.2573092      0.73432993   
     18800  -4791.3208     -4829.5016      38.180781      5154.9204      293.3261       7957.9832      1.2630753      0.73432993   
     18900  -4792.7916     -4830.4687      37.677089      5676.7003      289.45645      7924.9555      1.2683392      0.73432993   
     19000  -4793.5246     -4832.2591      38.7345        4913.2595      297.58007      7905.3697      1.2714815      0.69724774   
     19100  -4793.5896     -4831.5703      37.980666      6470.4528      291.7887       7900.7018      1.2722328      0.69724774   
     19200  -4793.016      -4830.2314      37.215369      10421.279      285.90926      7910.0458      1.2707299      0.69724774   
     19300  -4791.6954     -4830.502       38.806556      8712.9603      298.13365      7936.5292      1.2664896      0.69724774   
     19400  -4791.2163     -4830.747       39.530728      8044.8079      303.69714      7975.4588      1.2603076      0.69724774   
     19500  -4791.5131     -4830.4249      38.911728      5666.0689      298.94164      8013.5441      1.2543179      0.69724774   
     19600  -4792.4355     -4830.0045      37.569012      5331.4992      288.62615      8043.82        1.2495968      0.69724774   
     19700  -4793.0429     -4830.7403      37.697488      4922.0513      289.61316      8057.6873      1.2474462      0.69724774   
     19800  -4793.2492     -4831.0751      37.825894      2834.9775      290.59965      8054.1255      1.2479979      0.69724774   
     19900  -4792.9102     -4829.6814      36.77125       4781.3588      282.49729      8032.7373      1.2513209      0.69724774   
     20000  -4793.1349     -4831.732       38.597091      6380.791       296.52442      7997.4091      1.2568485      0.76118805   
     20100  -4792.6612     -4831.42        38.758833      9420.9514      297.76701      7955.6175      1.2634509      0.76118805   
     20200  -4791.3034     -4829.7847      38.481292      9347.099       295.63479      7914.9878      1.2699365      0.76118805   
     20300  -4790.4529     -4829.2828      38.829864      6786.3054      298.31271      7892.498       1.2735552      0.76118805   
     20400  -4790.6734     -4828.5636      37.890213      7205.1669      291.09378      7898.0072      1.2726668      0.76118805   
     20500  -4790.0933     -4828.3398      38.246518      5492.7826      293.83112      7927.166       1.2679855      0.76118805   
     20600  -4792.0828     -4829.8571      37.774313      3105.3404      290.20338      7972.1357      1.260833       0.76118805   
     20700  -4791.9467     -4829.706       37.759317      6054           290.08817      8022.0331      1.2529906      0.76118805   
     20800  -4791.9894     -4830.5984      38.609004      7407.121       296.61594      8069.1684      1.2456713      0.76118805   
     20900  -4792.2705     -4828.7251      36.454559      6136.3666      280.06429      8104.028       1.240313       0.76118805   
     21000  -4792.6098     -4830.3172      37.707443      4040.6629      289.68965      8119.6572      1.2379256      0.6303178    
     21100  -4792.1999     -4829.169       36.969097      3565.662       284.01726      8106.4493      1.2399426      0.6303178    
     21200  -4791.3617     -4828.9907      37.628948      2919.5524      289.0866       8066.3668      1.246104       0.6303178    
     21300  -4791.8507     -4830.8953      39.044563      4989.161       299.96215      8010.1043      1.2548565      0.6303178    
     21400  -4791.6532     -4828.8697      37.21645       5430.2758      285.91757      7948.6581      1.2645571      0.6303178    
     21500  -4793.0278     -4831.2666      38.238855      4543.1694      293.77225      7900.8473      1.2722093      0.6303178    
     21600  -4792.7591     -4830.4576      37.698528      5168.8045      289.62116      7873.6825      1.2765986      0.6303178    
     21700  -4792.7202     -4831.3581      38.637902      6451.3539      296.83796      7870.804       1.2770654      0.6303178    
     21800  -4793.0321     -4830.4382      37.406054      4199.1785      287.3742       7891.9647      1.2736412      0.6303178    
     21900  -4792.9836     -4831.308       38.324417      5860.9487      294.42958      7932.0816      1.2671997      0.6303178    
     22000  -4792.4231     -4829.6212      37.1981        8120.8915      285.77659      7983.6744      1.2590107      0.63785088   
     22100  -4792.3942     -4829.9284      37.534169      5703.3856      288.35846      8034.0769      1.2511122      0.63785088   
     22200  -4791.6183     -4829.2017      37.583387      5639.9842      288.73658      8070.4591      1.2454721      0.63785088   
     22300  -4790.7177     -4828.6517      37.933979      6607.9258      291.43002      8082.4706      1.2436212      0.63785088   
     22400  -4791.7204     -4829.3823      37.661874      3598.6442      289.33956      8074.1942      1.244896       0.63785088   
     22500  -4791.454      -4828.651       37.196982      6290.1272      285.768        8051.0149      1.2484801      0.63785088   
     22600  -4790.3095     -4829.0579      38.748483      7683.9909      297.6875       8019.9587      1.2533146      0.63785088   
     22700  -4790.889      -4828.0175      37.128581      8253.3635      285.2425       7989.6788      1.2580645      0.63785088   
     22800  -4787.6125     -4827.4495      39.837016      10699.719      306.05021      7967.8845      1.2615057      0.63785088   
     22900  -4788.2978     -4828.3806      40.082797      7931.2937      307.93845      7963.2136      1.2622456      0.63785088   
     23000  -4789.3418     -4830.2093      40.867475      6723.979       313.96678      7969.2979      1.261282       0.6708295    
     23100  -4789.3425     -4829.5132      40.170723      4237.5125      308.61394      7979.6444      1.2596466      0.6708295    
     23200  -4789.7279     -4829.2225      39.494581      4164.9317      303.41944      7992.931       1.2575527      0.6708295    
     23300  -4792.1102     -4830.8842      38.774071      3129.0502      297.88408      8009.4518      1.2549588      0.6708295    
     23400  -4791.2602     -4829.7111      38.450859      2015.6828      295.40098      8020.4434      1.2532389      0.6708295    
     23500  -4790.7348     -4829.9791      39.244299      4890.3156      301.49663      8024.9269      1.2525387      0.6708295    
     23600  -4791.2063     -4829.3385      38.132147      5417.8616      292.95246      8018.5937      1.253528       0.6708295    
     23700  -4790.8927     -4830.3426      39.449959      4404.1287      303.07662      7999.777       1.2564765      0.6708295    
     23800  -4790.7855     -4828.652       37.866458      5400.8651      290.91129      7976.7618      1.2601018      0.6708295    
     23900  -4790.7308     -4828.1411      37.410331      5326.008       287.40706      7957.7698      1.2631091      0.6708295    
     24000  -4791.433      -4830.3236      38.890653      6793.0918      298.77973      7947.08        1.2648082      0.68994359   
     24100  -4792.3808     -4830.949       38.568183      5519.5195      296.30233      7944.9682      1.2651444      0.68994359   
     24200  -4792.4344     -4830.9758      38.541491      6952.2168      296.09727      7947.5267      1.2647371      0.68994359   
     24300  -4793.0893     -4829.5744      36.4851        5089.3162      280.29893      7955.0897      1.2635347      0.68994359   
     24400  -4792.6944     -4830.8536      38.159242      4080.8164      293.16062      7966.2238      1.2617687      0.68994359   
     24500  -4793.2661     -4831.6352      38.369022      2203.0446      294.77226      7976.2721      1.2601791      0.68994359   
     24600  -4794.0251     -4830.663       36.637868      4296.1024      281.47258      7981.6775      1.2593257      0.68994359   
     24700  -4794.4874     -4831.6189      37.131472      4514.6038      285.26472      7984.2072      1.2589267      0.68994359   
     24800  -4793.6513     -4831.8019      38.150585      6821.4501      293.09411      7982.4423      1.2592051      0.68994359   
     24900  -4794.0951     -4831.511       37.415909      2526.3328      287.44992      7975.8091      1.2602523      0.68994359   
     25000  -4793.377      -4831.4216      38.044627      2915.4974      292.28008      7963.7432      1.2621617      0.66924947   
     25100  -4792.5331     -4829.0819      36.548729      6152.5704      280.78776      7949.744       1.2643843      0.66924947   
     25200  -4792.0047     -4831.4461      39.441356      4081.2564      303.01054      7941.4225      1.2657092      0.66924947   
     25300  -4792.08       -4830.4908      38.410791      3504.5162      295.09316      7936.6336      1.2664729      0.66924947   
     25400  -4789.5378     -4828.1395      38.6017        4405.9194      296.55983      7940.6308      1.2658354      0.66924947   
     25500  -4790.3576     -4828.9412      38.583651      6138.2699      296.42116      7951.333       1.2641316      0.66924947   
     25600  -4790.56       -4828.7661      38.206092      4395.6083      293.52055      7968.2243      1.2614519      0.66924947   
     25700  -4791.9339     -4829.7046      37.770731      4785.4195      290.17586      7989.7661      1.2580508      0.66924947   
     25800  -4791.8751     -4830.3486      38.473477      7130.5542      295.57475      8011.4385      1.2546476      0.66924947   
     25900  -4791.3975     -4829.8094      38.411837      8389.5386      295.1012       8027.0955      1.2522003      0.66924947   
     26000  -4790.9711     -4828.5506      37.57954       7451.0464      288.70703      8028.3314      1.2520076      0.68542371   
     26100  -4790.281      -4828.5535      38.272462      1769.9119      294.03044      8017.8313      1.2536472      0.68542371   
     26200  -4791.5713     -4828.4501      36.878841      2665.5135      283.32387      8000.1825      1.2564128      0.68542371   
     26300  -4792.5937     -4830.5101      37.916431      2132.3425      291.29521      7978.6067      1.2598104      0.68542371   
     26400  -4791.6917     -4829.5111      37.819477      3885.9721      290.55035      7955.6952      1.2634385      0.68542371   
     26500  -4792.0777     -4830.5247      38.44698       7085.5561      295.37119      7935.7628      1.2666119      0.68542371   
     26600  -4790.8847     -4828.3937      37.508957      6605.2452      288.16477      7923.6773      1.2685438      0.68542371   
     26700  -4791.1403     -4830.8351      39.694794      7130.0044      304.95759      7921.7202      1.2688572      0.68542371   
     26800  -4791.5355     -4829.5218      37.986252      6617.5706      291.83161      7931.7064      1.2672597      0.68542371   
     26900  -4791.7005     -4829.4874      37.78689       6710.2862      290.3          7952.1919      1.2639951      0.68542371   
     27000  -4790.6369     -4828.9177      38.280726      5095.911       294.09392      7978.5462      1.2598199      0.6637686    
     27100  -4791.1183     -4830.6548      39.536508      7005.9812      303.74155      8005.6395      1.2555564      0.6637686    
     27200  -4790.7422     -4828.8072      38.065038      5810.7354      292.43689      8026.0722      1.25236        0.6637686    
     27300  -4790.8743     -4828.3008      37.42653       6156.6648      287.53151      8039.2023      1.2503146      0.6637686    
     27400  -4792.0439     -4829.5089      37.464971      2282.4907      287.82684      8043.1863      1.2496952      0.6637686    
     27500  -4791.1322     -4829.6325      38.500263     -1380.9731      295.78053      8032.0281      1.2514313      0.6637686    
     27600  -4791.458      -4829.0395      37.581519      5943.5217      288.72223      8006.3023      1.2554524      0.6637686    
     27700  -4791.5684     -4829.2827      37.714337      3465.1398      289.74261      7972.9411      1.2607056      0.6637686    
     27800  -4790.9362     -4829.1234      38.187217      4090.6598      293.37554      7937.0876      1.2664005      0.6637686    
     27900  -4791.1091     -4829.408       38.298878      7723.0986      294.23338      7906.453       1.2713073      0.6637686    
     28000  -4791.8568     -4829.4948      37.638042      8184.9469      289.15647      7893.5571      1.2733843      0.62776637   
     28100  -4792.0716     -4829.1673      37.095714      6337.7729      284.99         7897.4258      1.2727605      0.62776637   
     28200  -4792.3494     -4831.0242      38.674861      4823.6295      297.12189      7918.299       1.2694054      0.62776637   
     28300  -4792.0717     -4831.7752      39.703568      7329.9905      305.025        7951.9656      1.2640311      0.62776637   
     28400  -4792.0364     -4829.9945      37.958144      3197.946       291.61567      7990.0931      1.2579993      0.62776637   
     28500  -4792.6157     -4830.3281      37.712346      4150.245       289.72732      8022.038       1.2529898      0.62776637   
     28600  -4792.5945     -4830.1204      37.525885      4207.4316      288.29481      8038.6021      1.2504079      0.62776637   
     28700  -4791.3729     -4829.1653      37.792383      2785.2374      290.3422       8040.4472      1.250121       0.62776637   
     28800  -4792.365      -4829.2502      36.885183      8094.6914      283.37259      8026.662       1.252268       0.62776637   
     28900  -4792.2253     -4829.1285      36.903226      5879.531       283.5112       8002.6182      1.2560304      0.62776637   
     29000  -4792.3148     -4830.5037      38.188853      8450.8032      293.38811      7974.3044      1.2604901      0.70355498   
     29100  -4792.5597     -4830.4907      37.931074      4693.324       291.4077       7947.0728      1.2648093      0.70355498   
     29200  -4791.8427     -4829.9866      38.143885      5931.0689      293.04264      7923.588       1.2685581      0.70355498   
     29300  -4789.68       -4828.617       38.936918      7944.7491      299.13516      7912.515       1.2703334      0.70355498   
     29400  -4790.2459     -4828.0789      37.832995      5977.7785      290.6542       7919.0028      1.2692926      0.70355498   
     29500  -4789.6274     -4829.6514      40.024099      7733.1837      307.4875       7939.3729      1.266036       0.70355498   
     29600  -4790.7944     -4830.5966      39.80225       5704.6426      305.78313      7969.4363      1.2612601      0.70355498   
     29700  -4790.4246     -4828.4471      38.022545      4087.2129      292.11043      8000.4278      1.2563743      0.70355498   
     29800  -4790.2843     -4827.6243      37.339964      5452.8357      286.86646      8029.7292      1.2517896      0.70355498   
     29900  -4788.9579     -4828.1999      39.242006      2882.5747      301.47901      8050.3144      1.2485887      0.70355498   
     30000  -4789.7816     -4828.9629      39.181288      490.2686       301.01255      8059.7507      1.2471269      0.66394823   
     30100  -4789.0046     -4828.0327      39.028036      5564.1695      299.83518      8055.1926      1.2478326      0.66394823   
     30200  -4787.9973     -4827.5732      39.575949      5161.2772      304.04455      8038.3885      1.2504411      0.66394823   
     30300  -4789.6327     -4827.0953      37.462631      2267.5604      287.80886      8011.0371      1.2547104      0.66394823   
     30400  -4789.9675     -4829.0938      39.126303      3547.7682      300.59013      7979.0399      1.259742       0.66394823   
     30500  -4789.7116     -4828.6432      38.931599      3542.1162      299.0943       7949.3784      1.2644425      0.66394823   
     30600  -4790.9665     -4829.5384      38.571865      7321.4385      296.33062      7928.4249      1.2677842      0.66394823   
     30700  -4791.4586     -4831.0356      39.577051      6914.8386      304.05302      7918.0851      1.2694397      0.66394823   
     30800  -4791.4964     -4829.8175      38.321039      7728.236       294.40364      7916.2644      1.2697317      0.66394823   
     30900  -4791.8406     -4830.849       39.008478      5317.0163      299.68493      7922.5703      1.268721       0.66394823   
     31000  -4790.664      -4830.3558      39.691747      6301.0687      304.93418      7934.8227      1.266762       0.71993913   
     31100  -4790.7767     -4829.5027      38.726018      5517.4841      297.51491      7949.4296      1.2644343      0.71993913   
     31200  -4790.9425     -4829.2897      38.347202      6928.6606      294.60463      7967.7917      1.2615204      0.71993913   
     31300  -4791.0832     -4828.7074      37.624264      5867.1098      289.05062      7987.2452      1.2584479      0.71993913   
     31400  -4790.1102     -4828.4005      38.290263      2346.102       294.16719      8002.1626      1.2561019      0.71993913   
     31500  -4790.7236     -4829.1405      38.41684       1426.7428      295.13963      8009.6949      1.2549207      0.71993913   
     31600  -4789.9964     -4829.5701      39.573701      7916.9683      304.02728      8008.4331      1.2551184      0.71993913   
     31700  -4790.9823     -4829.7368      38.754471      7363.8155      297.7335       8000.8922      1.2563013      0.71993913   
     31800  -4790.3712     -4829.2029      38.831686      1665.8575      298.32671      7988.699       1.2582189      0.71993913   
     31900  -4791.2732     -4829.7278      38.454598      4546.2813      295.42971      7969.5405      1.2612436      0.71993913   
     32000  -4790.8238     -4829.8621      39.038316      5414.3978      299.91415      7944.6012      1.2652028      0.68039098   
     32100  -4790.7258     -4831.0005      40.274661      6040.6155      309.41245      7920.8103      1.269003       0.68039098   
     32200  -4790.1279     -4827.0338      36.905918      10296.28       283.53188      7907.1526      1.2711949      0.68039098   
     32300  -4789.6738     -4828.3075      38.633684      7423.2207      296.80555      7912.466       1.2703412      0.68039098   
     32400  -4789.2314     -4828.6779      39.446503      4415.5269      303.05007      7934.7883      1.2667675      0.68039098   
     32500  -4789.4973     -4829.6065      40.109124      8395.8784      308.1407       7965.6011      1.2618673      0.68039098   
     32600  -4789.0936     -4828.5557      39.462115      3865.562       303.17002      8002.9405      1.2559798      0.68039098   
     32700  -4787.8997     -4828.8197      40.919986      6063.6809      314.3702       8033.6727      1.2511751      0.68039098   
     32800  -4789.221      -4826.698       37.476961      6297.3856      287.91896      8053.1404      1.2481506      0.68039098   
     32900  -4788.6516     -4827.552       38.900359      2992.9788      298.85429      8057.9745      1.2474018      0.68039098   
     33000  -4789.0458     -4829.0981      40.052237      5883.4685      307.70366      8044.9547      1.2494205      0.72212185   
     33100  -4790.0893     -4828.3147      38.225341      2133.6554      293.66843      8014.8451      1.2541143      0.72212185   
     33200  -4790.4837     -4828.5418      38.058138      1087.7193      292.38388      7978.7437      1.2597888      0.72212185   
     33300  -4790.1335     -4830.8428      40.70937       4507.1271      312.75213      7943.6318      1.2653572      0.72212185   
     33400  -4788.9752     -4828.7027      39.727585      8028.6404      305.20951      7921.0133      1.2689704      0.72212185   
     33500  -4790.2969     -4829.3858      39.088857      2509.2872      300.30244      7916.1832      1.2697447      0.72212185   
     33600  -4791.381      -4829.8773      38.496271      7096.9038      295.74987      7925.8886      1.2681899      0.72212185   
     33700  -4792.0569     -4830.7784      38.721518      7688.557       297.48034      7946.5316      1.2648955      0.72212185   
     33800  -4791.277      -4830.5135      39.236501      7265.2089      301.43672      7971.4833      1.2609362      0.72212185   
     33900  -4790.1239     -4827.8154      37.691516      5415.0082      289.56729      7994.4915      1.2573072      0.72212185   
     34000  -4791.3437     -4830.4652      39.121553      4428.632       300.55363      8011.8083      1.2545896      0.66203706   
     34100  -4791.0981     -4829.1709      38.072842      6344.4591      292.49685      8021.4827      1.2530765      0.66203706   
     34200  -4791.6997     -4829.1273      37.427624      4384.3962      287.53992      8022.9756      1.2528434      0.66203706   
     34300  -4792.7445     -4830.7782      38.033722      3606.7478      292.1963       8009.7229      1.2549163      0.66203706   
     34400  -4791.1339     -4830.3937      39.25979       2119.9302      301.61564      7982.8142      1.2591464      0.66203706   
     34500  -4791.5833     -4829.424       37.840703      3719.206       290.71342      7950.5583      1.2642548      0.66203706   
     34600  -4790.4682     -4829.5486      39.080344      8314.906       300.23704      7923.5677      1.2685613      0.66203706   
     34700  -4791.1925     -4830.6436      39.451069      7255.1411      303.08516      7910.5486      1.2706491      0.66203706   
     34800  -4791.434      -4829.6015      38.167561      8562.926       293.22453      7918.3193      1.2694022      0.66203706   
     34900  -4790.9237     -4829.0761      38.152347      4744.5092      293.10765      7941.5386      1.2656907      0.66203706   
     35000  -4792.0512     -4829.4964      37.445212      3097.6704      287.67504      7972.2288      1.2608183      0.69575119   
     35100  -4792.0647     -4831.223       39.158318      5871.7423      300.83608      7997.6208      1.2568152      0.69575119   
     35200  -4792.5568     -4831.2916      38.73485       6131.4082      297.58276      8010.165       1.254847       0.69575119   
     35300  -4791.5377     -4829.0188      37.481124      5388.0889      287.95094      8012.0546      1.2545511      0.69575119   
     35400  -4792.6295     -4829.1635      36.534065      459.45221      280.6751       8005.4244      1.2555901      0.69575119   
     35500  -4792.1083     -4830.2433      38.134914      1642.4226      292.97372      7989.5038      1.2580921      0.69575119   
     35600  -4790.5382     -4829.8654      39.327197      4477.2094      302.1335       7970.5077      1.2610905      0.69575119   
     35700  -4788.697      -4828.4912      39.794229      5382.7278      305.72151      7954.6882      1.2635984      0.69575119   
     35800  -4788.3081     -4828.6432      40.335044      7573.3802      309.87634      7948.0902      1.2646474      0.69575119   
     35900  -4789.2614     -4828.2573      38.995882      5371.07        299.58815      7948.6774      1.264554       0.69575119   
     36000  -4789.846      -4829.3896      39.543604      4199.6794      303.79606      7951.4412      1.2641144      0.70457647   
     36100  -4791.3552     -4829.7687      38.41351       2259.762       295.11405      7954.1543      1.2636833      0.70457647   
     36200  -4792.6294     -4830.0989      37.469455      4513.1987      287.86129      7958.9221      1.2629263      0.70457647   
     36300  -4792.1584     -4830.9384      38.779987      2331.1954      297.92953      7962.4281      1.2623702      0.70457647   
     36400  -4791.3947     -4829.01        37.615227      5603.8416      288.98119      7963.435       1.2622106      0.70457647   
     36500  -4792.3855     -4829.5944      37.20886       4023.9246      285.85926      7963.0085      1.2622782      0.70457647   
     36600  -4792.7265     -4831.1358      38.409375      2722.2188      295.08228      7959.3157      1.2628638      0.70457647   
     36700  -4794.4346     -4831.5021      37.067486      1437.5519      284.77314      7947.499       1.2647415      0.70457647   
     36800  -4793.1994     -4830.0533      36.853845      3291.14        283.13183      7929.6274      1.2675919      0.70457647   
     36900  -4792.1181     -4829.8672      37.749046      7133.4515      290.00926      7910.6706      1.2706295      0.70457647   
     37000  -4792.9703     -4830.8003      37.829944      8747.9789      290.63077      7894.6165      1.2732134      0.69787697   
     37100  -4793.6895     -4829.4435      35.754048      5667.8299      274.68257      7892.8216      1.273503       0.69787697   
     37200  -4794.9709     -4832.2026      37.231755      5821.4472      286.03515      7904.3344      1.2716481      0.69787697   
     37300  -4793.944      -4831.4177      37.473649      5049.6343      287.89351      7923.0814      1.2686392      0.69787697   
     37400  -4793.187      -4831.1254      37.938425      1083.6818      291.46418      7944.0763      1.2652864      0.69787697   
     37500  -4792.9429     -4830.8885      37.945663      3718.8931      291.51978      7963.5685      1.2621894      0.69787697   
     37600  -4791.2672     -4830.6618      39.394593      5644.9629      302.65128      7977.1168      1.2600457      0.69787697   
     37700  -4791.6135     -4829.0835      37.469999      6343.3038      287.86547      7983.5981      1.2590228      0.69787697   
     37800  -4791.9614     -4831.5276      39.566117      4736.3143      303.96902      7983.7574      1.2589976      0.69787697   
     37900  -4790.8494     -4829.8468      38.997479      552.52987      299.60043      7978.5676      1.2598166      0.69787697   
     38000  -4791.7313     -4830.838       39.10677       3304.6293      300.44006      7970.8824      1.2610312      0.68011462   
     38100  -4792.1172     -4830.4831      38.36586       8024.2914      294.74797      7958.3143      1.2630227      0.68011462   
     38200  -4790.7058     -4828.9023      38.19651       8284.9138      293.44693      7944.9963      1.2651399      0.68011462   
     38300  -4789.5987     -4828.4292      38.830429      6553.5261      298.31705      7933.6369      1.2669513      0.68011462   
     38400  -4791.3338     -4829.2196      37.885821      4821.4511      291.06004      7925.7302      1.2682152      0.68011462   
     38500  -4790.697      -4829.2204      38.52335       3819.571       295.9579       7923.6285      1.2685516      0.68011462   
     38600  -4791.2436     -4829.8661      38.622468      4643.1436      296.71938      7932.0333      1.2672074      0.68011462   
     38700  -4790.6585     -4829.6857      39.027268      8088.878       299.82928      7946.8557      1.2648439      0.68011462   
     38800  -4792.229      -4830.9454      38.71646       4936.7654      297.44148      7969.2091      1.261296       0.68011462   
     38900  -4791.8016     -4829.5456      37.744036      9102.9586      289.97077      7989.7972      1.2580459      0.68011462   
     39000  -4792.2077     -4829.9187      37.711007      4050.6591      289.71703      8009.8105      1.2549026      0.64867816   
     39100  -4793.11       -4829.8555      36.745519      2801.0448      282.29961      8020.054       1.2532998      0.64867816   
     39200  -4793.002      -4831.4194      38.417392      7362.9965      295.14387      8012.3638      1.2545027      0.64867816   
     39300  -4793.4087     -4831.1939      37.785177      3360.1287      290.28685      7990.1184      1.2579953      0.64867816   
     39400  -4793.1316     -4829.8042      36.672532      4161.4806      281.73888      7956.7138      1.2632768      0.64867816   
     39500  -4792.2409     -4831.3567      39.115789      6894.6071      300.50935      7920.2107      1.269099       0.64867816   
     39600  -4792.6455     -4831.3994      38.753968      3576.5157      297.72964      7891.7861      1.2736701      0.64867816   
     39700  -4792.7152     -4830.8777      38.162508      2024.2004      293.18571      7878.4373      1.2758281      0.64867816   
     39800  -4792.4189     -4830.8399      38.421022      4077.1878      295.17176      7881.4743      1.2753365      0.64867816   
     39900  -4791.9697     -4830.8534      38.883729      4251.099       298.72653      7901.8087      1.2720545      0.64867816   
     40000  -4791.1466     -4829.2163      38.069626      7206.3836      292.47214      7933.1799      1.2670243      0.71047371   
     40100  -4792.47       -4830.7864      38.316404      3908.9603      294.36803      7968.4455      1.2614169      0.71047371   
     40200  -4790.7014     -4829.4894      38.787996      2666.1068      297.99106      7998.5392      1.2566709      0.71047371   
     40300  -4791.6748     -4828.8171      37.142295      2009.2212      285.34786      8017.9956      1.2536215      0.71047371   
     40400  -4790.8928     -4829.6181      38.725343      7356.9432      297.50973      8022.0652      1.2529855      0.71047371   
     40500  -4789.9204     -4829.2808      39.36034       5426.2494      302.38813      8009.5411      1.2549448      0.71047371   
     40600  -4790.2904     -4830.4103      40.11986       5603.7857      308.22318      7987.5132      1.2584057      0.71047371   
     40700  -4791.0631     -4830.4074      39.344223      6627.5391      302.26431      7963.3729      1.2622204      0.71047371   
     40800  -4791.6337     -4831.4094      39.775701      5847.2386      305.57916      7938.4629      1.2661811      0.71047371   
     40900  -4790.93       -4828.6672      37.737205      5517.6545      289.91829      7915.5382      1.2698482      0.71047371   
     41000  -4788.6326     -4829.0721      40.43945       5875.8725      310.67845      7899.7732      1.2723823      0.74503132   
     41100  -4791.0344     -4829.5221      38.487728      4716.1786      295.68423      7897.5808      1.2727355      0.74503132   
     41200  -4791.4011     -4830.1925      38.791431      5450.2604      298.01745      7907.7288      1.2711022      0.74503132   
     41300  -4791.1569     -4829.8692      38.712281      7926.9499      297.40937      7929.6579      1.267587       0.74503132   
     41400  -4791.2255     -4829.5129      38.287361      6946.3381      294.1449       7960.2474      1.262716       0.74503132   
     41500  -4792.2529     -4830.6601      38.407288      4457.3124      295.06625      7989.991       1.2580154      0.74503132   
     41600  -4793.9661     -4830.3648      36.398713      7625.9042      279.63525      8007.3521      1.2552878      0.74503132   
     41700  -4794.6791     -4831.9128      37.233683      6105.1676      286.04996      8012.7743      1.2544384      0.74503132   
     41800  -4792.9548     -4831.726       38.771229      2090.6294      297.86225      8002.316       1.2560778      0.74503132   
     41900  -4792.5661     -4830.3616      37.795455      2547.4438      290.36581      7978.7986      1.2597801      0.74503132   
     42000  -4791.7644     -4830.514       38.749519      6369.3154      297.69546      7950.6768      1.264236       0.7223166    
     42100  -4792.7967     -4831.7035      38.906727      2822.829       298.90321      7930.0134      1.2675302      0.7223166    
     42200  -4792.88       -4830.8036      37.923602      4151.6939      291.3503       7919.493       1.269214       0.7223166    
     42300  -4792.5524     -4832.6281      40.075617      5019.6458      307.88328      7915.5216      1.2698508      0.7223166    
     42400  -4793.4278     -4831.5344      38.106593      7914.0264      292.75614      7918.549       1.2693653      0.7223166    
     42500  -4792.7985     -4829.2822      36.483711      4033.0388      280.28825      7931.8848      1.2672312      0.7223166    
     42600  -4791.7873     -4829.8521      38.06488       4586.7117      292.43568      7950.435       1.2642744      0.7223166    
     42700  -4791.5375     -4830.4599      38.922385      7996.9453      299.02351      7969.8316      1.2611975      0.7223166    
     42800  -4791.4362     -4829.7116      38.275347      6229.645       294.0526       7992.3856      1.2576385      0.7223166    
     42900  -4791.7489     -4831.1484      39.399464      2921.6256      302.6887       8016.8295      1.2538039      0.7223166    
     43000  -4791.6425     -4829.9635      38.321065      4937.7341      294.40384      8033.7149      1.2511686      0.64195733   
     43100  -4790.8773     -4830.4454      39.568136      5957.3614      303.98453      8035.0278      1.2509641      0.64195733   
     43200  -4790.5338     -4829.0213      38.487518      4916.2363      295.68262      8022.9303      1.2528504      0.64195733   
     43300  -4792.4552     -4830.2828      37.827633      6069.3688      290.61302      7997.3396      1.2568594      0.64195733   
     43400  -4792.1621     -4831.2687      39.106607      5465.6594      300.43881      7961.2158      1.2625624      0.64195733   
     43500  -4792.4578     -4830.4218      37.964054      5472.1987      291.66108      7929.1538      1.2676676      0.64195733   
     43600  -4789.8276     -4829.5197      39.692151      5567.6825      304.93728      7908.4953      1.270979       0.64195733   
     43700  -4788.6298     -4826.8888      38.259003      5800.7644      293.92704      7907.7463      1.2710994      0.64195733   
     43800  -4788.3809     -4827.3017      38.920865      5544.7024      299.01183      7928.0909      1.2678376      0.64195733   
     43900  -4789.7239     -4827.9599      38.235976      6712.4924      293.75013      7966.0127      1.2618021      0.64195733   
     44000  -4790.4641     -4829.0366      38.572526      2124.5267      296.3357       8009.0311      1.2550247      0.66374598   
     44100  -4791.7552     -4831.3045      39.549253      716.58576      303.83946      8044.0716      1.2495577      0.66374598   
     44200  -4791.8326     -4828.3773      36.544696      3016.32        280.75678      8067.1246      1.2459869      0.66374598   
     44300  -4792.5265     -4830.0796      37.553043      1991.7305      288.50346      8073.1665      1.2450544      0.66374598   
     44400  -4792.1808     -4830.1071      37.926329      4708.4338      291.37125      8059.6567      1.2471414      0.66374598   
     44500  -4791.3116     -4828.6266      37.315002      6419.4977      286.6747       8030.1269      1.2517276      0.66374598   
     44600  -4789.2859     -4828.9145      39.628572      6736.6098      304.44883      7994.3168      1.2573347      0.66374598   
     44700  -4790.0266     -4829.1734      39.146831      2862.0724      300.74783      7959.0235      1.2629102      0.66374598   
     44800  -4789.0696     -4828.0136      38.944029      4962.2839      299.18979      7927.6195      1.267913       0.66374598   
     44900  -4792.3097     -4829.5828      37.273101      4682.5596      286.35279      7911.3669      1.2705177      0.66374598   
     45000  -4792.5103     -4830.7931      38.282786      6362.8606      294.10975      7913.3315      1.2702023      0.69832759   
     45100  -4793.4189     -4830.5227      37.103822      4881.6534      285.0523       7926.3873      1.2681101      0.69832759   
     45200  -4791.9114     -4830.6544      38.743033      5185.5108      297.64563      7944.6639      1.2651928      0.69832759   
     45300  -4790.8618     -4829.6485      38.786683      6818.9639      297.98097      7970.1152      1.2611526      0.69832759   
     45400  -4791.2508     -4830.7345      39.483664      6743.5746      303.33557      7999.5175      1.2565172      0.69832759   
     45500  -4791.3144     -4830.0142      38.699837      5147.1483      297.31377      8024.8808      1.2525459      0.69832759   
     45600  -4791.7349     -4830.3723      38.637371     -754.20508      296.83387      8040.655       1.2500887      0.69832759   
     45700  -4790.5019     -4828.8213      38.319395      3047.6565      294.391        8042.3365      1.2498273      0.69832759   
     45800  -4789.9379     -4828.2971      38.359176      4594.737       294.69662      8030.6748      1.2516422      0.69832759   
     45900  -4789.7802     -4829.0825      39.302291      4983.2322      301.94216      8007.0181      1.2553402      0.69832759   
     46000  -4790.6769     -4828.5994      37.922559      3999.8877      291.34229      7970.3591      1.261114       0.64184489   
     46100  -4790.4693     -4828.7687      38.299401      7187.3273      294.2374       7931.5911      1.2672781      0.64184489   
     46200  -4789.6727     -4829.885       40.212337      6191.4856      308.93364      7903.1936      1.2718316      0.64184489   
     46300  -4789.7654     -4829.1852      39.419881      4434.7216      302.84555      7887.0869      1.2744289      0.64184489   
     46400  -4789.1118     -4828.9322      39.820397      8809.1509      305.92254      7891.3166      1.2737458      0.64184489   
     46500  -4789.7956     -4828.5497      38.754151      2661.0244      297.73105      7919.9194      1.2691457      0.64184489   
     46600  -4789.9941     -4827.7599      37.765804      6593.2587      290.13801      7964.6655      1.2620155      0.64184489   
     46700  -4791.3347     -4829.5749      38.240165      3454.7664      293.78232      8017.9569      1.2536276      0.64184489   
     46800  -4791.4937     -4829.603       38.109249      4170.6666      292.77654      8063.5172      1.2465443      0.64184489   
     46900  -4791.638      -4830.8012      39.163216      5738.096       300.87371      8085.8941      1.2430946      0.64184489   
     47000  -4791.2134     -4830.1965      38.983114      3944.041       299.49007      8084.1722      1.2433594      0.62738557   
     47100  -4791.7078     -4829.7598      38.051985      4380.0501      292.33661      8060.1713      1.2470618      0.62738557   
     47200  -4792.3481     -4829.3282      36.980143      5643.7341      284.10212      8017.6731      1.2536719      0.62738557   
     47300  -4792.3694     -4828.7269      36.357448      6300.1085      279.31823      7967.3974      1.2615828      0.62738557   
     47400  -4791.5539     -4829.9732      38.419308      4819.9199      295.15859      7917.8439      1.2694784      0.62738557   
     47500  -4789.9866     -4828.626       38.639375      6166.2089      296.84927      7883.0957      1.2750742      0.62738557   
     47600  -4789.5674     -4828.4164      38.849011      6697.8117      298.45981      7872.8033      1.2767411      0.62738557   
     47700  -4790.8297     -4828.96        38.130383      2762.1764      292.93891      7885.1462      1.2747426      0.62738557   
     47800  -4791.0261     -4829.2757      38.249667      3291.31        293.85532      7914.8403      1.2699601      0.62738557   
     47900  -4791.9704     -4829.7098      37.739411      2492.3859      289.93525      7959.6995      1.2628029      0.62738557   
     48000  -4793.0373     -4829.803       36.765736      5534.9045      282.45493      8009.063       1.2550197      0.64752089   
     48100  -4792.4217     -4830.1352      37.713518      3374.393       289.73632      8046.1224      1.2492392      0.64752089   
     48200  -4791.9376     -4829.4276      37.489947      4392.4867      288.01872      8062.3546      1.2467241      0.64752089   
     48300  -4792.0043     -4828.9003      36.895939      3251.9245      283.45522      8059.9592      1.2470946      0.64752089   
     48400  -4792.3051     -4830.4178      38.11265       2939.1272      292.80267      8039.6812      1.2502401      0.64752089   
     48500  -4793.2716     -4831.4208      38.149197      4433.1922      293.08345      8004.5064      1.2557341      0.64752089   
     48600  -4790.8427     -4828.9888      38.146115      3128.4113      293.05977      7965.855       1.2618271      0.64752089   
     48700  -4792.2197     -4830.6183      38.398561      3032.7463      294.9992       7937.1672      1.2663878      0.64752089   
     48800  -4791.8174     -4828.4658      36.648422      4177.378       281.55366      7915.9555      1.2697812      0.64752089   
     48900  -4790.1888     -4829.6247      39.435883      7108.1785      302.96849      7907.7653      1.2710964      0.64752089   
     49000  -4790.8374     -4826.7811      35.943639      7021.2845      276.13912      7919.2171      1.2692583      0.72454786   
     49100  -4791.3915     -4829.5248      38.133272      4097.8894      292.9611       7943.9208      1.2653112      0.72454786   
     49200  -4791.7443     -4830.5842      38.839807      4317.9442      298.3891       7969.9383      1.2611806      0.72454786   
     49300  -4792.1529     -4829.493       37.340147      5333.6447      286.86787      7996.7828      1.2569469      0.72454786   
     49400  -4793.2242     -4830.9123      37.68812       5630.5961      289.5412       8019.4128      1.2534         0.72454786   
     49500  -4792.2736     -4828.9576      36.683918      2471.2991      281.82635      8034.5058      1.2510454      0.72454786   
     49600  -4791.1567     -4828.1719      37.015123      1392.4103      284.37086      8039.4688      1.2502731      0.72454786   
     49700  -4791.7308     -4830.3166      38.585767      1840.6492      296.43742      8033.2963      1.2512338      0.72454786   
     49800  -4790.886      -4828.3091      37.42302       4014.5623      287.50455      8015.4071      1.2540263      0.72454786   
     49900  -4791.2476     -4829.322       38.074437      4711.4563      292.5091       7992.7557      1.2575802      0.72454786   
     50000  -4790.8868     -4829.2793      38.392532      4776.0648      294.95288      7966.7588      1.2616839      0.69839993   
     50100  -4790.7976     -4829.7479      38.950284      5050.6951      299.23785      7942.6744      1.2655097      0.69839993   
     50200  -4789.4971     -4828.7721      39.274933      7960.788       301.73198      7926.5891      1.2680778      0.69839993   
     50300  -4788.7592     -4827.2015      38.44226       7296.9921      295.33492      7923.5122      1.2685702      0.69839993   
     50400  -4789.871      -4829.1078      39.236709      8308.1984      301.43833      7931.6062      1.2672757      0.69839993   
     50500  -4789.4434     -4828.1861      38.742695      9342.404       297.64303      7956.0411      1.2633836      0.69839993   
     50600  -4788.352      -4827.7028      39.35075       3862.2202      302.31445      7993.48        1.2574663      0.69839993   
     50700  -4788.1928     -4826.6849      38.492065      813.5795       295.71755      8034.1604      1.2510992      0.69839993   
     50800  -4788.2847     -4827.2346      38.94981       3673.7585      299.23421      8068.4283      1.2457856      0.69839993   
     50900  -4789.0841     -4828.77        39.685947      2164.9842      304.88962      8085.8025      1.2431087      0.69839993   
     51000  -4789.865      -4829.5784      39.713377      1644.9916      305.10035      8081.571       1.2437596      0.67098137   
     51100  -4791.6548     -4829.8409      38.186144     -63.718472      293.3673       8055.5513      1.247777       0.67098137   
     51200  -4791.7081     -4829.7257      38.017597      3885.8664      292.07243      8009.1465      1.2550066      0.67098137   
     51300  -4792.4874     -4830.163       37.675646      10157.782      289.44537      7952.1523      1.2640014      0.67098137   
     51400  -4791.9043     -4830.0574      38.153022      8717.1427      293.11284      7901.1927      1.2721537      0.67098137   
     51500  -4791.7709     -4831.2716      39.500712      6531.6773      303.46654      7868.654       1.2774144      0.67098137   
     51600  -4792.7306     -4830.3579      37.627245      8496.726       289.07352      7860.3376      1.2787659      0.67098137   
     51700  -4793.4598     -4831.8863      38.426539      4839.1686      295.21415      7874.63        1.2764449      0.67098137   
     51800  -4791.8972     -4830.3423      38.445063      4820.911       295.35645      7906.0908      1.2713656      0.67098137   
     51900  -4792.9386     -4830.2131      37.27455       6872.2673      286.36392      7947.266       1.2647786      0.67098137   
     52000  -4792.4116     -4829.0842      36.67256       7503.8057      281.7391       7992.6194      1.2576017      0.66151615   
     52100  -4791.9714     -4829.87        37.898606      1861.7091      291.15826      8034.8651      1.2509895      0.66151615   
     52200  -4790.6135     -4830.0034      39.389837      2924.7636      302.61474      8062.3446      1.2467256      0.66151615   
     52300  -4791.9134     -4830.0696      38.156121      5731.6026      293.13664      8074.9728      1.2447759      0.66151615   
     52400  -4791.2178     -4829.387       38.169208      6758.4271      293.23719      8065.1825      1.246287       0.66151615   
     52500  -4790.3057     -4828.5695      38.263805      7472.0703      293.96393      8033.6614      1.2511769      0.66151615   
     52600  -4789.5552     -4828.4352      38.880035      2800.2983      298.69815      7988.111       1.2583115      0.66151615   
     52700  -4789.6631     -4828.4361      38.773025      6584.0731      297.87604      7941.7068      1.2656639      0.66151615   
     52800  -4789.0453     -4829.5992      40.553913      5478.1258      311.55782      7909.411       1.2708319      0.66151615   
     52900  -4789.2892     -4828.2786      38.989475      9478.8536      299.53893      7892.7444      1.2735154      0.66151615   
     53000  -4789.6843     -4830.0009      40.316612      7124.9475      309.73474      7897.8205      1.2726969      0.62989703   
     53100  -4790.246      -4830.2372      39.991254      4565.8887      307.23516      7925.7715      1.2682086      0.62989703   
     53200  -4791.5552     -4830.2664      38.711269      8422.8743      297.4016       7964.666       1.2620155      0.62989703   
     53300  -4791.7141     -4829.7195      38.005397      4514.3079      291.97869      8005.035       1.2556512      0.62989703   
     53400  -4791.4784     -4829.8626      38.384216      3083.5063      294.88899      8037.7401      1.250542       0.62989703   
     53500  -4789.4396     -4829.5345      40.094896      1246.457       308.0314       8056.9231      1.2475646      0.62989703   
     53600  -4789.4739     -4826.0715      36.597576      1003.8288      281.16303      8060.4197      1.2470234      0.62989703   
     53700  -4789.8988     -4828.9972      39.09838       4956.2501      300.37561      8047.9693      1.2489525      0.62989703   
     53800  -4791.6039     -4829.6894      38.08548       5836.8521      292.59393      8022.973       1.2528438      0.62989703   
     53900  -4791.5968     -4829.45        37.853245      4324.1409      290.80978      7990.3306      1.2579619      0.62989703   
     54000  -4790.044      -4827.5192      37.475138      5159.5781      287.90495      7952.5512      1.263938       0.68524539   
     54100  -4790.3264     -4828.9556      38.629224      8267.7422      296.77128      7921.6468      1.2688689      0.68524539   
     54200  -4791.2654     -4830.353       39.087603      10844.886      300.29281      7905.1771      1.2715125      0.68524539   
     54300  -4790.7145     -4829.1783      38.463791      7522.0845      295.50033      7906.8859      1.2712377      0.68524539   
     54400  -4791.1069     -4828.6294      37.522494      7267.3529      288.26877      7928.0753      1.2678401      0.68524539   
     54500  -4791.3877     -4831.0184      39.630744      2407.9887      304.46552      7966.7314      1.2616883      0.68524539   
     54600  -4790.5944     -4828.8841      38.289702      2479.5229      294.16289      8013.553       1.2543165      0.68524539   
     54700  -4791.848      -4828.6308      36.78277       2183.8722      282.58579      8055.5212      1.2477817      0.68524539   
     54800  -4792.4265     -4829.8223      37.395804      3069.6218      287.29546      8083.771       1.2434211      0.68524539   
     54900  -4791.4731     -4829.0078      37.534699      6150.2496      288.36253      8090.4421      1.2423958      0.68524539   
     55000  -4791.5232     -4829.6264      38.103176      4831.9353      292.72989      8075.6502      1.2446715      0.68108852   
     55100  -4790.9678     -4829.8288      38.860991      4573.0388      298.55185      8039.61        1.2502512      0.68108852   
     55200  -4791.8763     -4829.5951      37.71882       4890.0879      289.77705      7985.4763      1.2587266      0.68108852   
     55300  -4791.0732     -4828.7917      37.718493      4671.0563      289.77454      7927.3909      1.2679495      0.68108852   
     55400  -4791.0651     -4829.9271      38.86196       3006.8964      298.55929      7881.9836      1.2752541      0.68108852   
     55500  -4792.574      -4829.3076      36.733618      8076.4646      282.20818      7854.8376      1.2796613      0.68108852   
     55600  -4792.2937     -4830.8221      38.528402      7120.2622      295.99671      7850.8206      1.2803161      0.68108852   
     55700  -4793.4966     -4830.6528      37.156209      4614.0945      285.45476      7868.4897      1.277441       0.68108852   
     55800  -4793.5806     -4830.4532      36.872621      5760.5748      283.27608      7902.3876      1.2719614      0.68108852   
     55900  -4793.202      -4830.3422      37.140211      6426.9931      285.33185      7948.4789      1.2645856      0.68108852   
     56000  -4792.4986     -4830.1069      37.608331      4268.0057      288.92821      7994.7819      1.2572615      0.68635528   
     56100  -4791.4542     -4829.9426      38.48842      -687.38183      295.68955      8034.7021      1.2510149      0.68635528   
     56200  -4789.406      -4828.9155      39.509482      2207.523       303.53392      8059.119       1.2472246      0.68635528   
     56300  -4789.8375     -4828.4493      38.611822      1733.6602      296.63759      8068.9428      1.2457061      0.68635528   
     56400  -4788.7578     -4829.271       40.513123     -922.99788      311.24445      8059.9238      1.2471001      0.68635528   
     56500  -4788.2202     -4827.2862      39.065937      5988.5379      300.12635      8033.6169      1.2511838      0.68635528   
     56600  -4789.1842     -4829.7204      40.536122      3118.7299      311.42114      8004.2816      1.2557694      0.68635528   
     56700  -4788.9145     -4829.4263      40.511825      5039.3469      311.23448      7975.1053      1.2603635      0.68635528   
     56800  -4789.4691     -4826.8658      37.396709      4929.2573      287.30241      7949.7966      1.264376       0.68635528   
     56900  -4790.4417     -4830.0602      39.618487      4844.8334      304.37135      7939.5883      1.2660016      0.68635528   
     57000  -4788.4984     -4828.6677      40.169294      4175.7668      308.60296      7940.229       1.2658995      0.68415971   
     57100  -4787.9573     -4829.1265      41.169245      1487.9564      316.28514      7950.8784      1.2642039      0.68415971   
     57200  -4790.3521     -4828.7353      38.383246      2870.9121      294.88154      7970.836       1.2610386      0.68415971   
[...]
    386200  -4791.6569     -4830.403       38.746113      3897.7912      297.66929      8028.5723      1.25197        0.7398336    
    386300  -4790.9664     -4830.8288      39.862408      4521.9794      306.2453       8017.6219      1.2536799      0.7398336    
    386400  -4789.702      -4829.6484      39.946426      3291.1131      306.89077      7997.2979      1.256866       0.7398336    
    386500  -4790.2369     -4829.6384      39.401512      3467.9999      302.70443      7977.8595      1.2599284      0.7398336    
    386600  -4791.2978     -4829.1573      37.859455      1005.5634      290.85749      7971.4678      1.2609386      0.7398336    
    386700  -4790.785      -4829.7756      38.990639      3515.7572      299.54788      7974.8731      1.2604002      0.7398336    
    386800  -4790.8899     -4829.8536      38.963727      3300.2653      299.34112      7982.9339      1.2591275      0.7398336    
    386900  -4791.8197     -4830.2321      38.412413      5061.9436      295.10562      7992.509       1.2576191      0.7398336    
    387000  -4792.732      -4829.9261      37.194125      5570.9877      285.74605      7999.932       1.2564521      0.70129277   
    387100  -4793.5867     -4832.0517      38.464995      5809.3435      295.50959      8000.2521      1.2564019      0.70129277   
    387200  -4792.8877     -4831.7211      38.833445      2256.2845      298.34022      7993.0854      1.2575284      0.70129277   
    387300  -4791.5862     -4830.8261      39.239841      5098.4236      301.46239      7981.3742      1.2593736      0.70129277   
    387400  -4790.4121     -4830.0338      39.621691      1867.1813      304.39597      7970.5373      1.2610858      0.70129277   
    387500  -4790.8259     -4829.2441      38.418249      2938.22        295.15046      7967.0884      1.2616318      0.70129277   
    387600  -4792.4081     -4830.6168      38.208709      2492.5478      293.54066      7968.6077      1.2613912      0.70129277   
    387700  -4792.0883     -4830.0021      37.913787      6448.8146      291.2749       7967.5092      1.2615651      0.70129277   
    387800  -4793.1138     -4830.4938      37.379989      4529.7875      287.17396      7966.8741      1.2616657      0.70129277   
    387900  -4793.1361     -4832.0442      38.90809       7189.9811      298.91369      7966.5269      1.2617207      0.70129277   
    388000  -4792.9091     -4831.6643      38.755162      8060.7612      297.73881      7965.5245      1.2618795      0.64363296   
    388100  -4793.1268     -4831.4215      38.294689      5667.0492      294.2012       7966.7727      1.2616817      0.64363296   
    388200  -4791.8885     -4830.044       38.155465      9146.7701      293.1316       7972.3252      1.260803       0.64363296   
    388300  -4791.873      -4830.1909      38.317917      8499.4105      294.37965      7981.3267      1.2593811      0.64363296   
    388400  -4792.0496     -4830.4433      38.393721      1947.5093      294.96202      7988.4983      1.2582505      0.64363296   
    388500  -4790.6101     -4828.6495      38.039389      547.07835      292.23984      7990.7071      1.2579027      0.64363296   
    388600  -4790.9541     -4828.9327      37.978616      2094.8307      291.77295      7996.1108      1.2570526      0.64363296   
    388700  -4791.019      -4829.1031      38.084063      5316.224       292.58305      8004.9639      1.2556623      0.64363296   
    388800  -4792.3167     -4830.8442      38.527511      5356.4432      295.98987      8012.3411      1.2545062      0.64363296   
    388900  -4792.5813     -4828.9219      36.340576      5764.9625      279.18861      8016.5972      1.2538402      0.64363296   
    389000  -4791.4078     -4829.2825      37.874714      1504.4054      290.97472      8015.5496      1.254004       0.67372712   
    389100  -4790.9186     -4829.7588      38.840236      2842.374       298.39239      8006.0505      1.2554919      0.67372712   
    389200  -4791.6581     -4830.3717      38.713622      3758.6191      297.41967      7991.6399      1.2577558      0.67372712   
    389300  -4790.4921     -4829.2824      38.790235      5771.0018      298.00826      7973.9213      1.2605506      0.67372712   
    389400  -4789.4485     -4829.9233      40.474835      5601.3703      310.9503       7958.342       1.2630183      0.67372712   
    389500  -4787.305      -4827.2385      39.933489      5355.938       306.79138      7949.0509      1.2644946      0.67372712   
    389600  -4788.8183     -4828.1857      39.367379      4645.6596      302.44221      7946.04        1.2649737      0.67372712   
    389700  -4787.3679     -4827.6223      40.254377      8368.8916      309.25661      7955.1891      1.2635189      0.67372712   
    389800  -4787.821      -4827.7804      39.959398      8704.3353      306.99043      7976.7025      1.2601111      0.67372712   
    389900  -4787.7623     -4829.0247      41.262434      4953.8773      317.00108      7999.9556      1.2564484      0.67372712   
    390000  -4787.4762     -4827.8695      40.3933        2476.8871      310.3239       8017.4963      1.2536996      0.7089624    
    390100  -4789.5913     -4827.5213      37.930013      5718.3605      291.39956      8029.1317      1.2518828      0.7089624    
    390200  -4789.1651     -4828.4573      39.292152      4937.1375      301.86426      8025.3438      1.2524737      0.7089624    
    390300  -4789.6412     -4829.845       40.203754      3172.829       308.8677       8008.9741      1.2550336      0.7089624    
    390400  -4788.6187     -4827.4363      38.817522      5359.3445      298.21789      7987.0776      1.2584743      0.7089624    
    390500  -4788.5046     -4830.1262      41.621611      4427.5554      319.76047      7969.0144      1.2613268      0.7089624    
    390600  -4788.2446     -4829.528       41.283341      5307.6685      317.16169      7955.3559      1.2634924      0.7089624    
    390700  -4789.3524     -4829.2047      39.852317      4365.7505      306.16777      7948.907       1.2645175      0.7089624    
    390800  -4788.3288     -4827.6122      39.283469      2423.7461      301.79756      7951.2217      1.2641493      0.7089624    
    390900  -4789.0198     -4828.1329      39.113092      3977.7045      300.48863      7959.5975      1.2628191      0.7089624    
    391000  -4789.1216     -4827.3121      38.190519      2423.3627      293.4009       7970.2693      1.2611282      0.86134194   
    391100  -4789.1074     -4828.9029      39.795512      3681.8869      305.73136      7983.5004      1.2590382      0.86134194   
    391200  -4789.4464     -4827.3296      37.883162      5640.1868      291.03962      7996.9999      1.2569128      0.86134194   
    391300  -4790.3492     -4829.8136      39.464375      584.70694      303.18738      8007.5366      1.2552589      0.86134194   
    391400  -4790.209      -4827.8382      37.629219      4188.8594      289.08868      8009.695       1.2549207      0.86134194   
    391500  -4789.927      -4827.9854      38.058334      7757.3185      292.38538      8006.8289      1.2553699      0.86134194   
    391600  -4791.4317     -4829.1686      37.736853      4075.6326      289.91559      8001.9953      1.2561282      0.86134194   
    391700  -4792.2037     -4830.0573      37.853582      2934.42        290.81237      7993.6335      1.2574422      0.86134194   
    391800  -4793.6984     -4829.8996      36.201253      4876.4095      278.11826      7978.8983      1.2597644      0.86134194   
    391900  -4793.7543     -4832.0541      38.299793      7148.8906      294.24041      7957.3964      1.2631684      0.86134194   
    392000  -4792.9175     -4830.5518      37.634343      6369.5948      289.12805      7937.9119      1.266269       0.6760815    
    392100  -4791.451      -4829.7539      38.302924      5813.0797      294.26446      7923.4088      1.2685868      0.6760815    
    392200  -4792.0716     -4830.1183      38.046685      7835.3441      292.29589      7919.5553      1.2692041      0.6760815    
    392300  -4792.3454     -4830.1055      37.760101      4649.0641      290.0942       7930.1761      1.2675042      0.6760815    
    392400  -4792.9054     -4829.1252      36.219779      7638.9404      278.26058      7952.9607      1.2638729      0.6760815    
    392500  -4790.9649     -4829.1656      38.20069       5261.0119      293.47904      7979.4474      1.2596777      0.6760815    
    392600  -4792.2945     -4830.3296      38.035072      3699.1462      292.20668      8007.579       1.2552523      0.6760815    
    392700  -4793.0172     -4831.6995      38.682285      4188.6307      297.17893      8029.0356      1.2518978      0.6760815    
    392800  -4794.2401     -4830.3126      36.072488      2837.5595      277.12901      8034.8595      1.2509903      0.6760815    
    392900  -4793.5082     -4831.9464      38.438217      933.32993      295.30386      8024.0099      1.2526819      0.6760815    
    393000  -4792.3985     -4830.1356      37.737136      5940.924       289.91776      7997.0822      1.2568999      0.63555864   
    393100  -4792.8772     -4830.5382      37.660976      5807.9495      289.33266      7964.7648      1.2619998      0.63555864   
    393200  -4792.8934     -4830.979       38.085614      7527.3621      292.59497      7936.245       1.266535       0.63555864   
    393300  -4791.9463     -4828.8594      36.91316       5172.1423      283.58752      7915.0384      1.2699284      0.63555864   
    393400  -4791.9704     -4829.9047      37.934243      4111.9422      291.43205      7907.6129      1.2711209      0.63555864   
    393500  -4791.3149     -4829.1527      37.837786      4823.0768      290.69101      7914.1802      1.2700661      0.63555864   
    393600  -4790.4598     -4829.5551      39.095347      5185.9907      300.3523       7933.786       1.2669275      0.63555864   
    393700  -4789.6024     -4829.3116      39.70918       3016.3441      305.06811      7964.0711      1.2621097      0.63555864   
    393800  -4790.5649     -4828.1615      37.596594      578.47704      288.83804      7998.2868      1.2567106      0.63555864   
    393900  -4791.4239     -4830.0081      38.584143      1710.2253      296.42495      8032.9329      1.2512904      0.63555864   
    394000  -4792.7037     -4830.7945      38.090764     -804.44257      292.63453      8057.3306      1.2475015      0.68666341   
    394100  -4791.8394     -4829.2564      37.416973      1128.6414      287.4581       8062.5787      1.2466894      0.68666341   
    394200  -4792.7392     -4830.2732      37.534066      463.171        288.35766      8048.5536      1.2488619      0.68666341   
    394300  -4790.7308     -4829.6527      38.921856      6362.2254      299.01944      8016.6092      1.2538383      0.68666341   
    394400  -4791.5867     -4828.9954      37.408759      4294.5701      287.39499      7972.9835      1.2606989      0.68666341   
    394500  -4791.4352     -4829.8058      38.370606      7574.0395      294.78443      7929.7556      1.2675714      0.68666341   
    394600  -4791.4853     -4830.4333      38.947944      3905.39        299.21987      7895.5506      1.2730628      0.68666341   
    394700  -4791.6047     -4830.7195      39.114845      7699.3081      300.5021       7878.0335      1.2758935      0.68666341   
    394800  -4793.3137     -4831.4227      38.109043      7149.6752      292.77496      7881.0765      1.2754009      0.68666341   
    394900  -4793.5804     -4831.5738      37.99339       6045.336       291.88645      7903.5788      1.2717697      0.68666341   
    395000  -4793.6578     -4831.1691      37.511274      6825.1703      288.18257      7939.3383      1.2660415      0.6851695    
    395100  -4793.4454     -4831.5015      38.05609       4935.8414      292.36815      7981.075       1.2594208      0.6851695    
    395200  -4792.2133     -4830.0049      37.791594      3588.464       290.33614      8019.57        1.2533754      0.6851695    
    395300  -4791.7027     -4829.2728      37.570074      4584.205       288.6343       8048.9068      1.2488071      0.6851695    
    395400  -4791.8713     -4829.9703      38.098981      6141.2261      292.69766      8065.8442      1.2461847      0.6851695    
    395500  -4792.0582     -4829.6398      37.581576      5179.9417      288.72267      8064.7091      1.2463601      0.6851695    
    395600  -4791.2654     -4829.5944      38.329067      5070.15        294.46531      8046.7229      1.249146       0.6851695    
    395700  -4790.0443     -4828.1218      38.07752       5995.7651      292.53278      8018.2808      1.2535769      0.6851695    
    395800  -4789.2991     -4827.9053      38.606189      4907.8304      296.59432      7986.6116      1.2585477      0.6851695    
    395900  -4788.7964     -4829.0234      40.227021      5789.9535      309.04645      7963.3846      1.2622185      0.6851695    
    396000  -4790.1134     -4829.2117      39.098263      3688.8945      300.3747       7949.7186      1.2643884      0.7678166    
    396100  -4789.7963     -4829.9292      40.132928      4378.3501      308.32358      7946.0253      1.264976       0.7678166    
    396200  -4789.4633     -4828.3873      38.923998      5823.8072      299.0359       7954.8191      1.2635777      0.7678166    
    396300  -4790.4406     -4828.3133      37.872682      5895.0016      290.95911      7974.1248      1.2605185      0.7678166    
    396400  -4791.3967     -4829.4654      38.068777      4309.6059      292.46562      7997.5598      1.2568248      0.7678166    
    396500  -4791.8909     -4829.3625      37.47166       6165.9087      287.87823      8014.9373      1.2540999      0.7678166    
    396600  -4791.5277     -4829.5685      38.04088       3745.958       292.2513       8025.4014      1.2524647      0.7678166    
    396700  -4790.2016     -4827.7273      37.525684      3024.7931      288.29327      8026.0167      1.2523687      0.7678166    
    396800  -4791.2436     -4830.1881      38.94457       3329.6793      299.19394      8018.749       1.2535037      0.7678166    
    396900  -4790.7074     -4828.1002      37.392822      3705.6397      287.27255      8005.3492      1.2556019      0.7678166    
    397000  -4789.7087     -4827.8885      38.179763      7797.7495      293.31827      7990.8162      1.2578855      0.63852205   
    397100  -4791.2367     -4828.7035      37.466807      7827.9066      287.84095      7979.9424      1.2595995      0.63852205   
    397200  -4790.8927     -4829.4833      38.590594      4191.3976      296.47451      7972.8738      1.2607163      0.63852205   
    397300  -4791.3864     -4830.1458      38.759388      4136.2753      297.77127      7968.4594      1.2614147      0.63852205   
    397400  -4793.5458     -4831.2641      37.718283      5544.2319      289.77293      7965.2656      1.2619205      0.63852205   
    397500  -4792.9001     -4830.8905      37.990354      5699.8962      291.86313      7961.4222      1.2625297      0.63852205   
    397600  -4792.7547     -4830.893       38.138314      5559.7683      292.99984      7958.4242      1.2630053      0.63852205   
    397700  -4791.2244     -4829.0634      37.838946      6516.589       290.69993      7955.5398      1.2634632      0.63852205   
    397800  -4790.9845     -4828.5952      37.610668      7402.1858      288.94617      7958.2469      1.2630334      0.63852205   
    397900  -4790.5181     -4829.33        38.811875      3900.2079      298.17451      7968.8406      1.2613543      0.63852205   
    398000  -4792.4384     -4830.8794      38.441017      3745.1335      295.32537      7982.2566      1.2592343      0.64276719   
    398100  -4792.2951     -4829.8707      37.575616      940.97342      288.67688      7992.401       1.2576361      0.64276719   
    398200  -4792.4752     -4831.0009      38.525688      3898.4974      295.97586      7996.8888      1.2569303      0.64276719   
    398300  -4792.0389     -4831.0023      38.963415      2906.4683      299.33872      7991.7543      1.2577378      0.64276719   
    398400  -4793.383      -4830.1043      36.721302      5852.8219      282.11356      7979.4133      1.2596831      0.64276719   
    398500  -4793.408      -4829.7215      36.31347       2530.7779      278.98037      7965.4834      1.261886       0.64276719   
    398600  -4794.1467     -4831.4143      37.267587      4759.5448      286.31043      7953.1992      1.263835       0.64276719   
    398700  -4791.4841     -4829.8401      38.355993      7363.5092      294.67217      7944.0132      1.2652964      0.64276719   
    398800  -4791.4038     -4830.2331      38.829272      4691.8362      298.30817      7938.9899      1.2660971      0.64276719   
    398900  -4791.3516     -4829.3133      37.961681      3842.8319      291.64285      7936.1246      1.2665542      0.64276719   
    399000  -4791.0889     -4830.1095      39.020562      5470.1126      299.77776      7935.7211      1.2666186      0.65857806   
    399100  -4791.4241     -4829.2678      37.843704      1034.7722      290.73648      7941.2301      1.2657399      0.65857806   
    399200  -4792.3691     -4830.4771      38.108007      4533.0827      292.767        7954.8458      1.2635734      0.65857806   
    399300  -4792.6782     -4830.8662      38.188036      8097.7385      293.38183      7976.25        1.2601826      0.65857806   
    399400  -4793.2527     -4830.741       37.488295      6448.7928      288.00603      8000.3678      1.2563837      0.65857806   
    399500  -4791.24       -4829.5886      38.348568      5927.6487      294.61513      8018.7245      1.2535075      0.65857806   
    399600  -4789.3075     -4827.8123      38.504827      3007.048       295.81559      8026.49        1.2522948      0.65857806   
    399700  -4789.4461     -4830.1567      40.710604      2978.1609      312.76161      8022.0837      1.2529827      0.65857806   
    399800  -4788.945      -4828.3611      39.416121      6135.7702      302.81667      7999.784       1.2564754      0.65857806   
    399900  -4789.4195     -4829.0379      39.618386      5867.8705      304.37058      7974.0577      1.2605291      0.65857806   
    400000  -4788.9003     -4828.673       39.772647      4337.031       305.5557       7950.2037      1.2643112      0.70482215   
    400100  -4790.851      -4829.0804      38.229429      2755.7001      293.69984      7935.8818      1.2665929      0.70482215   
    400200  -4790.694      -4828.6988      38.004743      6455.0318      291.97367      7932.8387      1.2670788      0.70482215   
    400297  -4790.8192     -4830.2325      39.413271      5284.5261      302.79477      7942.4098      1.2655519      0.70482215   
Loop time of 485.763 on 4 procs for 200000 steps with 1008 atoms

Performance: 17.786 ns/day, 1.349 hours/ns, 411.724 timesteps/s, 415.017 katom-step/s
99.7% CPU use with 4 MPI tasks x 1 OpenMP threads

MPI task timing breakdown:
Section |  min time  |  avg time  |  max time  |%varavg| %total
---------------------------------------------------------------
Pair    | 210.35     | 213.47     | 218.08     |  22.1 | 43.95
Neigh   | 7.5522     | 7.6735     | 7.7622     |   3.1 |  1.58
Comm    | 63.259     | 70.085     | 75.248     |  58.4 | 14.43
Output  | 0.27773    | 0.28238    | 0.28793    |   0.7 |  0.06
Modify  | 189.89     | 191.82     | 194.01     |  11.7 | 39.49
Other   |            | 2.432      |            |       |  0.50

Nlocal:            252 ave         257 max         248 min
Histogram: 1 0 1 0 0 1 0 0 0 1
Nghost:        1997.75 ave        2001 max        1991 min
Histogram: 1 0 0 0 0 0 0 0 1 2
Neighs:              0 ave           0 max           0 min
Histogram: 4 0 0 0 0 0 0 0 0 0
FullNghs:      37125.5 ave       38227 max       36311 min
Histogram: 2 0 0 0 0 0 1 0 0 1

Total # of neighbors = 148502
Ave neighs/atom = 147.32341
Neighbor list builds = 19969
Dangerous builds = 19814
Total wall time: 0:16:13
