LAMMPS (27 Jun 2024)
KOKKOS mode with Kokkos version 4.3.1 is enabled (src/KOKKOS/kokkos.cpp:72)
  will use up to 1 GPU(s) per node
WARNING: When using a single thread, the Kokkos Serial backend (i.e. Makefile.kokkos_mpi_only) gives better performance than the OpenMP backend (src/KOKKOS/kokkos.cpp:202)
  using 1 OpenMP thread(s) per MPI task
package kokkos
package kokkos newton on neigh half

units		metal						## E in [eV], t in [ps], P in [10000 Pa], l in [A]
atom_style	atomic						## mass x y z vx vy vz

neighbor	0.5 bin						## neighbor list, skin = 0.5 Angstrom
neigh_modify	every 2 delay 10 check yes			## update of neighbor list

############################## main variables
variable        seed equal 56912

variable	temperature equal 390
variable	tempDamp equal 0.1

variable        pressure equal 15000
variable        pressureDamp equal 1.0 				# This is 1 ps

##############################

read_data water.dat
Reading data file ...
  orthogonal box = (0 0 0) to (19.665067 19.665067 19.640133)
  1 by 1 by 1 MPI processor grid
  reading atoms ...
  1296 atoms
  read_data CPU = 0.047 seconds

mass		1 1.008    # H
mass		2 15.9994  # O


pair_style	pace/extrapolation
ACE/AL version: 2023.11.25
pair_coeff	* * /pc2/users/a/acepdw01/work/phase_diagram/pot_dir/interim_potential_ladder_step_1.yaml /pc2/users/a/acepdw01/work/phase_diagram/pot_dir/interim_potential_ladder_step_1.asi H O
Loading /pc2/users/a/acepdw01/work/phase_diagram/pot_dir/interim_potential_ladder_step_1.yaml
Total number of basis functions
	H: 23 (r=1) 664 (r>1)
	O: 23 (r=1) 664 (r>1)
Mapping LAMMPS atom type #1(H) -> ACE species type #0
Mapping LAMMPS atom type #2(O) -> ACE species type #1
Loading ASI /pc2/users/a/acepdw01/work/phase_diagram/pot_dir/interim_potential_ladder_step_1.asi
LINEAR ASI is loaded

fix pace_gamma all pair 1000 pace/extrapolation gamma 1
compute max_pace_gamma all reduce max f_pace_gamma
variable dump_skip equal "c_max_pace_gamma < 10"

dump pace_dump all custom 1000 extrapolative_structures.dump id type x y z f_pace_gamma
dump_modify pace_dump skip v_dump_skip
dump_modify pace_dump element H O

variable max_pace_gamma equal c_max_pace_gamma

timestep	0.0005						## timestep = 0.0005*ps = 0.5 fs

thermo		100
thermo_style custom step etotal pe ke press temp vol density c_max_pace_gamma


min_style cg
minimize 0.0 5.0e-4 10000 100000

CITE-CITE-CITE-CITE-CITE-CITE-CITE-CITE-CITE-CITE-CITE-CITE-CITE

Your simulation uses code contributions which should be cited:

- Type Label Framework: https://doi.org/10.1021/acs.jpcb.3c08419

@Article{Gissinger24,
 author = {Jacob R. Gissinger, Ilia Nikiforov, Yaser Afshar, Brendon Waters, Moon-ki Choi, Daniel S. Karls, Alexander Stukowski, Wonpil Im, Hendrik Heinz, Axel Kohlmeyer, and Ellad B. Tadmor},
 title = {Type Label Framework for Bonded Force Fields in LAMMPS},
 journal = {J. Phys. Chem. B},
 year =    2024,
 volume =  128,
 number =  13,
 pages =   {3282–-3297}
}

CITE-CITE-CITE-CITE-CITE-CITE-CITE-CITE-CITE-CITE-CITE-CITE-CITE

Switching to 'neigh_modify every 1 delay 0 check yes' setting during minimization
Neighbor list info ...
  update: every = 1 steps, delay = 0 steps, check = yes
  max neighbors/atom: 2000, page size: 100000
  master list distance cutoff = 6.5
  ghost atom cutoff = 6.5
  binsize = 6.5, bins = 4 4 4
  1 neighbor lists, perpetual/occasional/extra = 1 0 0
  (1) pair pace/extrapolation/kk, perpetual
      attributes: full, newton on, kokkos_device
      pair build: full/bin/kk/device
      stencil: full/bin/3d
      bin: kk/device
WARNING: Fix with atom-based arrays not compatible with sending data in Kokkos communication, switching to classic exchange/border communication (src/KOKKOS/comm_kokkos.cpp:754)
WARNING: Fix with atom-based arrays not compatible with Kokkos sorting on device, switching to classic host sorting (src/KOKKOS/atom_kokkos.cpp:216)
Per MPI rank memory allocation (min/avg/max) = 1123 | 1123 | 1123 Mbytes
   Step         TotEng         PotEng         KinEng         Press           Temp          Volume        Density     c_max_pace_gamma
         0  -6250.4972     -6250.4972      0              21939.986      0              7595.1311      1.7015372      0.62320148   
        33  -6250.6452     -6250.6452      0              22350.057      0              7595.1311      1.7015372      0.62320148   
Loop time of 0.248168 on 1 procs for 33 steps with 1296 atoms

98.1% CPU use with 1 MPI tasks x 1 OpenMP threads

Minimization stats:
  Stopping criterion = force tolerance
  Energy initial, next-to-last, final = 
     -6250.49717465847  -6250.64523648356  -6250.64523648875
  Force two-norm initial, final = 0.82052426 0.0003006328
  Force max component initial, final = 0.040662504 1.1270972e-05
  Final line search alpha, max atom move = 1 1.1270972e-05
  Iterations, force evaluations = 33 66

MPI task timing breakdown:
Section |  min time  |  avg time  |  max time  |%varavg| %total
---------------------------------------------------------------
Pair    | 0.21853    | 0.21853    | 0.21853    |   0.0 | 88.06
Neigh   | 0          | 0          | 0          |   0.0 |  0.00
Comm    | 0.0016237  | 0.0016237  | 0.0016237  |   0.0 |  0.65
Output  | 0          | 0          | 0          |   0.0 |  0.00
Modify  | 0.014103   | 0.014103   | 0.014103   |   0.0 |  5.68
Other   |            | 0.01391    |            |       |  5.61

Nlocal:           1296 ave        1296 max        1296 min
Histogram: 1 0 0 0 0 0 0 0 0 0
Nghost:           4514 ave        4514 max        4514 min
Histogram: 1 0 0 0 0 0 0 0 0 0
Neighs:              0 ave           0 max           0 min
Histogram: 1 0 0 0 0 0 0 0 0 0
FullNghs:       251424 ave      251424 max      251424 min
Histogram: 1 0 0 0 0 0 0 0 0 0

Total # of neighbors = 251424
Ave neighs/atom = 194
Neighbor list builds = 0
Dangerous builds = 0

################## equilibration of main calculation
# Equilibrate to specified number of ice

fix             3 all nph aniso ${pressure} ${pressure} ${pressureDamp}
fix             3 all nph aniso 15000 ${pressure} ${pressureDamp}
fix             3 all nph aniso 15000 15000 ${pressureDamp}
fix             3 all nph aniso 15000 15000 1
fix             4 all temp/csvr ${temperature} ${temperature} ${tempDamp} ${seed}
fix             4 all temp/csvr 390 ${temperature} ${tempDamp} ${seed}
fix             4 all temp/csvr 390 390 ${tempDamp} ${seed}
fix             4 all temp/csvr 390 390 0.1 ${seed}
fix             4 all temp/csvr 390 390 0.1 56912
velocity 	all create ${temperature} ${seed} dist gaussian
velocity 	all create 390 ${seed} dist gaussian
velocity 	all create 390 56912 dist gaussian

run 200000
WARNING: Fix with atom-based arrays not compatible with Kokkos sorting on device, switching to classic host sorting (src/KOKKOS/atom_kokkos.cpp:216)
Per MPI rank memory allocation (min/avg/max) = 1123 | 1123 | 1123 Mbytes
   Step         TotEng         PotEng         KinEng         Press           Temp          Volume        Density     c_max_pace_gamma
        33  -6185.3624     -6250.6452      65.282836      31530.905      390            7595.1311      1.7015372      0.62320148   
       100  -6176.3351     -6203.4857      27.150608      39517.179      162.19787      7620.223       1.6959343      0.62320148   
       200  -6164.833      -6208.0836      43.250581      35040.968      258.3792       7771.6626      1.6628872      0.62320148   
       300  -6157.7847     -6206.6394      48.854655      26620.426      291.85796      8000.0712      1.6154104      0.62320148   
       400  -6154.1304     -6203.3188      49.188374      20644.862      293.8516       8200.1422      1.5759968      0.62320148   
       500  -6148.4045     -6200.7462      52.341665      15539.241      312.68938      8345.6995      1.5485099      0.62320148   
       600  -6143.3443     -6196.7233      53.378955      13459.367      318.88615      8451.7757      1.5290749      0.62320148   
       700  -6142.2148     -6199.4351      57.220321      14693.507      341.83449      8532.1772      1.5146659      0.62320148   
       800  -6136.1893     -6194.0539      57.864601      13706.497      345.68342      8584.5716      1.5054214      0.62320148   
       900  -6130.9362     -6191.4649      60.528695      14918.427      361.59874      8616.1767      1.4998994      0.62320148   
      1000  -6126.9225     -6188.5909      61.668489      20741.128      368.40787      8633.7825      1.4968408      0.78089593   
      1100  -6125.8526     -6188.4701      62.617512      16583.445      374.07734      8641.8224      1.4954482      0.78089593   
      1200  -6122.6426     -6187.7642      65.121649      13687.527      389.03707      8642.4914      1.4953324      0.78089593   
      1300  -6122.2155     -6186.0851      63.869603      13824.234      381.55733      8635.7392      1.4965016      0.78089593   
      1400  -6120.7568     -6186.2497      65.492904      15478.803      391.25495      8629.236       1.4976294      0.78089593   
      1500  -6119.7107     -6184.7231      65.012329      9261.1522      388.38399      8626.8798      1.4980385      0.78089593   
      1600  -6118.219      -6182.4175      64.198491      12618.521      383.52211      8630.6578      1.4973827      0.78089593   
      1700  -6118.3361     -6185.7625      67.426399      14983.854      402.80566      8641.7368      1.495463       0.78089593   
      1800  -6116.8551     -6185.0004      68.145374      15064.56       407.10082      8655.0258      1.4931669      0.78089593   
      1900  -6115.0567     -6181.1591      66.102363      18460.761      394.89586      8668.6046      1.4908279      0.78089593   
      2000  -6114.9837     -6183.3314      68.347638      17938.306      408.30914      8685.3741      1.4879495      0.76024578   
      2100  -6115.1239     -6182.9953      67.871422      17657.121      405.46423      8705.5009      1.4845094      0.76024578   
      2200  -6115.1445     -6181.6965      66.552034      16705.513      397.58219      8723.9145      1.481376       0.76024578   
      2300  -6113.7507     -6181.9547      68.203986      16615.511      407.45096      8739.0375      1.4788125      0.76024578   
      2400  -6114.1616     -6181.2331      67.07156       14057.376      400.68585      8752.0565      1.4766127      0.76024578   
      2500  -6115.3986     -6181.1569      65.758296      16518.452      392.8404       8759.5838      1.4753438      0.76024578   
      2600  -6115.1882     -6183.3659      68.177748      15750.618      407.29422      8759.289       1.4753935      0.76024578   
      2700  -6117.9113     -6184.9689      67.057581      11918.312      400.60234      8751.8303      1.4766509      0.76024578   
      2800  -6118.8973     -6182.4029      63.505602      13456.816      379.38279      8737.07        1.4791455      0.76024578   
      2900  -6118.568      -6184.7765      66.20855       13478.666      395.53022      8715.9967      1.4827218      0.76024578   
      3000  -6117.5323     -6183.1826      65.650353      18909.286      392.19554      8689.3056      1.4872763      0.78426342   
      3100  -6116.3853     -6184.8039      68.418663      16774.671      408.73344      8665.6177      1.4913418      0.78426342   
      3200  -6115.2254     -6182.6031      67.377709      16430.569      402.51478      8648.7618      1.4942483      0.78426342   
      3300  -6115.5035     -6183.1153      67.611776      14134.983      403.9131       8645.4579      1.4948194      0.78426342   
      3400  -6120.8675     -6183.7956      62.928109      13167.405      375.93285      8656.194       1.4929654      0.78426342   
      3500  -6119.0007     -6184.8671      65.866345      14095.213      393.48588      8675.8009      1.4895913      0.78426342   
      3600  -6118.4486     -6183.279       64.830443      14078.786      387.2974       8698.918       1.4856328      0.78426342   
      3700  -6116.0017     -6182.2244      66.222671      15289.215      395.61458      8723.0178      1.4815283      0.78426342   
      3800  -6119.2975     -6184.5492      65.251687      13979.111      389.81392      8746.5689      1.4775391      0.78426342   
      3900  -6118.6013     -6183.3143      64.712991      16569.54       386.59574      8766.8731      1.4741171      0.78426342   
      4000  -6119.6403     -6184.2533      64.613013      12492.086      385.99847      8779.6113      1.4719784      0.81746959   
      4100  -6117.6925     -6181.8625      64.170003      12760.067      383.35193      8780.9585      1.4717525      0.81746959   
      4200  -6118.1025     -6184.7914      66.688878      12404.322      398.3997       8771.6846      1.4733085      0.81746959   
      4300  -6118.5122     -6184.6127      66.100449      15325.118      394.88442      8753.7153      1.4763329      0.81746959   
      4400  -6118.8072     -6184.7825      65.97528       16653.216      394.13666      8730.7227      1.4802209      0.81746959   
      4500  -6117.8208     -6185.8875      68.066678      16912.249      406.63069      8705.8643      1.4844474      0.81746959   
      4600  -6118.5613     -6185.2782      66.716956      17415.219      398.56744      8685.5346      1.487922       0.81746959   
      4700  -6119.3197     -6184.9667      65.646994      16669.78       392.17548      8671.5372      1.4903238      0.81746959   
      4800  -6119.3573     -6184.7021      65.344777      14282.546      390.37003      8664.1246      1.4915988      0.81746959   
      4900  -6118.7022     -6185.089       66.386852      16738.031      396.59539      8666.219       1.4912383      0.81746959   
      5000  -6118.8089     -6184.7287      65.919869      18182.055      393.80564      8681.2447      1.4886572      0.82305141   
      5100  -6119.0912     -6186.1335      67.042321      18081.823      400.51117      8705.2464      1.4845528      0.82305141   
      5200  -6120.3423     -6183.374       63.031657      19624.12       376.55144      8736.8218      1.4791875      0.82305141   
      5300  -6118.082      -6184.5501      66.468057      14849.073      397.08051      8769.7217      1.4736383      0.82305141   
      5400  -6117.418      -6182.0191      64.601109      13492.68       385.92736      8797.1713      1.4690402      0.82305141   
      5500  -6118.9536     -6185.4876      66.534072      11791.887      397.47489      8821.1696      1.4650436      0.82305141   
      5600  -6120.3054     -6186.322       66.01665       14465.574      394.38381      8833.5146      1.4629961      0.82305141   
      5700  -6119.7145     -6185.3164      65.601952      13767.476      391.9064       8829.1867      1.4637133      0.82305141   
      5800  -6118.7953     -6183.2218      64.426419      18674.34       384.88376      8807.0101      1.467399       0.82305141   
      5900  -6118.9395     -6183.1901      64.250529      15448.099      383.83299      8772.1112      1.4732369      0.82305141   
      6000  -6118.2756     -6184.5361      66.260476      13767.584      395.84043      8731.273       1.4801276      0.79823395   
      6100  -6115.6595     -6182.9257      67.266231      17718.392      401.84881      8691.8985      1.4868326      0.79823395   
      6200  -6114.9397     -6181.7798      66.840098      18834.871      399.30309      8665.0506      1.4914394      0.79823395   
      6300  -6115.8872     -6181.9512      66.063956      15801.291      394.66642      8658.4145      1.4925825      0.79823395   
      6400  -6117.7601     -6183.4883      65.728233      14725.006      392.6608       8671.5741      1.4903174      0.79823395   
      6500  -6116.2878     -6184.2043      67.916525      11799.603      405.73367      8701.3636      1.4852152      0.79823395   
      6600  -6117.0154     -6183.5121      66.496671      15341.009      397.25146      8743.9994      1.4779733      0.79823395   
      6700  -6119.5935     -6183.5054      63.911939      13301.413      381.81025      8792.8678      1.4697592      0.79823395   
      6800  -6121.1418     -6184.5798      63.437963      12167.913      378.97872      8836.9353      1.4624298      0.79823395   
      6900  -6120.267      -6182.6531      62.386135      14262.194      372.69509      8865.2875      1.4577528      0.79823395   
      7000  -6122.0087     -6187.2927      65.284043      15023.478      390.00721      8869.9808      1.4569815      0.75295275   
      7100  -6122.7752     -6185.9194      63.144237      12276.602      377.224        8843.4292      1.461356       0.75295275   
      7200  -6120.3029     -6184.5398      64.236865      13609.167      383.75136      8794.9778      1.4694065      0.75295275   
      7300  -6120.5672     -6184.6768      64.109621      14958.799      382.9912       8737.7184      1.4790357      0.75295275   
      7400  -6119.6065     -6184.1623      64.555795      11152.551      385.65665      8684.0163      1.4881821      0.75295275   
      7500  -6119.7161     -6184.5781      64.861996      13276.307      387.4859       8643.7713      1.495111       0.75295275   
      7600  -6122.6507     -6187.2056      64.554872      14094.183      385.65114      8620.1208      1.4992131      0.75295275   
      7700  -6123.1473     -6186.3878      63.240507      19944.138      377.79912      8615.4668      1.5000229      0.75295275   
      7800  -6121.9289     -6187.2864      65.357486      19908.853      390.44596      8627.977       1.497848       0.75295275   
      7900  -6121.0481     -6185.9157      64.867676      15668.181      387.51983      8655.3587      1.4931094      0.75295275   
      8000  -6121.5535     -6186.3456      64.79209       16720.41       387.06828      8693.6048      1.4865408      0.83812282   
      8100  -6122.9172     -6185.3426      62.425436      15128.987      372.92988      8734.0948      1.4796494      0.83812282   
      8200  -6124.4043     -6187.4464      63.04209       13817.02       376.61377      8768.2672      1.4738828      0.83812282   
      8300  -6122.8777     -6186.3943      63.516515      20449.351      379.44799      8786.9982      1.4707409      0.83812282   
      8400  -6121.8318     -6184.0073      62.175434      17566.238      371.43636      8789.4597      1.470329       0.83812282   
      8500  -6118.7075     -6184.2562      65.54866       12650.633      391.58803      8785.2679      1.4710306      0.83812282   
      8600  -6119.2451     -6184.7871      65.542003      13020.922      391.54827      8773.6097      1.4729853      0.83812282   
      8700  -6115.9996     -6182.5805      66.580914      14723.133      397.75472      8756.1267      1.4759263      0.83812282   
      8800  -6115.6612     -6181.8005      66.139286      14385.972      395.11643      8742.0218      1.4783077      0.83812282   
      8900  -6115.6027     -6183.8234      68.220746      15327.186      407.55109      8736.9766      1.4791613      0.83812282   
      9000  -6115.6663     -6183.1167      67.450347      17790.185      402.94872      8740.1677      1.4786213      0.78599706   
      9100  -6114.6501     -6180.8591      66.209037      16818.714      395.53313      8751.7511      1.4766642      0.78599706   
      9200  -6116.9645     -6184.2495      67.285011      14867.7        401.961        8767.0065      1.4740947      0.78599706   
      9300  -6119.0702     -6182.3635      63.293292      14382.608      378.11445      8780.4886      1.4718313      0.78599706   
      9400  -6119.3027     -6184.2078      64.905183      12393.607      387.7439       8790.6926      1.4701228      0.78599706   
      9500  -6118.8832     -6181.3354      62.452188      13520.594      373.08969      8791.5226      1.469984       0.78599706   
      9600  -6119.8894     -6184.6774      64.787985      13901.149      387.04375      8787.8049      1.4706059      0.78599706   
      9700  -6120.4243     -6183.4011      62.97683       11900.382      376.2239       8778.2307      1.4722099      0.78599706   
      9800  -6119.4733     -6183.4884      64.015187      16254.04       382.42706      8762.7515      1.4748105      0.78599706   
      9900  -6119.6067     -6186.1301      66.5234        17828.969      397.41113      8743.2159      1.4781058      0.78599706   
     10000  -6119.4362     -6184.4104      64.974225      16195.166      388.15636      8722.2648      1.4816562      0.74820194   
     10100  -6118.6858     -6184.4313      65.745462      13478.758      392.76373      8709.1077      1.4838946      0.74820194   
     10200  -6119.491      -6184.8079      65.316888      15083.345      390.20342      8707.3681      1.4841911      0.74820194   
     10300  -6116.9481     -6184.2301      67.28201       16192.692      401.94307      8714.4705      1.4829814      0.74820194   
     10400  -6115.4151     -6182.1401      66.724989      15346.691      398.61543      8733.2289      1.4797961      0.74820194   
     10500  -6118.4894     -6184.1888      65.699347      17503.133      392.48824      8762.7894      1.4748041      0.74820194   
     10600  -6118.4114     -6184.7422      66.330839      13058.322      396.26078      8796.5841      1.4691382      0.74820194   
     10700  -6119.0945     -6182.8646      63.770077      17052.926      380.96277      8827.6427      1.4639693      0.74820194   
     10800  -6118.9476     -6181.4091      62.461436      16089.529      373.14494      8850.6807      1.4601586      0.74820194   
     10900  -6116.7172     -6183.6648      66.947548      16405.739      399.945        8862.0291      1.4582888      0.74820194   
     11000  -6118.1016     -6181.5622      63.460619      15684.908      379.11407      8860.4795      1.4585439      0.89017884   
     11100  -6119.6026     -6183.4791      63.876508      11486.121      381.59859      8848.8423      1.460462       0.89017884   
     11200  -6119.7492     -6183.6051      63.855918      15506.538      381.47558      8825.9004      1.4642583      0.89017884   
     11300  -6117.6547     -6182.7715      65.116799      18196.291      389.00809      8794.9794      1.4694063      0.89017884   
     11400  -6118.3632     -6184.958       66.594759      16117.875      397.83743      8762.9966      1.4747692      0.89017884   
     11500  -6117.9915     -6182.9737      64.982148      16648.599      388.20369      8732.3017      1.4799532      0.89017884   
     11600  -6117.7305     -6182.723       64.992459      13922.978      388.26528      8715.1464      1.4828664      0.89017884   
     11700  -6118.9441     -6184.3534      65.409272      16787.473      390.75533      8712.206       1.4833669      0.89017884   
     11800  -6116.7187     -6185.4583      68.739576      17911.5        410.65058      8721.6194      1.4817659      0.89017884   
     11900  -6117.1689     -6184.8631      67.69412       15274.277      404.40502      8744.3142      1.4779201      0.89017884   
     12000  -6117.7822     -6182.8469      65.064756      16078.916      388.69719      8777.6455      1.472308       0.84434944   
     12100  -6120.7449     -6185.392       64.647049      17131.407      386.2018       8819.4128      1.4653354      0.84434944   
     12200  -6121.3579     -6186.3256      64.967698      15488.576      388.11737      8856.3355      1.4592263      0.84434944   
     12300  -6121.0157     -6183.2552      62.239531      13180.657      371.81928      8878.9195      1.4555147      0.84434944   
     12400  -6121.3661     -6184.2297      62.863632      13901.772      375.54766      8886.7579      1.4542309      0.84434944   
     12500  -6120.7725     -6183.1218      62.349303      16056.51       372.47506      8877.7464      1.455707       0.84434944   
     12600  -6120.7569     -6183.7696      63.01266       15736.799      376.43795      8850.942       1.4601155      0.84434944   
     12700  -6117.9039     -6183.0021      65.098273      14508.815      388.89742      8809.7243      1.4669469      0.84434944   
     12800  -6116.66       -6181.9479      65.287925      17721.309      390.0304       8765.2165      1.4743957      0.84434944   
     12900  -6115.4865     -6182.7326      67.246059      18180.929      401.7283       8731.1228      1.480153       0.84434944   
     13000  -6116.4074     -6183.212       66.804579      18216.231      399.0909       8710.311       1.4836896      0.80818361   
     13100  -6116.1776     -6182.9433      66.765604      18002.742      398.85806      8709.0427      1.4839057      0.80818361   
     13200  -6119.2439     -6183.7574      64.513539      15485.136      385.40422      8727.2339      1.4808126      0.80818361   
     13300  -6119.9308     -6183.7408      63.809992      13666.332      381.20122      8759.6816      1.4753274      0.80818361   
     13400  -6121.1867     -6183.891       62.704335      13898.321      374.59602      8798.1888      1.4688703      0.80818361   
     13500  -6121.3481     -6185.9318      64.583726      15745.759      385.82351      8834.1801      1.4628859      0.80818361   
     13600  -6121.4412     -6185.367       63.92575       10811.967      381.89276      8863.2938      1.4580807      0.80818361   
     13700  -6121.9295     -6183.4513      61.521757      11055.253      367.53129      8877.4836      1.4557501      0.80818361   
     13800  -6123.4418     -6187.3355      63.893697      11573.484      381.70127      8875.1519      1.4561326      0.80818361   
     13900  -6122.0024     -6185.4744      63.472031      10149.077      379.18224      8851.6002      1.460007       0.80818361   
     14000  -6122.5558     -6185.443       62.887219      14225.125      375.68857      8812.9093      1.4664168      0.8490368    
     14100  -6120.5323     -6183.8121      63.279796      16871.506      378.03383      8767.5221      1.474008       0.8490368    
     14200  -6119.3173     -6183.9067      64.589408      14219.171      385.85745      8726.2896      1.4809728      0.8490368    
     14300  -6119.8924     -6182.206       62.313568      17331.172      372.26158      8700.0659      1.4854368      0.8490368    
     14400  -6120.4056     -6184.1603      63.754736      14656.282      380.87112      8696.5223      1.4860421      0.8490368    
     14500  -6119.7453     -6186.2524      66.507133      15030.476      397.31396      8710.0331      1.4837369      0.8490368    
     14600  -6120.3728     -6183.3691      62.996352      15282.09       376.34053      8739.401       1.478751       0.8490368    
     14700  -6122.5037     -6184.4665      61.962796      14841.446      370.16606      8780.0224      1.4719094      0.8490368    
     14800  -6121.0246     -6185.3709      64.346368      12220.825      384.40553      8822.9342      1.4647506      0.8490368    
     14900  -6119.2098     -6183.6543      64.44442       16423.856      384.9913       8860.2222      1.4585862      0.8490368    
     15000  -6121.1187     -6184.9911      63.872351      15870.614      381.57376      8887.0796      1.4541782      0.84858698   
     15100  -6121.9743     -6186.7015      64.727268      11849.905      386.68103      8897.3681      1.4524967      0.84858698   
     15200  -6122.3706     -6184.7004      62.329776      8952.1918      372.3584       8887.6014      1.4540929      0.84858698   
     15300  -6121.9732     -6183.2688      61.295683      11911.63       366.18072      8859.4353      1.4587158      0.84858698   
     15400  -6120.1981     -6184.9752      64.777024      17607.787      386.97828      8821.5121      1.4649867      0.84858698   
     15500  -6121.1116     -6185.1119      64.000298      18898.753      382.33811      8779.4651      1.4720029      0.84858698   
     15600  -6122.6819     -6185.5792      62.897306      16157.226      375.74883      8739.9497      1.4786582      0.84858698   
     15700  -6121.5595     -6186.0285      64.468968      13505.846      385.13795      8706.9852      1.4842563      0.84858698   
     15800  -6121.0799     -6186.3492      65.269243      17813.878      389.91879      8684.7443      1.4880574      0.84858698   
     15900  -6117.0687     -6181.7629      64.694183      21099.96       386.48338      8682.6555      1.4884154      0.84858698   
     16000  -6119.3073     -6185.6889      66.381667      16670.665      396.56442      8705.7521      1.4844666      0.77906709   
     16100  -6119.7004     -6184.3803      64.679838      14955.439      386.39768      8746.9136      1.4774809      0.77906709   
     16200  -6119.6979     -6183.4765      63.77851       17113.279      381.01315      8798.3388      1.4688452      0.77906709   
     16300  -6119.5057     -6184.4137      64.908029      9116.8669      387.7609       8849.9136      1.4602852      0.77906709   
     16400  -6119.5397     -6183.9447      64.405043      11447.19       384.75606      8888.608       1.4539282      0.77906709   
     16500  -6119.0648     -6183.8768      64.81204       12689.639      387.18746      8910.7401      1.450317       0.77906709   
     16600  -6118.5203     -6185.1636      66.643255      13291.828      398.12715      8917.2681      1.4492553      0.77906709   
     16700  -6115.4588     -6182.4144      66.95562       14198.511      399.99322      8905.6129      1.451152       0.77906709   
     16800  -6116.8603     -6183.2713      66.411042      14689.702      396.73991      8884.1982      1.4546499      0.77906709   
     16900  -6117.7159     -6181.9832      64.267284      17935.886      383.93309      8855.5297      1.4593591      0.77906709   
     17000  -6113.9419     -6182.5774      68.635492      15112.705      410.02878      8829.2664      1.4637001      0.79002693   
     17100  -6112.1046     -6179.2461      67.14158       13623.947      401.10415      8811.1466      1.4667101      0.79002693   
     17200  -6111.8321     -6182.8929      71.060726      13165.983      424.51715      8806.5859      1.4674697      0.79002693   
     17300  -6114.969      -6178.8618      63.892821      15608.573      381.69604      8816.0576      1.4658931      0.79002693   
     17400  -6115.1916     -6182.585       67.393416      22481.154      402.60861      8835.8837      1.4626039      0.79002693   
     17500  -6115.0722     -6180.2168      65.144612      20015.595      389.17425      8856.9154      1.4591308      0.79002693   
     17600  -6117.9822     -6182.4014      64.419242      12670.771      384.84088      8881.5126      1.4550897      0.79002693   
     17700  -6116.2852     -6181.8084      65.523121      12124.15       391.43546      8895.562       1.4527916      0.79002693   
     17800  -6115.7581     -6180.5236      64.765505      14086.054      386.90946      8901.5671      1.4518115      0.79002693   
     17900  -6116.4099     -6180.5059      64.095985      15006.138      382.90974      8899.9562      1.4520743      0.79002693   
     18000  -6117.1174     -6183.1415      66.024106      14935.864      394.42835      8891.3369      1.453482       0.83473429   
     18100  -6116.0583     -6180.7642      64.705854      14810.578      386.5531       8875.5982      1.4560594      0.83473429   
     18200  -6116.5901     -6182.6648      66.07477       15298.496      394.73102      8856.1122      1.4592631      0.83473429   
     18300  -6118.2184     -6182.2344      64.016017      14603.632      382.43202      8833.5614      1.4629884      0.83473429   
     18400  -6118.3933     -6183.5418      65.148531      14616.671      389.19766      8813.5452      1.466311       0.83473429   
     18500  -6116.6412     -6183.0595      66.4183        16436.718      396.78326      8797.2071      1.4690342      0.83473429   
     18600  -6117.1905     -6181.2215      64.030981      17894.181      382.52141      8787.6271      1.4706357      0.83473429   
     18700  -6117.9959     -6184.4432      66.447276      16763.142      396.95637      8786.2234      1.4708706      0.83473429   
     18800  -6117.4946     -6183.3353      65.840625      16898.835      393.33223      8789.8243      1.4702681      0.83473429   
     18900  -6118.8002     -6182.5962      63.795991      18920.887      381.11758      8800.7478      1.4684432      0.83473429   
     19000  -6119.1116     -6184.0804      64.968765      15335.352      388.12374      8813.402       1.4663348      0.76099385   
     19100  -6117.5521     -6183.022       65.46988       18455.211      391.1174       8820.8534      1.4650961      0.76099385   
     19200  -6116.2257     -6184.5263      68.300609      15241.651      408.02819      8826.2245      1.4642045      0.76099385   
     19300  -6114.8471     -6179.9807      65.133648      15504.01       389.10875      8832.3337      1.4631918      0.76099385   
     19400  -6113.3955     -6179.8717      66.476146      15167.269      397.12884      8841.9181      1.4616057      0.76099385   
     19500  -6115.6711     -6180.7923      65.121171      16056.178      389.03421      8850.3478      1.4602136      0.76099385   
     19600  -6116.6186     -6182.4595      65.840971      13826.341      393.3343       8855.8809      1.4593012      0.76099385   
     19700  -6117.8723     -6182.0222      64.149918      12601.867      383.23194      8854.9815      1.4594494      0.76099385   
     19800  -6118.0863     -6182.9546      64.86833       10444.313      387.52374      8848.8008      1.4604688      0.76099385   
     19900  -6116.388      -6182.6223      66.234295      10248.599      395.68402      8833.0351      1.4630756      0.76099385   
     20000  -6118.7653     -6183.0944      64.329099      14540.013      384.30237      8812.4832      1.4664877      0.8087857    
     20100  -6118.8409     -6184.2532      65.412284      12691.697      390.77332      8788.9608      1.4704125      0.8087857    
     20200  -6116.8834     -6181.3321      64.448651      17614.025      385.01657      8767.2279      1.4740575      0.8087857    
     20300  -6116.6751     -6182.9627      66.2876        20961.629      396.00246      8759.0396      1.4754355      0.8087857    
     20400  -6116.3579     -6182.6046      66.246684      14065.861      395.75803      8763.5999      1.4746677      0.8087857    
     20500  -6114.7302     -6181.5135      66.783223      12203.336      398.96332      8781.4625      1.4716681      0.8087857    
     20600  -6116.2335     -6181.8303      65.596709      15999.099      391.87508      8811.331       1.4666794      0.8087857    
     20700  -6115.0772     -6180.6591      65.581881      15472.599      391.78649      8845.4572      1.4610209      0.8087857    
     20800  -6113.7842     -6182.1727      68.388519      12454.329      408.55336      8881.218       1.455138       0.8087857    
     20900  -6114.3336     -6181.5397      67.206055      12422.959      401.48932      8914.5003      1.4497053      0.8087857    
     21000  -6115.8462     -6182.46        66.61378       12820.765      397.95106      8938.8109      1.4457625      0.81569139   
     21100  -6115.2238     -6179.8515      64.627704      12590.655      386.08623      8944.9164      1.4447757      0.81569139   
     21200  -6116.2093     -6182.49        66.280709      8602.6008      395.9613       8933.4427      1.4466313      0.81569139   
     21300  -6115.4035     -6181.0214      65.61799       14534.517      392.00221      8905.0066      1.4512508      0.81569139   
     21400  -6115.8334     -6182.9137      67.080218      11977.192      400.73757      8865.7891      1.4576704      0.81569139   
     21500  -6114.8345     -6182.5515      67.716971      17423.399      404.54153      8821.7681      1.4649442      0.81569139   
     21600  -6113.8648     -6179.7533      65.888467      14670.648      393.61804      8781.2544      1.4717029      0.81569139   
     21700  -6112.0886     -6178.5711      66.482445      13651.453      397.16647      8756.1132      1.4759286      0.81569139   
     21800  -6113.8528     -6180.6325      66.779732      13741.859      398.94247      8753.8918      1.4763031      0.81569139   
     21900  -6110.6398     -6178.5511      67.911378      18135.867      405.70292      8771.5497      1.4733312      0.81569139   
     22000  -6112.0471     -6178.9413      66.89419       20905.391      399.62623      8810.3248      1.4668469      0.78676236   
     22100  -6113.9458     -6181.6415      67.695749      17773.91       404.41476      8862.422       1.4582242      0.78676236   
     22200  -6115.0545     -6180.4102      65.355731      13255.542      390.43548      8912.3931      1.450048       0.78676236   
     22300  -6116.0219     -6179.2441      63.222201      12080.258      377.68976      8953.9916      1.4433114      0.78676236   
     22400  -6116.3747     -6182.0038      65.629101      12124.854      392.06859      8980.4752      1.439055       0.78676236   
     22500  -6115.1306     -6181.3907      66.26009       10581.312      395.83812      8985.7122      1.4382163      0.78676236   
     22600  -6115.2103     -6182.3604      67.150027      13968.857      401.15461      8968.9813      1.4408992      0.78676236   
     22700  -6116.4249     -6182.5243      66.099485      14606.986      394.87867      8940.6365      1.4454673      0.78676236   
     22800  -6118.182      -6181.3545      63.172572      11534.767      377.39327      8901.3846      1.4518413      0.78676236   
     22900  -6118.9322     -6182.5031      63.570881      12240.526      379.77277      8855.6162      1.4593448      0.78676236   
     23000  -6119.719      -6182.8486      63.129649      17478.466      377.13685      8803.9049      1.4679166      0.86389463   
     23100  -6119.9083     -6184.385       64.476608      18119.149      385.18359      8755.963       1.4759539      0.86389463   
     23200  -6118.7578     -6184.2404      65.482635      16410.503      391.1936       8722.6086      1.4815978      0.86389463   
     23300  -6119.3191     -6184.3004      64.981264      15385.25       388.1984       8710.1895      1.4837103      0.86389463   
     23400  -6117.4167     -6183.1048      65.688121      14681.294      392.42117      8719.1175      1.482191       0.86389463   
     23500  -6117.3567     -6181.2148      63.85809       18369.178      381.48856      8743.8138      1.4780047      0.86389463   
     23600  -6116.4671     -6183.1406      66.673459      13874.758      398.30759      8781.373       1.4716831      0.86389463   
     23700  -6115.7561     -6180.9822      65.226081      12479.124      389.66095      8822.1818      1.4648755      0.86389463   
     23800  -6116.4113     -6180.8916      64.480333      11937.977      385.20584      8861.4454      1.4583849      0.86389463   
     23900  -6115.2456     -6180.8806      65.635038      11906.458      392.10405      8898.4123      1.4523263      0.86389463   
     24000  -6116.9285     -6183.5059      66.577417      10274.42       397.73383      8923.9826      1.4481648      0.87029981   
     24100  -6117.5085     -6181.8457      64.337182      9474.6462      384.35066      8929.0069      1.44735        0.87029981   
     24200  -6119.9621     -6184.7048      64.74272       11940.038      386.77334      8915.9507      1.4494694      0.87029981   
     24300  -6117.8722     -6184.0056      66.133366      11838.441      395.08107      8885.2978      1.4544699      0.87029981   
     24400  -6118.4296     -6182.5881      64.158539      13110.563      383.28344      8844.8327      1.4611241      0.87029981   
     24500  -6117.9872     -6183.8305      65.843307      19072.018      393.34825      8807.0643      1.46739        0.87029981   
     24600  -6117.978      -6184.3285      66.350508      14906.811      396.37828      8775.1097      1.4727335      0.87029981   
     24700  -6118.9433     -6182.2573      63.313981      15555.927      378.23805      8752.4194      1.4765515      0.87029981   
     24800  -6118.4394     -6183.5361      65.096729      14717.936      388.88819      8741.7046      1.4783613      0.87029981   
     24900  -6119.4025     -6183.7461      64.343533      14652.443      384.3886       8740.2916      1.4786003      0.87029981   
     25000  -6118.7153     -6183.8016      65.08635       14591.7        388.82619      8748.6821      1.4771823      0.73498837   
     25100  -6120.0177     -6182.5238      62.506069      15924.173      373.41158      8764.9968      1.4744327      0.73498837   
     25200  -6121.0446     -6184.5036      63.459026      14247.583      379.10455      8786.9526      1.4707486      0.73498837   
     25300  -6119.7351     -6183.9358      64.200739      15253.681      383.53554      8807.7325      1.4672787      0.73498837   
     25400  -6117.8709     -6185.4046      67.533708      13552.915      403.44672      8827.4017      1.4640093      0.73498837   
     25500  -6118.8196     -6183.5111      64.691488      12594.142      386.46728      8842.9416      1.4614365      0.73498837   
     25600  -6119.6555     -6184.0598      64.404237      12510.917      384.75124      8850.8823      1.4601254      0.73498837   
     25700  -6118.8144     -6181.9694      63.154996      13730.598      377.28827      8852.0453      1.4599336      0.73498837   
     25800  -6119.2307     -6184.1315      64.90075       12952.55       387.71741      8848.9367      1.4604464      0.73498837   
     25900  -6120.3838     -6185.8515      65.467678      15129.405      391.10425      8837.5818      1.4623229      0.73498837   
     26000  -6118.682      -6182.8983      64.216248      13147.166      383.6282       8818.7757      1.4654413      0.75749592   
     26100  -6117.7622     -6181.8112      64.048992      17386.543      382.62901      8801.6547      1.4682918      0.75749592   
     26200  -6118.9486     -6184.417       65.468401      20505.905      391.10856      8791.336       1.4700152      0.75749592   
     26300  -6118.8923     -6183.6713      64.779027      18981.053      386.99024      8788.1909      1.4705413      0.75749592   
     26400  -6118.1395     -6182.4342      64.294652      15020.135      384.09658      8790.4242      1.4701677      0.75749592   
     26500  -6118.1758     -6181.5222      63.346475      13575.778      378.43217      8799.7671      1.4686068      0.75749592   
     26600  -6116.9579     -6180.8817      63.923816      13093.663      381.8812       8814.3944      1.4661697      0.75749592   
     26700  -6116.2694     -6183.8032      67.533794      12361.936      403.44724      8831.2727      1.4633675      0.75749592   
     26800  -6115.8905     -6182.4028      66.512254      15062.67       397.34455      8844.7248      1.4611419      0.75749592   
     26900  -6115.4016     -6181.2103      65.808756      16655.777      393.14185      8861.6489      1.4583514      0.75749592   
     27000  -6116.7109     -6182.3326      65.621754      13846.223      392.0247       8882.4177      1.4549415      0.77199022   
     27100  -6116.9997     -6183.2293      66.229619      12579.812      395.65608      8896.2575      1.452678       0.77199022   
     27200  -6119.8903     -6184.1035      64.213223      9833.947       383.61013      8897.1712      1.4525288      0.77199022   
     27300  -6121.9834     -6184.8238      62.840346      12195.401      375.40855      8880.1589      1.4553116      0.77199022   
     27400  -6117.8444     -6182.6124      64.767919      14394.562      386.92388      8843.119       1.4614072      0.77199022   
     27500  -6119.5178     -6185.2211      65.703351      10451.087      392.51216      8793.8518      1.4695947      0.77199022   
     27600  -6120.5055     -6187.03        66.524482      15285.333      397.4176       8737.3024      1.4791062      0.77199022   
     27700  -6121.2363     -6183.386       62.149615      14144.957      371.28212      8684.1101      1.4881661      0.77199022   
     27800  -6120.0664     -6184.8641      64.797695      19949.241      387.10177      8647.1561      1.4945258      0.77199022   
     27900  -6120.7364     -6184.3165      63.580087      20806.638      379.82777      8633.682       1.4968582      0.77199022   
     28000  -6121.8778     -6185.4223      63.544552      17303.142      379.61548      8648.3276      1.4943234      0.9211747    
     28100  -6122.1659     -6186.9954      64.829444      18785.634      387.29143      8684.3679      1.4881219      0.9211747    
     28200  -6119.0914     -6184.9485      65.857069      21600.813      393.43047      8733.725       1.479712       0.9211747    
     28300  -6121.4889     -6185.537       64.048075      19145.721      382.62353      8793.397       1.4696707      0.9211747    
     28400  -6118.8002     -6182.3435      63.543278      12523.401      379.60787      8853.5876      1.4596792      0.9211747    
     28500  -6117.2465     -6183.5632      66.316658      13365.219      396.17606      8906.0496      1.4510808      0.9211747    
     28600  -6118.007      -6182.7791      64.772025      15703.233      386.94841      8938.912       1.4457462      0.9211747    
     28700  -6117.3462     -6181.5777      64.231489      14923.21       383.71924      8949.1843      1.4440867      0.9211747    
     28800  -6116.9621     -6181.1791      64.217016      14719.385      383.63278      8938.8572      1.445755       0.9211747    
     28900  -6113.9662     -6180.7634      66.797183      12555.454      399.04671      8910.9644      1.4502805      0.9211747    
     29000  -6114.4844     -6181.5764      67.092047      12579.854      400.80824      8868.8058      1.4571745      0.80790239   
     29100  -6113.0335     -6180.3349      67.301427      18507.912      402.05907      8823.5189      1.4646535      0.80790239   
     29200  -6113.1318     -6181.9249      68.793098      17182.302      410.97032      8786.7579      1.4707812      0.80790239   
     29300  -6115.9202     -6184.0887      68.168555      14109.6        407.2393       8760.2342      1.4752343      0.80790239   
     29400  -6114.4358     -6181.7246      67.288826      15348.854      401.98379      8746.3205      1.4775811      0.80790239   
     29500  -6116.1917     -6182.608       66.41626       13576.615      396.77108      8744.4837      1.4778915      0.80790239   
     29600  -6116.8722     -6181.776       64.903805      14697.678      387.73566      8754.4308      1.4762122      0.80790239   
     29700  -6115.6716     -6182.3733      66.701709      16163.332      398.47635      8776.1135      1.472565       0.80790239   
     29800  -6116.9772     -6182.0181      65.040886      15526.206      388.55459      8803.8059      1.4679331      0.80790239   
     29900  -6117.8854     -6182.8329      64.947439      12964.276      387.99633      8834.0791      1.4629027      0.80790239   
     30000  -6117.8109     -6184.2489      66.437985      11740.244      396.90087      8859.9606      1.4586293      0.84149715   
     30100  -6117.7107     -6182.499       64.788255      9473.2086      387.04537      8873.1995      1.456453       0.84149715   
     30200  -6119.1417     -6183.1388      63.99715       9286.4533      382.3193       8872.6129      1.4565493      0.84149715   
     30300  -6118.4678     -6182.8641      64.396297      14838.958      384.70381      8859.8789      1.4586427      0.84149715   
     30400  -6116.9745     -6184.1899      67.215423      15220.979      401.54528      8838.8828      1.4621076      0.84149715   
     30500  -6115.7457     -6182.966       67.220303      13776.306      401.57444      8812.7552      1.4664424      0.84149715   
     30600  -6115.935      -6179.8778      63.942831      17891.717      381.9948       8789.1619      1.4703789      0.84149715   
     30700  -6114.7292     -6181.359       66.629852      18297.584      398.04708      8772.1867      1.4732242      0.84149715   
     30800  -6117.4613     -6183.6928      66.231493      15277.1        395.66728      8759.3637      1.4753809      0.84149715   
     30900  -6116.8973     -6181.79        64.892753      18816.553      387.66964      8750.5509      1.4768668      0.84149715   
     31000  -6117.4602     -6182.4004      64.94013       12703.952      387.95267      8750.2131      1.4769238      0.80017421   
     31100  -6118.9181     -6183.8954      64.977301      12764.669      388.17473      8756.3673      1.4758858      0.80017421   
     31200  -6118.1745     -6183.0351      64.860609      15343.35       387.47761      8762.9005      1.4747854      0.80017421   
     31300  -6117.4937     -6181.8574      64.363729      16744.882      384.50925      8772.9721      1.4730923      0.80017421   
     31400  -6117.0828     -6182.0652      64.98234       15269.349      388.20483      8787.7694      1.4706119      0.80017421   
     31500  -6118.1908     -6184.6557      66.464869      14595.836      397.06147      8804.3062      1.4678497      0.80017421   
     31600  -6120.0166     -6183.8825      63.865864      14227.633      381.535        8815.053       1.4660601      0.80017421   
     31700  -6118.8901     -6183.1011      64.211004      16875.831      383.59687      8818.9215      1.465417       0.80017421   
     31800  -6117.0558     -6180.4917      63.43588       15292.358      378.96627      8816.028       1.465898       0.80017421   
     31900  -6115.7205     -6181.2306      65.510068      14617.815      391.35748      8809.3688      1.4670061      0.80017421   
     32000  -6115.8304     -6182.4616      66.631185      15204.773      398.05504      8802.5119      1.4681489      0.79074646   
     32100  -6114.3709     -6181.1836      66.812695      18994.901      399.13938      8794.7816      1.4694393      0.79074646   
     32200  -6117.0469     -6181.0858      64.038863      18649.325      382.5685       8786.9948      1.4707415      0.79074646   
     32300  -6118.0613     -6183.3093      65.247966      15544.146      389.79168      8778.3054      1.4721973      0.79074646   
     32400  -6117.1403     -6182.2985      65.158219      15976.326      389.25553      8767.2705      1.4740503      0.79074646   
     32500  -6118.1595     -6182.1377      63.978234      15442.453      382.2063       8755.5119      1.47603        0.79074646   
     32600  -6118.5086     -6183.0125      64.503877      18463.443      385.34649      8747.6196      1.4773617      0.79074646   
     32700  -6119.2066     -6186.2513      67.044701      15117.853      400.52539      8744.3812      1.4779088      0.79074646   
     32800  -6122.6243     -6186.5772      63.952915      17526.694      382.05505      8743.6006      1.4780407      0.79074646   
     32900  -6121.2741     -6186.9048      65.630735      16767.644      392.07835      8743.8724      1.4779948      0.79074646   
     33000  -6121.2618     -6184.3773      63.115523      14867.448      377.05246      8745.1288      1.4777824      0.87343784   
     33100  -6122.129      -6183.6028      61.473799      10998.558      367.24479      8747.589       1.4773668      0.87343784   
     33200  -6122.2039     -6186.0764      63.872493      15126.131      381.5746       8751.7132      1.4766706      0.87343784   
     33300  -6121.9879     -6185.3285      63.340562      16368.934      378.39685      8751.6441      1.4766823      0.87343784   
     33400  -6121.152      -6184.4714      63.3194        14991.479      378.27042      8746.6105      1.4775321      0.87343784   
     33500  -6119.3585     -6183.1878      63.829286      17984.059      381.31648      8741.321       1.4784262      0.87343784   
     33600  -6119.5145     -6184.426       64.911484      19384.181      387.78154      8739.6815      1.4787035      0.87343784   
     33700  -6120.5064     -6187.2212      66.714789      18114.69       398.55449      8739.8612      1.4786731      0.87343784   
     33800  -6118.9011     -6184.5145      65.613436      15149.68       391.97501      8736.8394      1.4791846      0.87343784   
     33900  -6118.1813     -6182.717       64.53571       14192.771      385.53666      8736.1538      1.4793006      0.87343784   
     34000  -6116.9868     -6183.167       66.180183      18560.713      395.36075      8741.4023      1.4784124      0.80481914   
     34100  -6117.1161     -6182.0712      64.955116      19410.006      388.0422       8754.6357      1.4761777      0.80481914   
     34200  -6117.1082     -6182.9988      65.890654      14667.229      393.63111      8774.0772      1.4729068      0.80481914   
     34300  -6118.0942     -6183.9447      65.850523      17116.494      393.39136      8796.6195      1.4691323      0.80481914   
     34400  -6121.0396     -6183.7172      62.6776        13874.531      374.43631      8814.7752      1.4661064      0.80481914   
     34500  -6121.3575     -6185.4248      64.067251      12163.706      382.73809      8823.0758      1.4647271      0.80481914   
     34600  -6121.3506     -6186.0846      64.733973      12958.56       386.72109      8817.4994      1.4656534      0.80481914   
     34700  -6121.838      -6188.649       66.810975      13636.097      399.12911      8795.4871      1.4693215      0.80481914   
     34800  -6122.025      -6186.627       64.602025      18304.045      385.93283      8759.001       1.475442       0.80481914   
     34900  -6120.1074     -6184.1519      64.044511      17037.934      382.60224      8717.3319      1.4824947      0.80481914   
     35000  -6119.4471     -6184.9906      65.543568      14085.455      391.55761      8682.7352      1.4884017      0.81527232   
     35100  -6120.0123     -6186.3059      66.293633      14774.858      396.03851      8662.4227      1.4918919      0.81527232   
     35200  -6119.8382     -6185.8336      65.995428      17670.878      394.25703      8658.8036      1.4925154      0.81527232   
     35300  -6120.3125     -6185.6182      65.305708      13578.925      390.13664      8674.4557      1.4898223      0.81527232   
     35400  -6122.2152     -6187.0742      64.859015      17462.87       387.46809      8706.2812      1.4843764      0.81527232   
     35500  -6123.1849     -6185.7312      62.54635       14475.226      373.65222      8741.8078      1.4783439      0.81527232   
     35600  -6122.0838     -6186.8181      64.734212      13454.925      386.72252      8777.3025      1.4723656      0.81527232   
     35700  -6119.6834     -6183.6309      63.947493      12527.148      382.02265      8806.6714      1.4674555      0.81527232   
     35800  -6119.0376     -6184.6266      65.589009      14961.232      391.82908      8826.9637      1.4640819      0.81527232   
     35900  -6118.8194     -6184.5199      65.700528      13927.933      392.49529      8833.4996      1.4629986      0.81527232   
     36000  -6119.2932     -6182.3226      63.029383      12073.719      376.53786      8828.4294      1.4638388      0.72672416   
     36100  -6118.1574     -6185.301       67.143671      13225.336      401.11664      8813.3409      1.4663449      0.72672416   
     36200  -6119.8829     -6182.5383      62.655339      10491.805      374.30332      8789.8644      1.4702614      0.72672416   
     36300  -6119.6744     -6183.5717      63.897354      8638.9228      381.72312      8763.0102      1.474767       0.72672416   
     36400  -6117.0797     -6181.0806      64.000889      12748.419      382.34164      8736.4074      1.4792577      0.72672416   
     36500  -6117.0133     -6184.0192      67.005951      15019.573      400.2939       8718.2686      1.4823354      0.72672416   
     36600  -6117.528      -6183.5757      66.04772       17189.871      394.56942      8709.5124      1.4838257      0.72672416   
     36700  -6119.7793     -6185.2593      65.479978      19049.541      391.17772      8713.061       1.4832213      0.72672416   
     36800  -6120.1604     -6185.7219      65.561526      20127.218      391.66489      8724.568       1.4812651      0.72672416   
     36900  -6122.0128     -6186.6851      64.672339      12785.788      386.35289      8739.6657      1.4787062      0.72672416   
     37000  -6123.6696     -6187.0174      63.34779       12995.78       378.44002      8752.5445      1.4765304      0.75372819   
     37100  -6120.8833     -6184.9071      64.023793      14711.77       382.47847      8756.2449      1.4759064      0.75372819   
     37200  -6121.6378     -6184.9527      63.314903      14435.713      378.24355      8754.4092      1.4762159      0.75372819   
     37300  -6122.0375     -6186.9648      64.927279      16140.588      387.8759       8748.8641      1.4771515      0.75372819   
     37400  -6123.5926     -6186.8848      63.292162      12986.079      378.1077       8738.3385      1.4789308      0.75372819   
     37500  -6120.9383     -6186.102       65.163692      13644.601      389.28823      8722.6811      1.4815855      0.75372819   
     37600  -6123.2651     -6185.4339      62.168722      10866.467      371.39627      8709.313       1.4838596      0.75372819   
     37700  -6125.607      -6187.4702      61.863225      15592.404      369.57122      8698.9295      1.4856308      0.75372819   
     37800  -6123.9206     -6187.9015      63.980883      15743.652      382.22213      8688.8108      1.487361       0.75372819   
     37900  -6122.0364     -6187.3525      65.316088      12924.712      390.19865      8680.8664      1.4887221      0.75372819   
     38000  -6122.7272     -6187.8983      65.171017      14100.296      389.33199      8681.6075      1.488595       0.74471361   
     38100  -6124.4159     -6187.5236      63.107718      14423.223      377.00583      8691.7833      1.4868523      0.74471361   
     38200  -6124.6365     -6188.4611      63.824653      13996.199      381.28881      8704.1699      1.4847364      0.74471361   
     38300  -6124.9078     -6186.9852      62.077418      11842.714      370.85081      8718.3583      1.4823201      0.74471361   
     38400  -6124.1343     -6186.6754      62.541146      12636.181      373.62113      8734.6105      1.479562       0.74471361   
     38500  -6123.7725     -6187.326       63.553402      13754.002      379.66835      8747.2289      1.4774277      0.74471361   
     38600  -6123.1984     -6187.6042      64.405863      15558.547      384.76096      8754.5451      1.476193       0.74471361   
     38700  -6124.1325     -6187.7823      63.649837      13837.014      380.24445      8755.1248      1.4760952      0.74471361   
     38800  -6123.4043     -6184.7639      61.359608      12748.694      366.56262      8750.5702      1.4768635      0.74471361   
     38900  -6121.8396     -6187.3407      65.50115       16114.97       391.30421      8742.5617      1.4782164      0.74471361   
     39000  -6121.3893     -6185.6514      64.262052      17030.37       383.90183      8734.28        1.479618       0.82611682   
     39100  -6122.6122     -6186.8518      64.23964       16127.148      383.76794      8729.1552      1.4804867      0.82611682   
     39200  -6120.9038     -6186.6948      65.790967      18334.254      393.03558      8725.8771      1.4810428      0.82611682   
     39300  -6120.0498     -6185.9207      65.87091       18041.486      393.51316      8727.215       1.4808158      0.82611682   
     39400  -6121.1793     -6185.9131      64.73384       17298.536      386.7203       8737.8697      1.4790101      0.82611682   
     39500  -6120.3338     -6184.5892      64.255379      16724.726      383.86197      8755.5085      1.4760305      0.82611682   
     39600  -6120.9589     -6185.9207      64.961711      11437.5        388.0816       8776.7935      1.4724509      0.82611682   
     39700  -6120.8031     -6186.1104      65.30728       14106.199      390.14603      8795.7671      1.4692747      0.82611682   
     39800  -6120.5912     -6183.1615      62.570331      11626.182      373.79548      8810.1748      1.4668719      0.82611682   
     39900  -6120.7969     -6185.7781      64.981184      12036.744      388.19793      8822.1557      1.4648798      0.82611682   
     40000  -6121.4714     -6184.4269      62.955402      12802.455      376.0959       8824.1172      1.4645542      0.76667625   
     40100  -6124.1959     -6186.2432      62.047332      10320.964      370.67108      8815.4756      1.4659899      0.76667625   
     40200  -6124.2923     -6186.2405      61.94823       11633.031      370.07905      8795.4867      1.4693215      0.76667625   
     40300  -6122.7433     -6186.0638      63.320574      11627.761      378.27744      8766.8831      1.4741155      0.76667625   
     40400  -6121.0543     -6186.4567      65.402396      13905.449      390.71425      8735.036       1.4794899      0.76667625   
     40500  -6120.6384     -6185.5921      64.953733      16857.708      388.03394      8707.7614      1.484124       0.76667625   
     40600  -6121.0623     -6186.3719      65.309606      15028.766      390.15992      8689.7011      1.4872086      0.76667625   
     40700  -6121.5278     -6186.355       64.827265      16166.861      387.27842      8679.9396      1.4888811      0.76667625   
     40800  -6122.4947     -6184.6827      62.187964      14451.639      371.51122      8680.2888      1.4888212      0.76667625   
     40900  -6122.4574     -6184.9177      62.460291      17299.986      373.1381       8689.6115      1.4872239      0.76667625   
     41000  -6122.7755     -6186.9956      64.220016      15990.175      383.65071      8709.7462      1.4837858      0.79906757   
     41100  -6123.6289     -6185.9189      62.28999       16845.88       372.12072      8735.4922      1.4794127      0.79906757   
     41200  -6123.534      -6187.3234      63.789428      12950.086      381.07837      8759.7258      1.4753199      0.79906757   
     41300  -6120.7958     -6186.5888      65.793014      12876.645      393.04781      8779.6217      1.4719766      0.79906757   
     41400  -6119.6707     -6182.68        63.009336      13956.816      376.4181       8793.7868      1.4696056      0.79906757   
     41500  -6118.6844     -6186.2721      67.587734      14039.828      403.76947      8802.7347      1.4681117      0.79906757   
     41600  -6118.5919     -6183.1054      64.513547      13739.777      385.40426      8807.8921      1.4672521      0.79906757   
     41700  -6115.8961     -6182.5317      66.635545      18997.894      398.08109      8809.6757      1.466955       0.79906757   
     41800  -6115.2131     -6183.3511      68.138021      19960.601      407.05689      8813.754       1.4662762      0.79906757   
     41900  -6117.3943     -6182.9627      65.568392      19012.568      391.70591      8819.1879      1.4653728      0.79906757   
     42000  -6117.9228     -6185.695       67.772186      16619.311      404.87139      8822.9533      1.4647474      0.7298031    
     42100  -6118.7051     -6184.7414      66.036293      15687.454      394.50116      8820.4162      1.4651687      0.7298031    
     42200  -6118.4334     -6182.9778      64.544416      15273.929      385.58867      8815.4167      1.4659997      0.7298031    
     42300  -6119.2367     -6183.6084      64.371693      13406.932      384.55682      8808.3031      1.4671836      0.7298031    
     42400  -6119.2233     -6184.2105      64.987206      13795.626      388.2339       8798.5782      1.4688053      0.7298031    
     42500  -6117.4327     -6183.7153      66.282556      16409.81       395.97233      8785.5861      1.4709773      0.7298031    
     42600  -6116.8347     -6182.5341      65.699363      15449.832      392.48833      8775.4029      1.4726843      0.7298031    
     42700  -6118.2722     -6184.0365      65.764267      15820.565      392.87607      8772.3031      1.4732047      0.7298031    
     42800  -6119.0798     -6184.6612      65.581439      12779.885      391.78385      8772.8111      1.4731194      0.7298031    
     42900  -6117.8361     -6181.8938      64.057767      14069.333      382.68143      8775.7879      1.4726197      0.7298031    
     43000  -6118.184      -6180.7592      62.57516       17077.026      373.82433      8784.8295      1.471104       0.81000229   
     43100  -6115.5646     -6183.9018      68.337261      15175.955      408.24715      8801.6195      1.4682977      0.81000229   
     43200  -6117.1161     -6185.2911      68.175019      15207.951      407.27791      8820.7582      1.4651119      0.81000229   
     43300  -6116.7675     -6181.6763      64.908838      17048.853      387.76573      8836.3904      1.46252        0.81000229   
     43400  -6113.9993     -6181.0308      67.031474      10879.505      400.44637      8850.2552      1.4602288      0.81000229   
     43500  -6115.1933     -6182.9697      67.776384      13939.499      404.89647      8861.5059      1.4583749      0.81000229   
     43600  -6114.6669     -6182.1651      67.498171      12350.748      403.23442      8867.3164      1.4574193      0.81000229   
     43700  -6114.5355     -6181.8286      67.293125      14615.538      402.00948      8867.8336      1.4573343      0.81000229   
     43800  -6114.9015     -6181.3711      66.469579      13964.751      397.08961      8866.0785      1.4576228      0.81000229   
     43900  -6114.0996     -6179.6413      65.541686      14022.319      391.54637      8862.2454      1.4582532      0.81000229   
     44000  -6114.6015     -6182.3516      67.75009       9410.3484      404.73938      8857.3334      1.4590619      0.76941129   
     44100  -6115.003      -6181.3446      66.341589      13121.243      396.32499      8849.4825      1.4603563      0.76941129   
     44200  -6113.6144     -6181.3697      67.755344      14388.434      404.77077      8840.4835      1.4618429      0.76941129   
     44300  -6114.3356     -6180.6558      66.3202        14453.568      396.19721      8834.3972      1.46285        0.76941129   
     44400  -6115.2262     -6182.1061      66.879906      14694.026      399.5409       8834.011       1.4629139      0.76941129   
     44500  -6114.8409     -6181.7393      66.898352      13282.772      399.6511       8833.6804      1.4629687      0.76941129   
     44600  -6115.4119     -6181.385       65.973074      14966.638      394.12348      8833.2718      1.4630364      0.76941129   
     44700  -6114.9466     -6181.351       66.404423      14792.92       396.70037      8836.6509      1.4624769      0.76941129   
     44800  -6116.1366     -6183.6383      67.501719      11251.46       403.25562      8838.8102      1.4621196      0.76941129   
     44900  -6117.9882     -6182.2404      64.252206      14826.513      383.84301      8833.7976      1.4629493      0.76941129   
     45000  -6118.7463     -6184.7057      65.959351      12809.216      394.0415       8822.4294      1.4648344      0.77685702   
     45100  -6119.4207     -6183.4178      63.997112      16559.019      382.31908      8806.3132      1.4675151      0.77685702   
     45200  -6117.3668     -6184.4743      67.107571      14604.065      400.90097      8785.1692      1.4710471      0.77685702   
     45300  -6117.8396     -6184.6847      66.845111      15001.365      399.33304      8762.3545      1.4748773      0.77685702   
     45400  -6115.1553     -6182.2453      67.090032      20218.315      400.79619      8744.2082      1.477938       0.77685702   
     45500  -6114.2033     -6182.975       68.771689      16791.275      410.84242      8737.1725      1.4791282      0.77685702   
     45600  -6117.5159     -6183.6948      66.17896       11824.186      395.35345      8738.5538      1.4788943      0.77685702   
     45700  -6118.8105     -6184.1876      65.3771        13359.503      390.56313      8743.5151      1.4780552      0.77685702   
     45800  -6117.8607     -6182.7825      64.921751      18991.79       387.84288      8752.1098      1.4766037      0.77685702   
     45900  -6117.19       -6184.7237      67.533669      18345.023      403.44649      8764.6423      1.4744923      0.77685702   
     46000  -6118.218      -6184.6071      66.38911       16568.931      396.60889      8778.2608      1.4722048      0.73519438   
     46100  -6119.4435     -6186.0545      66.61105       12977.418      397.93476      8789.1094      1.4703876      0.73519438   
     46200  -6121.7205     -6186.6734      64.952962      14802.664      388.02933      8794.8602      1.4694262      0.73519438   
     46300  -6119.1705     -6184.1806      65.010039      11805.511      388.37031      8795.9685      1.469241       0.73519438   
     46400  -6119.4681     -6184.9623      65.494179      13183.196      391.26256      8789.4955      1.4703231      0.73519438   
     46500  -6117.7456     -6182.6544      64.908745      15253.689      387.76518      8778.4181      1.4721784      0.73519438   
     46600  -6117.5167     -6182.9444      65.427709      16553.978      390.86547      8765.8732      1.4742853      0.73519438   
     46700  -6116.5804     -6182.647       66.066665      16531.807      394.6826       8752.9685      1.4764589      0.73519438   
     46800  -6116.4915     -6183.8789      67.387374      13286.008      402.57252      8749.019       1.4771254      0.73519438   
     46900  -6116.8095     -6184.4844      67.674911      16152.919      404.29027      8750.2804      1.4769124      0.73519438   
     47000  -6119.2559     -6186.4824      67.226513      13847.797      401.61154      8757.2607      1.4757352      0.75473405   
     47100  -6120.1234     -6185.3644      65.240922      13754.018      389.74961      8765.8072      1.4742964      0.75473405   
     47200  -6120.2081     -6184.4971      64.289         14920.857      384.06282      8771.2005      1.4733899      0.75473405   
     47300  -6120.7299     -6182.6078      61.877815      17293.777      369.65839      8772.0498      1.4732472      0.75473405   
     47400  -6120.2996     -6185.9885      65.688942      14955.666      392.42608      8768.4442      1.473853       0.75473405   
     47500  -6120.4403     -6185.7676      65.327355      16674.783      390.26595      8760.7954      1.4751398      0.75473405   
     47600  -6118.311      -6182.5129      64.201837      15904.205      383.5421       8751.9875      1.4766243      0.75473405   
     47700  -6118.7572     -6182.8182      64.060955      14031.943      382.70047      8747.9743      1.4773018      0.75473405   
     47800  -6119.7169     -6184.8871      65.170188      8981.7664      389.32704      8750.0872      1.476945       0.75473405   
     47900  -6120.3128     -6185.8459      65.533096      11967.778      391.49505      8755.3825      1.4760518      0.75473405   
     48000  -6118.4477     -6182.1402      63.692445      14185.562      380.499        8763.4161      1.4746987      0.82532128   
     48100  -6116.7331     -6185.8908      69.157703      14264.947      413.14847      8778.6265      1.4721435      0.82532128   
     48200  -6115.4447     -6184.1257      68.680956      16848.855      410.30039      8797.8647      1.4689244      0.82532128   
     48300  -6118.1659     -6183.7227      65.556717      16042.214      391.63616      8819.3096      1.4653526      0.82532128   
     48400  -6116.8498     -6182.5282      65.678404      14957.534      392.36313      8834.6306      1.4628113      0.82532128   
     48500  -6117.8368     -6183.6445      65.807724      14520.037      393.13568      8839.5122      1.4620035      0.82532128   
     48600  -6119.3833     -6184.5105      65.127219      14224.148      389.07034      8832.0844      1.4632331      0.82532128   
     48700  -6119.1158     -6185.8494      66.733624      10462.502      398.66701      8812.889       1.4664201      0.82532128   
     48800  -6121.1083     -6185.0661      63.957816      14234.202      382.08432      8781.2221      1.4717083      0.82532128   
     48900  -6119.6297     -6183.8214      64.191748      16203.403      383.48183      8742.0245      1.4783072      0.82532128   
     49000  -6119.7225     -6184.8759      65.153342      17760.639      389.2264       8705.3995      1.4845267      0.89615564   
     49100  -6122.2674     -6184.2295      61.962158      18411.325      370.16225      8676.1022      1.4895396      0.89615564   
     49200  -6123.3556     -6188.0034      64.647795      15583.685      386.20626      8659.763       1.4923501      0.89615564   
     49300  -6122.0283     -6185.5425      63.514144      12578.289      379.43382      8653.796       1.4933791      0.89615564   
     49400  -6120.6747     -6184.9652      64.290427      13361.087      384.07134      8659.9317      1.492321       0.89615564   
     49500  -6121.5124     -6185.1499      63.637485      16705.144      380.17066      8678.5691      1.4891162      0.89615564   
     49600  -6119.8194     -6187.1767      67.357238      14225.373      402.39249      8708.3963      1.4840158      0.89615564   
     49700  -6118.6194     -6184.9175      66.298103      13217.721      396.06521      8743.8562      1.4779975      0.89615564   
     49800  -6118.8759     -6182.8035      63.92766       15738.255      381.90417      8780.9173      1.4717594      0.89615564   
     49900  -6119.9692     -6183.7179      63.748696      13869.379      380.83504      8812.8372      1.4664288      0.89615564   
     50000  -6121.0934     -6185.0528      63.959417      13688.46       382.09389      8831.6911      1.4632982      0.86852528   
     50100  -6120.1226     -6184.6372      64.51464       15630.413      385.41079      8830.5882      1.463481       0.86852528   
     50200  -6119.1278     -6185.1385      66.010617      7034.6848      394.34777      8810.8951      1.466752       0.86852528   
     50300  -6119.5345     -6184.1639      64.629382      10889.648      386.09626      8777.982       1.4722516      0.86852528   
     50400  -6118.4212     -6184.5433      66.122078      16648.896      395.01363      8737.1754      1.4791277      0.86852528   
     50500  -6118.2054     -6181.6974      63.492039      19350.907      379.30177      8696.4821      1.4860489      0.86852528   
     50600  -6119.1804     -6184.9946      65.814205      17114.324      393.1744       8669.0358      1.4907538      0.86852528   
     50700  -6120.3489     -6186.5144      66.1655        18352.812      395.27304      8658.7725      1.4925208      0.86852528   
     50800  -6118.9853     -6185.0692      66.083883      17241.741      394.78546      8661.7062      1.4920153      0.86852528   
     50900  -6121.0811     -6186.8579      65.776799      12485.755      392.95094      8676.3672      1.4894941      0.86852528   
     51000  -6120.9545     -6184.3053      63.350779      15809.029      378.45788      8701.0969      1.4852608      0.75808417   
     51100  -6120.3205     -6186.1218      65.80127       9650.362       393.09713      8734.3192      1.4796114      0.75808417   
     51200  -6120.9481     -6184.7818      63.833682      11231.803      381.34274      8765.1154      1.4744128      0.75808417   
     51300  -6120.7502     -6185.0423      64.292185      12267.158      384.08185      8787.0355      1.4707347      0.75808417   
     51400  -6122.7885     -6185.6662      62.877674      11568.899      375.63155      8797.2165      1.4690326      0.75808417   
     51500  -6122.6028     -6186.4566      63.853804      15847.758      381.46295      8791.6383      1.4699647      0.75808417   
     51600  -6120.8142     -6186.0287      65.214462      12317.703      389.59153      8775.8008      1.4726175      0.75808417   
     51700  -6119.7529     -6183.4138      63.660814      12728.575      380.31003      8755.4306      1.4760437      0.75808417   
     51800  -6120.9253     -6184.1733      63.248043      12919.022      377.84414      8736.4473      1.4792509      0.75808417   
     51900  -6118.8356     -6184.91        66.0744        14569.154      394.72881      8720.5152      1.4819535      0.75808417   
     52000  -6120.1114     -6185.495       65.383568      13985.279      390.60177      8711.7346      1.4834472      0.84773829   
     52100  -6120.8095     -6185.313       64.50351       17007.967      385.3443       8711.1179      1.4835522      0.84773829   
     52200  -6121.8056     -6185.4297      63.624122      13811.605      380.09083      8719.6647      1.482098       0.84773829   
     52300  -6122.2174     -6187.4599      65.242468      10388.409      389.75884      8733.8306      1.4796941      0.84773829   
     52400  -6121.4584     -6185.4973      64.038902      8934.2715      382.56873      8744.9722      1.4778089      0.84773829   
     52500  -6121.9744     -6185.1732      63.198888      12574.161      377.55048      8755.5263      1.4760275      0.84773829   
     52600  -6122.1617     -6186.2924      64.130736      13125.572      383.11735      8766.6942      1.4741472      0.84773829   
     52700  -6122.4563     -6184.4524      61.996078      15977.467      370.36489      8771.8681      1.4732777      0.84773829   
     52800  -6122.2229     -6187.3263      65.103438      13555.141      388.92828      8774.768       1.4727908      0.84773829   
     52900  -6123.5966     -6187.5158      63.919151      13471.567      381.85334      8772.6259      1.4731505      0.84773829   
     53000  -6124.4334     -6188.5618      64.128441      17696.168      383.10364      8764.1605      1.4745734      0.82388706   
     53100  -6122.9385     -6187.4159      64.477391      15425.347      385.18827      8746.3423      1.4775774      0.82388706   
     53200  -6120.8934     -6184.3148      63.421418      18086.694      378.87988      8724.2112      1.4813257      0.82388706   
     53300  -6119.8945     -6186.9263      67.031788      16927.733      400.44825      8706.5327      1.4843335      0.82388706   
     53400  -6120.9431     -6185.2619      64.318876      17065.305      384.2413       8695.6245      1.4861955      0.82388706   
     53500  -6119.8061     -6186.6169      66.810799      16614.085      399.12806      8695.9937      1.4861324      0.82388706   
     53600  -6118.6712     -6184.7949      66.123734      16294.757      395.02353      8705.1357      1.4845717      0.82388706   
     53700  -6119.1627     -6186.7294      67.566709      15220.828      403.64386      8725.5311      1.4811016      0.82388706   
     53800  -6121.855      -6185.6663      63.811286      18100.361      381.20895      8750.7326      1.4768361      0.82388706   
     53900  -6121.8096     -6186.2997      64.490139      17359.835      385.26443      8775.4576      1.4726751      0.82388706   
     54000  -6121.7697     -6184.2398      62.470081      18214.598      373.19658      8792.7168      1.4697844      0.78312513   
     54100  -6124.2268     -6186.7582      62.531398      11177.531      373.5629       8801.6497      1.4682927      0.78312513   
     54200  -6123.0046     -6186.066       63.061443      10211.107      376.72938      8795.4856      1.4693217      0.78312513   
     54300  -6122.9836     -6186.0122      63.028605      13303.869      376.53321      8777.4863      1.4723347      0.78312513   
     54400  -6123.1441     -6186.8564      63.712315      15961.174      380.6177       8753.9162      1.476299       0.78312513   
     54500  -6122.6906     -6188.0336      65.343015      13240.431      390.35951      8727.1659      1.4808241      0.78312513   
     54600  -6120.956      -6183.9896      63.033669      10925.13       376.56346      8700.0888      1.4854329      0.78312513   
     54700  -6121.9055     -6186.4959      64.59045       13860.584      385.86368      8684.1092      1.4881662      0.78312513   
     54800  -6120.6781     -6185.9303      65.25217       13954.86       389.8168       8678.1995      1.4891796      0.78312513   
     54900  -6119.8607     -6185.9022      66.04156       18661.033      394.53262      8685.5103      1.4879261      0.78312513   
     55000  -6119.9669     -6186.3668      66.399822      18636.781      396.67288      8711.1918      1.4835396      0.81419107   
     55100  -6121.8085     -6184.1276      62.319131      17900.913      372.29481      8750.1898      1.4769277      0.81419107   
[...]
   2186100  -6123.2164     -6186.793       63.576625      13847.246      379.80709      8731.1483      1.4801487      0.88180239   
   2186200  -6122.2783     -6187.0694      64.791113      12798.764      387.06244      8745.2954      1.4777543      0.88180239   
   2186300  -6122.7708     -6188.8095      66.038701      15449.712      394.51554      8764.5683      1.4745048      0.88180239   
   2186400  -6121.8944     -6189.2012      67.306735      13172.298      402.09078      8783.4923      1.471328       0.88180239   
   2186500  -6118.4892     -6184.8569      66.367692      15104.252      396.48093      8799.5763      1.4686387      0.88180239   
   2186600  -6118.0336     -6182.7822      64.748595      14538.807      386.80844      8816.9275      1.4657485      0.88180239   
   2186700  -6115.2019     -6183.2721      68.070176      13016.798      406.65158      8832.2948      1.4631982      0.88180239   
   2186800  -6114.9124     -6184.5338      69.621458      13410.05       415.91895      8844.6959      1.4611467      0.88180239   
   2186900  -6115.0305     -6183.3549      68.324424      16515.725      408.17046      8852.1852      1.4599105      0.88180239   
   2187000  -6116.8328     -6182.6036      65.77075       12748.741      392.9148       8853.2439      1.4597359      0.77896251   
   2187100  -6119.8107     -6186.437       66.626342      15477.892      398.02611      8843.5129      1.4613421      0.77896251   
   2187200  -6120.4107     -6187.006       66.595326      12973.337      397.84082      8823.9444      1.4645829      0.77896251   
   2187300  -6120.5399     -6188.4367      67.89686       15008.298      405.61619      8796.6828      1.4691217      0.77896251   
   2187400  -6121.5438     -6185.9678      64.424084      17311.955      384.86981      8764.2253      1.4745625      0.77896251   
   2187500  -6120.9624     -6187.3701      66.40767       14578.713      396.71977      8731.157       1.4801472      0.77896251   
   2187600  -6120.9941     -6187.6943      66.700236      13573.319      398.46755      8704.645       1.4846554      0.77896251   
   2187700  -6121.2204     -6186.5234      65.303003      18882.612      390.12048      8691.1587      1.4869591      0.77896251   
   2187800  -6120.2337     -6185.204       64.9703        15462.475      388.13291      8694.5193      1.4863844      0.77896251   
   2187900  -6121.839      -6187.2259      65.386877      14887.845      390.62154      8715.6208      1.4827857      0.77896251   
   2188000  -6122.9318     -6188.0823      65.150522      15061.172      389.20955      8750.3225      1.4769053      0.78914827   
   2188100  -6121.9        -6187.1058      65.205765      12798.697      389.53958      8793.7086      1.4696186      0.78914827   
   2188200  -6121.33       -6185.6851      64.355025      12787.128      384.45725      8838.0279      1.462249       0.78914827   
   2188300  -6121.3903     -6187.5231      66.132795      11540.429      395.07766      8875.3364      1.4561023      0.78914827   
   2188400  -6121.945      -6186.5134      64.568443      15155.606      385.73221      8895.9094      1.4527349      0.78914827   
   2188500  -6122.556      -6183.9973      61.441275      12869.368      367.05049      8894.966       1.452889       0.78914827   
   2188600  -6121.2612     -6185.6257      64.364475      15538.391      384.5137       8876.003       1.455993       0.78914827   
   2188700  -6120.0492     -6187.3164      67.26711       13750.759      401.85406      8841.4118      1.4616894      0.78914827   
   2188800  -6121.9482     -6188.6982      66.750044      13212.305      398.7651       8797.5754      1.4689727      0.78914827   
   2188900  -6121.202      -6187.3913      66.189267      12214.543      395.41502      8748.2885      1.4772487      0.78914827   
   2189000  -6123.6394     -6187.3926      63.75323       12600.761      380.86212      8702.2405      1.4850656      0.74939109   
   2189100  -6123.2822     -6187.5327      64.250521      15920.712      383.83294      8664.8409      1.4914755      0.74939109   
   2189200  -6124.369      -6187.5547      63.185706      16569.983      377.47173      8642.6513      1.4953048      0.74939109   
   2189300  -6124.4553     -6188.614       64.158651      17411.203      383.28411      8640.9547      1.4955984      0.74939109   
   2189400  -6122.0734     -6187.0621      64.988691      14635.955      388.24278      8656.203       1.4929638      0.74939109   
   2189500  -6121.2477     -6187.3892      66.141482      15995.106      395.12956      8686.249       1.4877996      0.74939109   
   2189600  -6122.2809     -6188.3311      66.050209      16160.675      394.58429      8727.308       1.4808         0.74939109   
   2189700  -6123.1646     -6187.5513      64.386736      15597.438      384.64669      8771.9791      1.4732591      0.74939109   
   2189800  -6123.8605     -6189.2288      65.368296      17366.182      390.51054      8812.3535      1.4665093      0.74939109   
   2189900  -6122.4925     -6186.8284      64.335889      17214.367      384.34293      8838.3079      1.4622027      0.74939109   
   2190000  -6122.6368     -6187.0664      64.429557      18205.986      384.90251      8848.0673      1.4605899      0.7750711    
   2190100  -6120.5679     -6185.938       65.370097      20547.408      390.5213       8843.7862      1.461297       0.7750711    
   2190200  -6122.7682     -6189.4493      66.681144      17414.518      398.3535       8825.1355      1.4643852      0.7750711    
   2190300  -6120.855      -6186.5083      65.653311      16070.449      392.21322      8794.5301      1.4694813      0.7750711    
   2190400  -6120.2229     -6186.0496      65.826666      11950.89       393.24884      8762.4802      1.4748562      0.7750711    
   2190500  -6120.3125     -6184.4393      64.126857      16853.177      383.09418      8733.8449      1.4796917      0.7750711    
   2190600  -6119.4858     -6186.3174      66.831592      12348.027      399.25228      8714.8336      1.4829196      0.7750711    
   2190700  -6119.2734     -6186.8743      67.600936      12827.726      403.84834      8707.3573      1.4841929      0.7750711    
   2190800  -6120.8059     -6184.4381      63.632214      16019.843      380.13917      8709.926       1.4837552      0.7750711    
   2190900  -6120.5885     -6187.8584      67.269841      13415.429      401.87038      8723.5911      1.481431       0.7750711    
   2191000  -6121.2247     -6188.9617      67.736983      10563.559      404.66109      8739.8396      1.4786768      0.90344337   
   2191100  -6120.0783     -6185.2375      65.159234      12924.94       389.2616       8758.1579      1.475584       0.90344337   
   2191200  -6120.534      -6185.7621      65.228173      13350.289      389.67344      8781.9401      1.471588       0.90344337   
   2191300  -6120.79       -6186.8392      66.049114      12363.559      394.57775      8806.154       1.4675417      0.90344337   
   2191400  -6122.5695     -6187.6291      65.059575      14716.7        388.66623      8826.6339      1.4641366      0.90344337   
   2191500  -6121.6667     -6188.5885      66.921752      15809.861      399.79089      8835.467       1.4626729      0.90344337   
   2191600  -6121.2628     -6186.3674      65.104564      14792.253      388.935        8829.4224      1.4636742      0.90344337   
   2191700  -6121.1311     -6187.0052      65.874101      12867.499      393.53222      8814.9609      1.4660755      0.90344337   
   2191800  -6121.9985     -6187.5323      65.533743      15241.018      391.49892      8792.7053      1.4697863      0.90344337   
   2191900  -6119.9985     -6186.9468      66.948314      15624.594      399.94957      8763.4723      1.4746892      0.90344337   
   2192000  -6121.2082     -6186.2829      65.074676      17957.57       388.75645      8735.8874      1.4793458      0.80662293   
   2192100  -6120.9902     -6187.6732      66.682937      15758.572      398.36421      8719.223       1.4821731      0.80662293   
   2192200  -6123.6976     -6187.0601      63.362497      14464.294      378.52788      8710.129       1.4837206      0.80662293   
   2192300  -6121.0534     -6187.0489      65.995562      15372.901      394.25783      8710.0099      1.4837409      0.80662293   
   2192400  -6120.671      -6188.3218      67.650714      16910.527      404.14572      8720.9493      1.4818797      0.80662293   
   2192500  -6119.9181     -6187.3956      67.477502      18046.622      403.11094      8738.7617      1.4788592      0.80662293   
   2192600  -6119.5176     -6183.9125      64.394906      17803.689      384.6955       8762.3387      1.47488        0.80662293   
   2192700  -6119.1668     -6185.2389      66.072175      16710.643      394.71552      8791.3127      1.4700191      0.80662293   
   2192800  -6119.547      -6186.3863      66.839266      17201.843      399.29812      8820.5288      1.46515        0.80662293   
   2192900  -6120.9132     -6188.0255      67.11228       14076.417      400.9291       8842.1436      1.4615684      0.80662293   
   2193000  -6119.2973     -6183.3589      64.061588      13071.85       382.70426      8851.5904      1.4600086      0.87791541   
   2193100  -6119.6752     -6186.0139      66.338694      14403.935      396.3077       8851.9182      1.4599545      0.87791541   
   2193200  -6119.6467     -6185.7839      66.137144      13666.484      395.10364      8843.0816      1.4614134      0.87791541   
   2193300  -6122.2022     -6186.275       64.072757      11222.096      382.77098      8825.3968      1.4643419      0.87791541   
   2193400  -6121.2167     -6187.242       66.025322      15455.779      394.43561      8799.9891      1.4685698      0.87791541   
   2193500  -6120.4567     -6185.5503      65.093578      12203.881      388.86937      8769.292       1.4737105      0.87791541   
   2193600  -6122.0487     -6187.7921      65.743374      14449.866      392.75125      8738.9377      1.4788294      0.87791541   
   2193700  -6120.4882     -6187.0834      66.595211      15839.333      397.84013      8711.9946      1.4834029      0.87791541   
   2193800  -6117.797      -6186.2646      68.467578      17137.067      409.02566      8697.3556      1.4858997      0.87791541   
   2193900  -6119.0704     -6184.3         65.229597      18024.445      389.68195      8697.5732      1.4858625      0.87791541   
   2194000  -6121.2449     -6188.2434      66.998485      15836.788      400.2493       8714.5469      1.4829684      0.79707469   
   2194100  -6120.6518     -6186.3829      65.73105       13286.398      392.67763      8739.7897      1.4786852      0.79707469   
   2194200  -6119.276      -6187.6985      68.422504      14669.668      408.75639      8771.7331      1.4733004      0.79707469   
   2194300  -6119.3043     -6185.0413      65.736983      15630.397      392.71308      8808.7415      1.4671106      0.79707469   
   2194400  -6122.1043     -6188.8624      66.758143      14039.804      398.81349      8844.4827      1.4611819      0.79707469   
   2194500  -6121.0017     -6187.2191      66.217368      12749.795      395.5829       8866.847       1.4574964      0.79707469   
   2194600  -6118.7727     -6186.4528      67.680045      9950.9797      404.32094      8873.4649      1.4564094      0.79707469   
   2194700  -6121.3187     -6184.9486      63.629843      11640.702      380.12501      8862.3924      1.458229       0.79707469   
   2194800  -6121.3049     -6186.0081      64.703187      11666.852      386.53717      8833.6128      1.4629799      0.79707469   
   2194900  -6120.0165     -6187.3099      67.293434      10213.303      402.01132      8791.9128      1.4699188      0.79707469   
   2195000  -6120.0838     -6185.3322      65.248441      17552.968      389.79453      8746.6036      1.4775333      0.73749199   
   2195100  -6119.8442     -6186.5665      66.722236      16431.312      398.59898      8707.6317      1.4841461      0.73749199   
   2195200  -6121.5341     -6187.9391      66.405054      16121.598      396.70413      8679.8432      1.4888976      0.73749199   
   2195300  -6121.4645     -6184.0824      62.61786       17602.854      374.07942      8669.4576      1.4906813      0.73749199   
   2195400  -6122.0846     -6188.1783      66.093684      18866.37       394.84401      8682.5859      1.4884273      0.73749199   
   2195500  -6124.3927     -6188.8905      64.497846      15521.616      385.31047      8712.4196      1.4833305      0.73749199   
   2195600  -6122.1633     -6187.016       64.852705      14433.135      387.4304       8750.5074      1.4768741      0.73749199   
   2195700  -6123.5563     -6188.0166      64.460331      10756.432      385.08635      8788.8828      1.4704256      0.73749199   
   2195800  -6123.7717     -6188.0863      64.314655      9618.9898      384.21608      8824.3409      1.4645171      0.73749199   
   2195900  -6122.478      -6185.6439      63.165873      10975.616      377.35325      8846.5907      1.4608337      0.73749199   
   2196000  -6122.0043     -6186.5188      64.514481      12998.006      385.40984      8851.4856      1.4600259      0.79285716   
   2196100  -6122.5499     -6186.2696      63.719707      13603.999      380.66186      8838.4607      1.4621775      0.79285716   
   2196200  -6124.3874     -6188.8519      64.464491      16385.569      385.1112       8812.7441      1.4664442      0.79285716   
   2196300  -6124.2045     -6187.4353      63.230736      12568.061      377.74075      8777.9146      1.4722629      0.79285716   
   2196400  -6121.5292     -6188.2355      66.706206      15895.885      398.50322      8736.5602      1.4792318      0.79285716   
   2196500  -6122.574      -6187.8017      65.227726      17499.333      389.67077      8699.4277      1.4855458      0.79285716   
   2196600  -6123.0986     -6189.0403      65.941696      17711.803      393.93603      8669.5759      1.4906609      0.79285716   
   2196700  -6122.2584     -6187.2077      64.949279      17372.196      388.00733      8654.9754      1.4931756      0.79285716   
   2196800  -6124.1082     -6189.9765      65.868289      19238.06       393.4975       8659.2303      1.4924419      0.79285716   
   2196900  -6123.1253     -6187.3927      64.267365      20177.372      383.93357      8681.8188      1.4885588      0.79285716   
   2197000  -6123.7671     -6186.2846      62.517502      16742.478      373.47988      8714.2614      1.483017       0.77841877   
   2197100  -6124.2264     -6188.57        64.343587      17897.684      384.38892      8752.8842      1.4764731      0.77841877   
   2197200  -6120.8481     -6185.1973      64.349271      19044.208      384.42287      8790.2084      1.4702038      0.77841877   
   2197300  -6120.4493     -6185.4122      64.962911      16932.096      388.08877      8822.1967      1.464873       0.77841877   
   2197400  -6120.9979     -6185.1962      64.198283      18468.853      383.52088      8844.1652      1.4612343      0.77841877   
   2197500  -6120.3685     -6184.7055      64.336991      14371.457      384.34951      8854.1188      1.4595917      0.77841877   
   2197600  -6119.8503     -6186.0899      66.239673      9541.6596      395.71615      8845.6535      1.4609885      0.77841877   
   2197700  -6118.977      -6184.8606      65.883598      13540.109      393.58896      8822.3258      1.4648516      0.77841877   
   2197800  -6120.3579     -6186.9329      66.575021      12649.102      397.71952      8790.3126      1.4701864      0.77841877   
   2197900  -6120.8724     -6186.3855      65.513184      10622.575      391.3761       8750.5477      1.4768673      0.77841877   
   2198000  -6120.3795     -6185.2418      64.862278      12028.364      387.48759      8710.7077      1.483622       0.78954034   
   2198100  -6119.6584     -6187.0964      67.437963      16749.722      402.87474      8682.3042      1.4884756      0.78954034   
   2198200  -6119.9879     -6186.165       66.177127      17553.66       395.3425       8669.5631      1.4906631      0.78954034   
   2198300  -6123.1121     -6186.5671      63.454942      15441.033      379.08015      8675.2431      1.4896871      0.78954034   
   2198400  -6122.5796     -6186.9481      64.368546      16476.815      384.53803      8694.6185      1.4863674      0.78954034   
   2198500  -6122.3316     -6189.5204      67.188842      14979.779      401.38649      8722.1562      1.4816747      0.78954034   
   2198600  -6123.1804     -6187.0413      63.860872      13457.901      381.50518      8754.8827      1.476136       0.78954034   
   2198700  -6124.6302     -6187.4734      62.843172      18364.717      375.42543      8787.2452      1.4706996      0.78954034   
   2198800  -6122.6289     -6187.8646      65.235674      14946.998      389.71825      8810.9294      1.4667463      0.78954034   
   2198900  -6122.5996     -6188.5606      65.961042      11884.954      394.05161      8824.3662      1.4645129      0.78954034   
   2199000  -6122.167      -6187.3095      65.142544      12066.601      389.16189      8821.8816      1.4649253      0.73460131   
   2199100  -6117.3572     -6184.1475      66.790336      12505.527      399.00581      8809.7512      1.4669424      0.73460131   
   2199200  -6117.4767     -6182.3511      64.874433      14340.319      387.5602       8793.6192      1.4696336      0.73460131   
   2199300  -6114.952      -6183.6352      68.683136      13523.795      410.31341      8779.9215      1.4719264      0.73460131   
   2199400  -6114.8095     -6183.8637      69.054112      15179.361      412.52962      8773.131       1.4730656      0.73460131   
   2199500  -6118.2458     -6183.4917      65.245913      17347.838      389.77942      8774.9318      1.4727633      0.73460131   
   2199600  -6121.975      -6188.5037      66.528739      17405.297      397.44303      8780.8573      1.4717695      0.73460131   
   2199700  -6122.5983     -6187.6922      65.093896      12352.295      388.87127      8785.1345      1.4710529      0.73460131   
   2199800  -6124.2959     -6186.7857      62.489796      12455.674      373.31436      8788.9335      1.4704171      0.73460131   
   2199900  -6122.6975     -6185.8689      63.171462      18069.956      377.38664      8788.7123      1.4704541      0.73460131   
   2200000  -6125.2934     -6188.8739      63.58043       15644.318      379.82982      8784.023       1.4712391      0.90207739   
   2200033  -6125.697      -6189.4405      63.743509      13384.972      380.80405      8781.2613      1.4717018      0.90207739   
Loop time of 8459.79 on 1 procs for 2000000 steps with 1296 atoms

Performance: 10.213 ns/day, 2.350 hours/ns, 236.412 timesteps/s, 306.390 katom-step/s
99.8% CPU use with 1 MPI tasks x 1 OpenMP threads

MPI task timing breakdown:
Section |  min time  |  avg time  |  max time  |%varavg| %total
---------------------------------------------------------------
Pair    | 6472.2     | 6472.2     | 6472.2     |   0.0 | 76.50
Neigh   | 85.398     | 85.398     | 85.398     |   0.0 |  1.01
Comm    | 82.51      | 82.51      | 82.51      |   0.0 |  0.98
Output  | 5.5664     | 5.5664     | 5.5664     |   0.0 |  0.07
Modify  | 1770.4     | 1770.4     | 1770.4     |   0.0 | 20.93
Other   |            | 43.77      |            |       |  0.52

Nlocal:           1296 ave        1296 max        1296 min
Histogram: 1 0 0 0 0 0 0 0 0 0
Nghost:           4349 ave        4349 max        4349 min
Histogram: 1 0 0 0 0 0 0 0 0 0
Neighs:              0 ave           0 max           0 min
Histogram: 1 0 0 0 0 0 0 0 0 0
FullNghs:       221856 ave      221856 max      221856 min
Histogram: 1 0 0 0 0 0 0 0 0 0

Total # of neighbors = 221856
Ave neighs/atom = 171.18519
Neighbor list builds = 200000
Dangerous builds = 200000

unfix		3
unfix		4
Total wall time: 2:35:06
