LAMMPS (27 Jun 2024)
KOKKOS mode with Kokkos version 4.3.1 is enabled (src/KOKKOS/kokkos.cpp:72)
  will use up to 1 GPU(s) per node
WARNING: When using a single thread, the Kokkos Serial backend (i.e. Makefile.kokkos_mpi_only) gives better performance than the OpenMP backend (src/KOKKOS/kokkos.cpp:202)
  using 1 OpenMP thread(s) per MPI task
package kokkos
package kokkos newton on neigh half

units		metal						## E in [eV], t in [ps], P in [10000 Pa], l in [A]
atom_style	atomic						## mass x y z vx vy vz

neighbor	0.5 bin						## neighbor list, skin = 0.5 Angstrom
neigh_modify	every 2 delay 10 check yes			## update of neighbor list

############################## main variables
variable        seed equal 90434

variable	temperature equal 580
variable	tempDamp equal 0.1

variable        pressure equal 30000
variable        pressureDamp equal 1.0 				# This is 1 ps

##############################

read_data water.dat
Reading data file ...
  orthogonal box = (0 0 0) to (20.13213 20.132272 35.107669)
  1 by 1 by 1 MPI processor grid
  reading atoms ...
  2160 atoms
  read_data CPU = 0.010 seconds

mass		1 1.008    # H
mass		2 15.9994  # O


pair_style	pace/extrapolation
ACE/AL version: 2023.11.25
pair_coeff	* * /pc2/users/a/acepdw01/work/phase_diagram/pot_dir/interim_potential_ladder_step_1.yaml /pc2/users/a/acepdw01/work/phase_diagram/pot_dir/interim_potential_ladder_step_1.asi H O
Loading /pc2/users/a/acepdw01/work/phase_diagram/pot_dir/interim_potential_ladder_step_1.yaml
Total number of basis functions
	H: 23 (r=1) 664 (r>1)
	O: 23 (r=1) 664 (r>1)
Mapping LAMMPS atom type #1(H) -> ACE species type #0
Mapping LAMMPS atom type #2(O) -> ACE species type #1
Loading ASI /pc2/users/a/acepdw01/work/phase_diagram/pot_dir/interim_potential_ladder_step_1.asi
LINEAR ASI is loaded

fix pace_gamma all pair 1000 pace/extrapolation gamma 1
compute max_pace_gamma all reduce max f_pace_gamma
variable dump_skip equal "c_max_pace_gamma < 10"

dump pace_dump all custom 1000 extrapolative_structures.dump id type x y z f_pace_gamma
dump_modify pace_dump skip v_dump_skip
dump_modify pace_dump element H O

variable max_pace_gamma equal c_max_pace_gamma

timestep	0.0005						## timestep = 0.0005*ps = 0.5 fs

thermo		100
thermo_style custom step etotal pe ke press temp vol density c_max_pace_gamma


min_style cg
minimize 0.0 5.0e-4 10000 100000

CITE-CITE-CITE-CITE-CITE-CITE-CITE-CITE-CITE-CITE-CITE-CITE-CITE

Your simulation uses code contributions which should be cited:

- Type Label Framework: https://doi.org/10.1021/acs.jpcb.3c08419

@Article{Gissinger24,
 author = {Jacob R. Gissinger, Ilia Nikiforov, Yaser Afshar, Brendon Waters, Moon-ki Choi, Daniel S. Karls, Alexander Stukowski, Wonpil Im, Hendrik Heinz, Axel Kohlmeyer, and Ellad B. Tadmor},
 title = {Type Label Framework for Bonded Force Fields in LAMMPS},
 journal = {J. Phys. Chem. B},
 year =    2024,
 volume =  128,
 number =  13,
 pages =   {3282–-3297}
}

CITE-CITE-CITE-CITE-CITE-CITE-CITE-CITE-CITE-CITE-CITE-CITE-CITE

Switching to 'neigh_modify every 1 delay 0 check yes' setting during minimization
Neighbor list info ...
  update: every = 1 steps, delay = 0 steps, check = yes
  max neighbors/atom: 2000, page size: 100000
  master list distance cutoff = 6.5
  ghost atom cutoff = 6.5
  binsize = 6.5, bins = 4 4 6
  1 neighbor lists, perpetual/occasional/extra = 1 0 0
  (1) pair pace/extrapolation/kk, perpetual
      attributes: full, newton on, kokkos_device
      pair build: full/bin/kk/device
      stencil: full/bin/3d
      bin: kk/device
WARNING: Fix with atom-based arrays not compatible with sending data in Kokkos communication, switching to classic exchange/border communication (src/KOKKOS/comm_kokkos.cpp:754)
WARNING: Fix with atom-based arrays not compatible with Kokkos sorting on device, switching to classic host sorting (src/KOKKOS/atom_kokkos.cpp:216)
Per MPI rank memory allocation (min/avg/max) = 1808 | 1808 | 1808 Mbytes
   Step         TotEng         PotEng         KinEng         Press           Temp          Volume        Density     c_max_pace_gamma
         0  -10394.812     -10394.812      0              10356.492      0              14229.332      1.513704       0.94301683   
       100  -10405.399     -10405.399      0              6153.7788      0              14229.332      1.513704       0.94301683   
       200  -10407.585     -10407.585      0              6517.8061      0              14229.332      1.513704       0.94301683   
       300  -10408.546     -10408.546      0              6308.0665      0              14229.332      1.513704       0.94301683   
       400  -10408.808     -10408.808      0              6400.9832      0              14229.332      1.513704       0.94301683   
       500  -10408.847     -10408.847      0              6348.688       0              14229.332      1.513704       0.94301683   
       600  -10408.847     -10408.847      0              6348.4946      0              14229.332      1.513704       0.94301683   
       700  -10408.848     -10408.848      0              6349.231       0              14229.332      1.513704       0.94301683   
       800  -10408.849     -10408.849      0              6350.2345      0              14229.332      1.513704       0.94301683   
       900  -10408.849     -10408.849      0              6350.8107      0              14229.332      1.513704       0.94301683   
       926  -10408.849     -10408.849      0              6350.9067      0              14229.332      1.513704       0.94301683   
Loop time of 8.95689 on 1 procs for 926 steps with 2160 atoms

99.9% CPU use with 1 MPI tasks x 1 OpenMP threads

Minimization stats:
  Stopping criterion = force tolerance
  Energy initial, next-to-last, final = 
     -10394.8116753497  -10408.8486802089  -10408.8486802146
  Force two-norm initial, final = 17.431636 0.00048404729
  Force max component initial, final = 3.1552255 0.00015987083
  Final line search alpha, max atom move = 1 0.00015987083
  Iterations, force evaluations = 926 1848

MPI task timing breakdown:
Section |  min time  |  avg time  |  max time  |%varavg| %total
---------------------------------------------------------------
Pair    | 8.2565     | 8.2565     | 8.2565     |   0.0 | 92.18
Neigh   | 0.022406   | 0.022406   | 0.022406   |   0.0 |  0.25
Comm    | 0.055568   | 0.055568   | 0.055568   |   0.0 |  0.62
Output  | 0.0012428  | 0.0012428  | 0.0012428  |   0.0 |  0.01
Modify  | 0.38468    | 0.38468    | 0.38468    |   0.0 |  4.29
Other   |            | 0.2365     |            |       |  2.64

Nlocal:           2160 ave        2160 max        2160 min
Histogram: 1 0 0 0 0 0 0 0 0 0
Nghost:           5981 ave        5981 max        5981 min
Histogram: 1 0 0 0 0 0 0 0 0 0
Neighs:              0 ave           0 max           0 min
Histogram: 1 0 0 0 0 0 0 0 0 0
FullNghs:       373386 ave      373386 max      373386 min
Histogram: 1 0 0 0 0 0 0 0 0 0

Total # of neighbors = 373386
Ave neighs/atom = 172.86389
Neighbor list builds = 51
Dangerous builds = 0

################## equilibration of main calculation

dump 		3 all custom 1000 traj.lammpstrj id type element x y z
dump_modify     3 element H O

fix             3 all nph aniso ${pressure} ${pressure} ${pressureDamp}
fix             3 all nph aniso 30000 ${pressure} ${pressureDamp}
fix             3 all nph aniso 30000 30000 ${pressureDamp}
fix             3 all nph aniso 30000 30000 1
fix             4 all temp/csvr ${temperature} ${temperature} ${tempDamp} ${seed}
fix             4 all temp/csvr 580 ${temperature} ${tempDamp} ${seed}
fix             4 all temp/csvr 580 580 ${tempDamp} ${seed}
fix             4 all temp/csvr 580 580 0.1 ${seed}
fix             4 all temp/csvr 580 580 0.1 90434
velocity 	all create ${temperature} ${seed} dist gaussian
velocity 	all create 580 ${seed} dist gaussian
velocity 	all create 580 90434 dist gaussian

run 200000
WARNING: Fix with atom-based arrays not compatible with Kokkos sorting on device, switching to classic host sorting (src/KOKKOS/atom_kokkos.cpp:216)
Per MPI rank memory allocation (min/avg/max) = 1810 | 1810 | 1810 Mbytes
   Step         TotEng         PotEng         KinEng         Press           Temp          Volume        Density     c_max_pace_gamma
       926  -10246.987     -10408.849      161.86214      18501.007      580            14229.332      1.513704       0.94301683   
      1000  -10220.832     -10295.598      74.765681      29655.874      267.90759      14205.066      1.5162898      0.84445189   
      1100  -10188.172     -10292.161      103.98946      30443.494      372.62505      14162.523      1.5208446      0.84445189   
      1200  -10162.074     -10281.942      119.86768      32328.532      429.52142      14130.334      1.524309       0.84445189   
      1300  -10141.996     -10271.515      129.51872      35568.456      464.10394      14123.582      1.5250379      0.84445189   
      1400  -10129.269     -10260.671      131.40199      36651.297      470.85225      14162.008      1.5208999      0.84445189   
      1500  -10118.419     -10259.172      140.75249      28829.337      504.35786      14251.559      1.5113432      0.84445189   
      1600  -10112.152     -10252.429      140.27725      34072.758      502.65495      14378.467      1.4980037      0.84445189   
      1700  -10102.6       -10244.865      142.26497      35113.754      509.77755      14526.926      1.4826947      0.84445189   
      1800  -10094.72      -10244.644      149.92356      31401.069      537.22055      14675.127      1.4677213      0.84445189   
      1900  -10088.858     -10241.36       152.50185      26676.328      546.45929      14803.75       1.4549689      0.84445189   
      2000  -10091.142     -10239.089      147.94757      30188.596      530.13999      14897.016      1.4458598      0.77973647   
      2100  -10086.654     -10239.276      152.62251      29967.888      546.89167      14952.178      1.4405257      0.77973647   
      2200  -10079.546     -10236.468      156.92147      31896.9        562.29611      14972.765      1.4385451      0.77973647   
      2300  -10076.389     -10230.102      153.71358      32887.375      550.80129      14971.757      1.4386419      0.77973647   
      2400  -10071.009     -10226.749      155.74005      29349.544      558.06275      14963.368      1.4394484      0.77973647   
      2500  -10070.849     -10226.717      155.86808      32022.232      558.5215       14959.476      1.4398229      0.77973647   
      2600  -10070.534     -10223.998      153.46344      32273.913      549.90499      14965.166      1.4392755      0.77973647   
      2700  -10071.242     -10224.183      152.94158      31703.387      548.03498      14980.904      1.4377635      0.77973647   
      2800  -10073.476     -10230.011      156.53545      32522.759      560.91288      15002.256      1.4357172      0.77973647   
      2900  -10068.448     -10224.984      156.53645      31348.618      560.91648      15028.535      1.4332067      0.77973647   
      3000  -10065.472     -10223.424      157.95259      30257.747      565.99093      15061.568      1.4300634      0.76152441   
      3100  -10062.87      -10220.346      157.47532      32535.047      564.28072      15097.318      1.426677       0.76152441   
      3200  -10063.876     -10221.405      157.52939      28255.628      564.47449      15131.477      1.4234564      0.76152441   
      3300  -10062.828     -10218.256      155.42831      25152.709      556.94569      15166.494      1.4201698      0.76152441   
      3400  -10061.045     -10220.182      159.13735      29309.412      570.23629      15203.746      1.4166901      0.76152441   
      3500  -10059.328     -10213.701      154.37266      29382.021      553.16299      15241.128      1.4132153      0.76152441   
      3600  -10052.646     -10214.163      161.51698      28164.834      578.76319      15275.454      1.4100397      0.76152441   
      3700  -10055.424     -10211.444      156.01949      29603.663      559.06404      15304.051      1.4074049      0.76152441   
      3800  -10057.294     -10209.979      152.68577      29347.763      547.11835      15331.437      1.4048909      0.76152441   
      3900  -10059.035     -10211.004      151.96942      24640.828      544.55146      15354.413      1.4027886      0.76152441   
      4000  -10059.373     -10213.21       153.83718      29201.645      551.24421      15366.347      1.4016992      0.72410746   
      4100  -10058.657     -10212.736      154.07888      30462.007      552.11027      15369.735      1.4013903      0.72410746   
      4200  -10056.37      -10214.349      157.97943      31709.717      566.0871       15373.398      1.4010563      0.72410746   
      4300  -10047.784     -10208.622      160.83845      33435.068      576.3318       15381.832      1.4002881      0.72410746   
      4400  -10047.916     -10210.539      162.62372      30554.566      582.72898      15396.626      1.3989426      0.72410746   
      4500  -10049.907     -10209.223      159.3163       30231.07       570.87749      15416.369      1.3971511      0.72410746   
      4600  -10051.453     -10204.6        153.14642      29634.855      548.769        15446.191      1.3944536      0.72410746   
      4700  -10047.666     -10206.197      158.53147      31095.912      568.06524      15487.603      1.390725       0.72410746   
      4800  -10048.704     -10207.176      158.47203      31677.014      567.85222      15536.392      1.3863577      0.72410746   
      4900  -10049.581     -10206.74       157.1584       31128.546      563.14512      15590.387      1.3815562      0.72410746   
      5000  -10047.305     -10201.842      154.53761      27832.829      553.75405      15646.364      1.3766135      0.80198958   
      5100  -10047.545     -10203.705      156.16012      29256.657      559.56796      15703.802      1.3715785      0.80198958   
      5200  -10047.446     -10204.928      157.48156      29470.313      564.3031       15762.777      1.3664468      0.80198958   
      5300  -10043.474     -10203.482      160.00791      26581.898      573.35576      15816.865      1.3617741      0.80198958   
      5400  -10038.811     -10201.215      162.40449      26519.174      581.94339      15865.79       1.3575748      0.80198958   
      5500  -10040.512     -10197.157      156.6449       27089.665      561.30509      15907.596      1.354007       0.80198958   
      5600  -10040.95      -10199.745      158.79513      26056.114      569.01001      15947.911      1.3505842      0.80198958   
      5700  -10037.654     -10195.882      158.22818      27899.683      566.97844      15981.601      1.3477371      0.80198958   
      5800  -10037.934     -10201.549      163.61477      28445.384      586.28018      16009.868      1.3453575      0.80198958   
      5900  -10032.92      -10190.344      157.42435      32103.125      564.09808      16029.062      1.3437465      0.80198958   
      6000  -10034.324     -10192.591      158.26743      31544.941      567.11911      16042.88       1.3425892      0.71501448   
      6100  -10036.213     -10192.567      156.35336      28494.365      560.26041      16056.381      1.3414602      0.71501448   
      6200  -10032.616     -10186.779      154.1635       30177.56       552.4135       16069.722      1.3403465      0.71501448   
      6300  -10037.905     -10194.817      156.91212      26907.42       562.2626       16081.568      1.3393592      0.71501448   
      6400  -10037.452     -10194.025      156.573        32921.28       561.04746      16091.494      1.338533       0.71501448   
      6500  -10036.464     -10190.946      154.48222      30482.748      553.55556      16098.935      1.3379143      0.71501448   
      6600  -10035.65      -10192.912      157.26179      31219.452      563.51558      16113.315      1.3367204      0.71501448   
      6700  -10035.885     -10193.391      157.50567      32225.059      564.38949      16140.226      1.3344916      0.71501448   
      6800  -10036.804     -10197.445      160.64052      30640.548      575.62259      16178.682      1.3313196      0.71501448   
      6900  -10035.244     -10196.521      161.27664      30677.742      577.90198      16217.133      1.3281631      0.71501448   
      7000  -10036.934     -10194.627      157.69283      30918.885      565.06011      16255.929      1.3249933      0.76460259   
      7100  -10037.716     -10194.553      156.83678      26421.53       561.99266      16290.285      1.3221989      0.76460259   
      7200  -10039.613     -10197.65       158.03617      25435.044      566.29043      16312.191      1.3204233      0.76460259   
      7300  -10036.491     -10195.202      158.71049      30042.992      568.70671      16316.904      1.3200419      0.76460259   
      7400  -10035.206     -10191.885      156.67926      29747.208      561.42822      16310.11       1.3205917      0.76460259   
      7500  -10031.214     -10193.622      162.40735      28431.252      581.95366      16298.249      1.3215528      0.76460259   
      7600  -10032.51      -10194.433      161.92381      30765.191      580.22099      16286.281      1.3225239      0.76460259   
      7700  -10034.483     -10198.396      163.91291      28905.388      587.3485       16274.019      1.3235204      0.76460259   
      7800  -10032.658     -10194.06       161.40241      29905.322      578.35267      16264.087      1.3243287      0.76460259   
      7900  -10034.283     -10186.969      152.68534      31614.707      547.11682      16256.061      1.3249825      0.76460259   
      8000  -10030.739     -10193.216      162.4767       27879.701      582.20217      16253.999      1.3251506      0.74352254   
      8100  -10028.342     -10187.971      159.6295       28564.175      571.99981      16257.111      1.3248969      0.74352254   
      8200  -10028.262     -10187.347      159.08479      29397.222      570.04793      16272.322      1.3236585      0.74352254   
      8300  -10029.654     -10192.785      163.13134      29115.697      584.54793      16301.443      1.3212939      0.74352254   
      8400  -10029.89      -10191.042      161.15199      30976.591      577.45532      16338.624      1.3182871      0.74352254   
      8500  -10034.446     -10194.826      160.37993      29252.142      574.68881      16382.475      1.3147584      0.74352254   
      8600  -10036.09      -10196.591      160.50126      28206.881      575.12357      16416.713      1.3120164      0.74352254   
      8700  -10036.354     -10190.859      154.50566      30136.303      553.63956      16434.827      1.3105703      0.74352254   
      8800  -10035.483     -10196.424      160.94118      31889.851      576.69995      16444.247      1.3098195      0.74352254   
      8900  -10035.439     -10193.177      157.73746      31113.512      565.22007      16443.693      1.3098637      0.74352254   
      9000  -10027.309     -10187.999      160.68995      32852.128      575.79971      16433.929      1.310642       0.71390877   
      9100  -10025.994     -10189.216      163.22188      27914.931      584.87236      16426.048      1.3112708      0.71390877   
      9200  -10026.82      -10193.38       166.56033      29149.729      596.83501      16424.377      1.3114042      0.71390877   
      9300  -10022.445     -10187.3        164.85472      29470.601      590.72332      16419.943      1.3117583      0.71390877   
      9400  -10025.314     -10183.922      158.60832      29295.022      568.34061      16418.374      1.3118837      0.71390877   
      9500  -10027.625     -10186.7        159.07519      31753.342      570.01353      16427.504      1.3111545      0.71390877   
      9600  -10028.91      -10190.419      161.50895      27647.778      578.73443      16439.151      1.3102256      0.71390877   
      9700  -10033.665     -10192.952      159.28699      28421.548      570.77249      16442.533      1.3099561      0.71390877   
      9800  -10034.352     -10194.263      159.9116       30102.746      573.01063      16435.744      1.3104972      0.71390877   
      9900  -10032.48      -10190.873      158.39322      30078.366      567.56985      16419.126      1.3118236      0.71390877   
     10000  -10031.051     -10190.693      159.64256      33267.642      572.04658      16401.543      1.3132299      0.70368612   
     10100  -10032.505     -10194.456      161.95168      30841.196      580.32086      16389.492      1.3141955      0.70368612   
     10200  -10034.284     -10194.342      160.05819      32014.003      573.5359       16386.922      1.3144016      0.70368612   
     10300  -10038.321     -10195.569      157.24832      26824.974      563.46734      16392.379      1.313964       0.70368612   
     10400  -10036.707     -10193.542      156.83484      28981.755      561.98571      16399.355      1.3134051      0.70368612   
     10500  -10037.9       -10199.252      161.35242      25487.8        578.17352      16410.325      1.3125271      0.70368612   
     10600  -10042.208     -10197.1        154.89248      31190.536      555.02565      16413.175      1.3122992      0.70368612   
     10700  -10037.337     -10192.499      155.16202      30129.27       555.99149      16408.3        1.3126891      0.70368612   
     10800  -10032.326     -10189.945      157.61923      30596.523      564.79641      16398.547      1.3134698      0.70368612   
     10900  -10025.32      -10191.132      165.8119       30504.618      594.15316      16392.207      1.3139778      0.70368612   
     11000  -10024.437     -10186.858      162.42089      27694.827      582.00217      16396.51       1.313633       0.72788775   
     11100  -10028.858     -10190.288      161.42967      32354.869      578.45032      16411.558      1.3124285      0.72788775   
     11200  -10027.693     -10189.899      162.20661      27323.677      581.23435      16433.792      1.3106529      0.72788775   
     11300  -10025.942     -10190.232      164.2903       31032.831      588.70081      16456.05       1.3088801      0.72788775   
     11400  -10026.417     -10188.317      161.89983      32415.747      580.13507      16477.877      1.3071463      0.72788775   
     11500  -10026.189     -10190.868      164.67856      31340.357      590.09208      16498.233      1.3055335      0.72788775   
     11600  -10027.553     -10188.987      161.43365      30174.995      578.4646       16510.709      1.3045471      0.72788775   
     11700  -10031.722     -10188.535      156.81246      28671.364      561.90551      16510.152      1.3045911      0.72788775   
     11800  -10030.662     -10189.384      158.72181      29819.171      568.74729      16497.748      1.3055719      0.72788775   
     11900  -10031.307     -10190.874      159.56658      30199.667      571.77433      16477.316      1.3071908      0.72788775   
     12000  -10027.307     -10188.983      161.67685      32946.997      579.33604      16457.399      1.3087728      0.85470902   
     12100  -10024.278     -10192.466      168.18842      30390.542      602.66894      16443.144      1.3099074      0.85470902   
     12200  -10023.175     -10190.081      166.90624      28421.323      598.07453      16435.724      1.3104988      0.85470902   
     12300  -10028.143     -10187.857      159.71366      33169.115      572.30136      16438.908      1.310245       0.85470902   
     12400  -10031.438     -10188.793      157.35453      28460.88       563.8479       16460.188      1.3085511      0.85470902   
     12500  -10028.451     -10193.117      164.66671      31608.197      590.04963      16490.681      1.3061314      0.85470902   
     12600  -10022.049     -10187.814      165.76479      29044.847      593.98435      16528.447      1.303147       0.85470902   
     12700  -10026.189     -10189.279      163.08969      30848.088      584.39867      16573.876      1.2995751      0.85470902   
     12800  -10024.743     -10191.727      166.98436      28722.59       598.35444      16610.375      1.2967194      0.85470902   
     12900  -10021.246     -10182.49       161.24387      29677.602      577.78458      16625.128      1.2955688      0.85470902   
     13000  -10022.975     -10188.082      165.10695      27385.02       591.62713      16625.976      1.2955027      0.76385472   
     13100  -10024.022     -10188.456      164.43421      26022.613      589.2165       16612.054      1.2965884      0.76385472   
     13200  -10020.692     -10187.915      167.22355      29908.304      599.21152      16581.03       1.2990144      0.76385472   
     13300  -10021.244     -10185.344      164.09984      30704.689      588.01835      16538.342      1.3023674      0.76385472   
     13400  -10021.958     -10187.135      165.17715      29251.523      591.87866      16495.824      1.3057242      0.76385472   
     13500  -10023.22      -10188.27       165.05072      30908.221      591.42565      16460.262      1.3085452      0.76385472   
     13600  -10023.514     -10188.056      164.54222      28797.362      589.60352      16432.337      1.3107689      0.76385472   
     13700  -10022.849     -10187.949      165.09972      27118.684      591.60122      16417.951      1.3119174      0.76385472   
     13800  -10025.217     -10186.21       160.99339      31718.381      576.88703      16417.592      1.3119462      0.76385472   
     13900  -10024.64      -10187.845      163.20481      30167.734      584.81118      16432.18       1.3107814      0.76385472   
     14000  -10028.492     -10189.988      161.49564      28202.266      578.68673      16462.599      1.3083594      0.89355233   
     14100  -10029.294     -10188.003      158.70894      32001.763      568.70114      16504.217      1.3050602      0.89355233   
     14200  -10028.134     -10187.361      159.22754      30916.657      570.55944      16552.724      1.3012358      0.89355233   
     14300  -10028.701     -10190.921      162.22051      26047.933      581.28416      16598.577      1.2976412      0.89355233   
     14400  -10027.102     -10189.913      162.81117      26766.282      583.40066      16630.742      1.2951314      0.89355233   
     14500  -10033.537     -10191.903      158.36527      24034.174      567.46968      16643.196      1.2941623      0.89355233   
     14600  -10034.384     -10193.842      159.45855      27309.977      571.38723      16630.991      1.295112       0.89355233   
     14700  -10033.028     -10193.875      160.84682      29766.558      576.36182      16595.806      1.2978578      0.89355233   
     14800  -10029.088     -10191.374      162.28523      29114.882      581.51607      16541.857      1.3020906      0.89355233   
     14900  -10026.455     -10188.94       162.48479      30686.941      582.23115      16478.95       1.3070612      0.89355233   
     15000  -10023.162     -10187.824      164.66214      31689.885      590.03322      16421.738      1.3116149      0.7169622    
     15100  -10020.181     -10187.261      167.07945      29224.106      598.69518      16379.513      1.3149962      0.7169622    
     15200  -10021.53      -10184.302      162.77149      30535.088      583.25848      16359.629      1.3165945      0.7169622    
     15300  -10019.003     -10185.517      166.5142       30024.093      596.66971      16365.591      1.3161148      0.7169622    
     15400  -10018.783     -10187.718      168.93527      33730.213      605.34513      16390.595      1.3141071      0.7169622    
     15500  -10021.071     -10185.214      164.14288      31775.824      588.17258      16426.989      1.3111957      0.7169622    
     15600  -10024.217     -10187.738      163.52077      28582.921      585.94336      16468.175      1.3079164      0.7169622    
     15700  -10024.105     -10188.978      164.87286      25638.153      590.78829      16502.041      1.3052323      0.7169622    
     15800  -10027.836     -10192.355      164.51866      29510.85       589.51912      16524.689      1.3034434      0.7169622    
     15900  -10029.08      -10190.103      161.02243      31021.78       576.99106      16533.302      1.3027644      0.7169622    
     16000  -10030.631     -10187.877      157.24573      27784.113      563.45803      16531.292      1.3029227      0.83531264   
     16100  -10029.295     -10190.377      161.08212      31214.465      577.20498      16516.999      1.3040502      0.83531264   
     16200  -10032.899     -10194.149      161.24963      30139.194      577.8052       16490.288      1.3061625      0.83531264   
     16300  -10031.875     -10193.462      161.58738      33580.094      579.01544      16452.781      1.3091402      0.83531264   
     16400  -10032.186     -10193.952      161.76564      34620.864      579.65421      16418.147      1.3119018      0.83531264   
     16500  -10029.355     -10194.772      165.4171       31332.051      592.7385       16395.934      1.3136792      0.83531264   
     16600  -10033.67      -10193.208      159.53838      31188.468      571.6733       16390.572      1.3141089      0.83531264   
     16700  -10035.459     -10193.77       158.31101      29995.262      567.27526      16399.767      1.3133721      0.83531264   
     16800  -10038.746     -10192.611      153.86444      31313.065      551.34187      16418.97       1.311836       0.83531264   
     16900  -10036.452     -10193.839      157.38635      30218.05       563.96192      16441.903      1.3100063      0.83531264   
     17000  -10034.14      -10196.5        162.35983      28965.936      581.78338      16467.369      1.3079804      0.72629645   
     17100  -10033.512     -10192.822      159.30959      28308.784      570.85346      16486.682      1.3064482      0.72629645   
     17200  -10033.497     -10197.867      164.36968      28270.462      588.98525      16500.578      1.305348       0.72629645   
     17300  -10032.813     -10192.841      160.02764      29009.189      573.42643      16505.003      1.304998       0.72629645   
     17400  -10034.183     -10195.836      161.65315      30710.051      579.25112      16506.282      1.3048969      0.72629645   
     17500  -10031.628     -10192.321      160.69315      29572.019      575.81116      16498.326      1.3055262      0.72629645   
     17600  -10030.907     -10193.308      162.40066      29625.505      581.92968      16484.544      1.3066177      0.72629645   
     17700  -10033.085     -10196.653      163.56806      30362.682      586.11283      16467.747      1.3079504      0.72629645   
     17800  -10025.618     -10189.237      163.61903      33367.523      586.29547      16452.311      1.3091775      0.72629645   
     17900  -10030.205     -10192.182      161.97747      32421.612      580.41326      16445.08       1.3097532      0.72629645   
     18000  -10029.482     -10187.623      158.14173      30025.949      566.66868      16448.639      1.3094698      0.80968442   
     18100  -10026.697     -10187.597      160.90054      29925.297      576.55429      16468.087      1.3079234      0.80968442   
     18200  -10023.582     -10187.893      164.3111       29579.816      588.77536      16499.292      1.3054497      0.80968442   
     18300  -10025.68      -10187.356      161.6764       26328.274      579.33444      16537.137      1.3024622      0.80968442   
     18400  -10025.789     -10188.935      163.1462       32143.063      584.60117      16575.337      1.2994605      0.80968442   
     18500  -10026.149     -10184.384      158.23521      28313.8        567.00363      16610.274      1.2967274      0.80968442   
     18600  -10026.398     -10188.084      161.68686      30025.091      579.37191      16636.747      1.2946639      0.80968442   
     18700  -10029.827     -10193.039      163.21246      25294.715      584.83859      16649.227      1.2936935      0.80968442   
     18800  -10032.537     -10193.265      160.72817      28571.137      575.93666      16644.423      1.2940669      0.80968442   
     18900  -10033.258     -10190.9        157.64144      28560.173      564.87599      16617.78       1.2961416      0.80968442   
     19000  -10029.589     -10189.58       159.9911       24867.754      573.29551      16572.402      1.2996907      0.82172478   
     19100  -10031.793     -10190.513      158.71988      28907.534      568.74035      16512.854      1.3043776      0.82172478   
     19200  -10027.921     -10189.247      161.32585      32344.402      578.07833      16446.694      1.3096247      0.82172478   
     19300  -10026.197     -10188.966      162.76896      31889.551      583.24942      16383.103      1.314708       0.82172478   
     19400  -10023.588     -10186.414      162.82654      31771.461      583.45574      16334.503      1.3186196      0.82172478   
     19500  -10019.183     -10186.455      167.2727       31289.447      599.38765      16313.903      1.3202847      0.82172478   
     19600  -10018.276     -10187.974      169.69811      32555.248      608.0786       16316.461      1.3200777      0.82172478   
     19700  -10019.071     -10188.795      169.72452      35321.475      608.17325      16337.354      1.3183895      0.82172478   
     19800  -10021.04      -10188.664      167.6239       32018.537      600.64611      16374.973      1.3153608      0.82172478   
     19900  -10025.246     -10186.601      161.35519      30992.303      578.18344      16426.313      1.3112496      0.82172478   
     20000  -10028.229     -10188.281      160.05181      24640.956      573.51306      16489.501      1.3062248      0.72554588   
     20100  -10029.775     -10191.079      161.30359      31729.073      577.99855      16546.829      1.3016993      0.72554588   
     20200  -10025.33      -10188.315      162.98511      27172.199      584.02396      16594.708      1.2979437      0.72554588   
     20300  -10024.223     -10187.995      163.77205      27011.519      586.84379      16625.483      1.2955411      0.72554588   
     20400  -10029.865     -10187.158      157.29325      26707.042      563.62831      16628.496      1.2953064      0.72554588   
     20500  -10030.702     -10188.657      157.95566      28024.225      566.00195      16599.967      1.2975325      0.72554588   
     20600  -10028.612     -10189.698      161.08635      28219.866      577.22014      16546.877      1.3016956      0.72554588   
     20700  -10028.862     -10185.201      156.33899      29124.47       560.20892      16483.482      1.3067019      0.72554588   
     20800  -10026.948     -10190.207      163.2593       32196.544      585.00645      16423.174      1.3115003      0.72554588   
     20900  -10026.198     -10190.43       164.232        32593.904      588.4919       16366.563      1.3160367      0.72554588   
     21000  -10024.882     -10184.539      159.6566       35241.876      572.09689      16323.478      1.3195102      0.77595551   
     21100  -10021.367     -10185.149      163.78212      32174.71       586.87986      16306.945      1.3208481      0.77595551   
     21200  -10020.849     -10186.662      165.81344      31154.59       594.15867      16311.187      1.3205046      0.77595551   
     21300  -10023.033     -10184.141      161.10839      28854.347      577.29909      16333.556      1.3186961      0.77595551   
     21400  -10022.545     -10182.289      159.744        34381.344      572.41009      16383.681      1.3146616      0.77595551   
     21500  -10020.035     -10183.721      163.6864       30432.369      586.53688      16456.069      1.3088786      0.77595551   
     21600  -10025.502     -10190.434      164.93187      28671.707      590.99974      16534.657      1.3026576      0.77595551   
     21700  -10026.442     -10191.591      165.14911      27454.849      591.77818      16607.269      1.296962       0.77595551   
     21800  -10024.839     -10190.718      165.87821      29306.063      594.39078      16663.486      1.2925865      0.77595551   
     21900  -10027.575     -10188.082      160.5069       25960.906      575.14379      16690.695      1.2904793      0.77595551   
     22000  -10027.416     -10184.26       156.84374      27078.075      562.0176       16686.132      1.2908322      0.80691983   
     22100  -10029.169     -10190.924      161.7545       28828.46       579.6143       16653.755      1.2933417      0.80691983   
     22200  -10026.23      -10189.452      163.22133      25752.179      584.87039      16596.253      1.2978229      0.80691983   
     22300  -10024.726     -10187.711      162.98537      29017.865      584.02486      16522.662      1.3036033      0.80691983   
     22400  -10023.783     -10191.445      167.66244      32970.69       600.7842       16450.541      1.3093185      0.80691983   
     22500  -10024.187     -10193.09       168.90334      29373.537      605.23069      16392.555      1.3139499      0.80691983   
     22600  -10025.822     -10190.658      164.83616      26448.772      590.65678      16351.481      1.3172505      0.80691983   
     22700  -10022.804     -10185.461      162.65673      33133.804      582.84724      16327.876      1.3191548      0.80691983   
     22800  -10023.577     -10186.427      162.85049      28381.931      583.54156      16325.453      1.3193506      0.80691983   
     22900  -10024.679     -10188.012      163.33351      32025.583      585.27237      16350.589      1.3173224      0.80691983   
     23000  -10020.242     -10187.874      167.63221      30473.255      600.67588      16392.19       1.3139792      0.88758903   
     23100  -10024.752     -10189.421      164.66854      34351.96       590.05616      16443.38       1.3098886      0.88758903   
     23200  -10024.597     -10192.881      168.28478      31579.998      603.01423      16495.582      1.3057433      0.88758903   
     23300  -10026.63      -10189.065      162.4342       29018.403      582.04987      16538.269      1.3023731      0.88758903   
     23400  -10029.416     -10188.196      158.78072      28373.494      568.95836      16563.632      1.3003788      0.88758903   
     23500  -10026.785     -10189.42       162.6345       30171.578      582.76761      16573.464      1.2996074      0.88758903   
     23600  -10026.888     -10189.487      162.59977      29324.534      582.64316      16573.831      1.2995787      0.88758903   
     23700  -10028.868     -10187.935      159.06629      32346.75       569.98163      16563.534      1.3003865      0.88758903   
     23800  -10029.833     -10196.749      166.91584      28894.872      598.1089       16542.66       1.3020274      0.88758903   
     23900  -10028.714     -10191.172      162.45803      30021.977      582.13526      16509.465      1.3046453      0.88758903   
     24000  -10028.295     -10187.086      158.79118      33483.718      568.99584      16475.631      1.3073246      0.77206933   
     24100  -10025.695     -10191.264      165.56914      33542.351      593.28327      16451.764      1.3092211      0.77206933   
     24200  -10025.783     -10189.132      163.34898      31090.843      585.32779      16441.324      1.3100525      0.77206933   
     24300  -10025.718     -10188.713      162.99468      29962.884      584.05822      16444.579      1.3097931      0.77206933   
     24400  -10028.522     -10190.003      161.48036      33377.556      578.63198      16459.577      1.3085996      0.77206933   
     24500  -10028.661     -10192.189      163.52858      31878.222      585.97136      16484.473      1.3066233      0.77206933   
     24600  -10031.358     -10190.883      159.52438      29739.942      571.62312      16508.664      1.3047086      0.77206933   
     24700  -10027.356     -10187.582      160.2262       28770.085      574.13796      16526.132      1.3033295      0.77206933   
     24800  -10029.286     -10192.82       163.53377      28627.541      585.98993      16536.046      1.3025481      0.77206933   
     24900  -10029.867     -10191.368      161.50078      27325.564      578.70515      16531.946      1.3028712      0.77206933   
     25000  -10028.12      -10189.27       161.14922      28306.337      577.44539      16517.091      1.304043       0.97563325   
     25100  -10033.305     -10193.959      160.65382      29809.403      575.67023      16497.96       1.3055551      0.97563325   
     25200  -10033.072     -10191.515      158.44259      27333.199      567.74675      16467.014      1.3080086      0.97563325   
     25300  -10036.606     -10195.004      158.39854      28752.262      567.5889       16425.887      1.3112836      0.97563325   
     25400  -10034.237     -10190.315      156.07764      29833.268      559.27242      16379.845      1.3149695      0.97563325   
     25500  -10030.459     -10188.398      157.93849      32922.27       565.94042      16343.538      1.3178907      0.97563325   
     25600  -10029.379     -10193.452      164.07364      29669.074      587.92448      16326.009      1.3193057      0.97563325   
     25700  -10028.769     -10193.867      165.09795      32915.541      591.59486      16325.425      1.3193529      0.97563325   
     25800  -10029.306     -10191.752      162.44541      32343.131      582.09003      16340.933      1.3181008      0.97563325   
     25900  -10030.837     -10192.331      161.49389      30085.813      578.68045      16381.201      1.3148606      0.97563325   
     26000  -10028.559     -10190.136      161.57727      29840.661      578.97924      16438.485      1.3102786      0.77056233   
     26100  -10027.611     -10190.319      162.70811      28745.242      583.03137      16500.653      1.305342       0.77056233   
     26200  -10028.909     -10193.092      164.18314      30635.836      588.31683      16559.772      1.3006819      0.77056233   
     26300  -10034.044     -10193.672      159.62843      25683.858      571.99595      16609.823      1.2967625      0.77056233   
     26400  -10035.185     -10193.867      158.68144      29902.666      568.60262      16646.49       1.2939062      0.77056233   
     26500  -10033.57      -10193.036      159.46606      27838.471      571.41414      16661.279      1.2927577      0.77056233   
     26600  -10029.948     -10190.225      160.27684      27197.066      574.3194       16651.989      1.2934789      0.77056233   
     26700  -10028.705     -10187.992      159.28709      26820.116      570.77285      16626.473      1.295464       0.77056233   
     26800  -10024.565     -10184.109      159.54399      29582.712      571.69339      16585.969      1.2986276      0.77056233   
     26900  -10024.414     -10185.597      161.18292      30376.298      577.56615      16540.596      1.3021899      0.77056233   
     27000  -10024.436     -10187.184      162.7478       31147.12       583.17359      16498.907      1.3054802      0.72513338   
     27100  -10023.693     -10189.564      165.87122      31976.115      594.36573      16462.291      1.3083839      0.72513338   
     27200  -10023.708     -10187.333      163.62582      30406.205      586.31978      16434.794      1.310573       0.72513338   
     27300  -10020.356     -10187.358      167.00177      31038.112      598.41681      16421.752      1.3116138      0.72513338   
     27400  -10022.452     -10190.091      167.63838      26710.496      600.698        16424.219      1.3114168      0.72513338   
     27500  -10022.362     -10188.035      165.67292      33016.716      593.65515      16438.471      1.3102798      0.72513338   
     27600  -10022.886     -10188.775      165.88907      30157.307      594.42968      16466.677      1.3080354      0.72513338   
     27700  -10029.263     -10192.341      163.07781      30663.609      584.3561       16503.692      1.3051017      0.72513338   
     27800  -10028.557     -10190.701      162.14376      32070.129      581.00913      16536.11       1.3025432      0.72513338   
     27900  -10026.791     -10188.706      161.91484      27827.167      580.18885      16554.75       1.3010765      0.72513338   
     28000  -10031.307     -10193.053      161.74623      31208.019      579.58468      16557.042      1.3008964      0.89326042   
     28100  -10029.732     -10192.332      162.60028      29690.983      582.64498      16544.662      1.3018699      0.89326042   
     28200  -10034.161     -10192.935      158.77397      27733.049      568.93417      16517.796      1.3039873      0.89326042   
     28300  -10031.923     -10196.399      164.47572      31656.878      589.36522      16481.782      1.3068366      0.89326042   
     28400  -10031.978     -10190.973      158.99557      29689.544      569.72822      16439.138      1.3102267      0.89326042   
     28500  -10027.649     -10193.047      165.39768      30021.758      592.66888      16398.376      1.3134835      0.89326042   
     28600  -10025.483     -10187.898      162.41532      33541.019      581.98221      16363.595      1.3162753      0.89326042   
     28700  -10028.225     -10190.098      161.87297      29721.831      580.03883      16346.83       1.3176253      0.89326042   
     28800  -10025.209     -10188.77       163.56165      31495.136      586.08984      16350.403      1.3173374      0.89326042   
     28900  -10021.962     -10185.962      163.99996      26682.415      587.66046      16371.968      1.3156022      0.89326042   
     29000  -10024.721     -10189.931      165.21074      29284.76       591.99904      16408.817      1.3126478      0.75687801   
     29100  -10022.006     -10188.648      166.64203      30692.126      597.12778      16454.826      1.3089775      0.75687801   
     29200  -10023.436     -10186.138      162.70277      28122.703      583.01224      16505.471      1.3049611      0.75687801   
     29300  -10023.886     -10183.565      159.67975      28370.471      572.17985      16554.547      1.3010925      0.75687801   
     29400  -10022.656     -10186.224      163.568        27958.169      586.11262      16594.805      1.2979361      0.75687801   
     29500  -10022.334     -10187.072      164.73881      30032.504      590.30797      16622.696      1.2957583      0.75687801   
     29600  -10020.673     -10191.158      170.48488      31130.021      610.89784      16636.386      1.294692       0.75687801   
     29700  -10025.492     -10190.463      164.97062      30261.258      591.13861      16634.973      1.294802       0.75687801   
     29800  -10022.997     -10188.165      165.16874      27907.559      591.84854      16614.28       1.2964147      0.75687801   
     29900  -10022.913     -10189.966      167.05336      30130.021      598.60168      16568.353      1.3000083      0.75687801   
     30000  -10021.364     -10186.307      164.94308      32216.062      591.03991      16500.814      1.3053293      0.98029988   
     30100  -10020.797     -10186.378      165.58122      30973.308      593.32659      16434.146      1.3106246      0.98029988   
     30200  -10020.817     -10187.545      166.72802      35539.143      597.4359       16381.076      1.3148707      0.98029988   
     30300  -10018.762     -10185.501      166.73911      35051.961      597.47562      16342.956      1.3179376      0.98029988   
     30400  -10022.771     -10188.865      166.09391      29929.622      595.16369      16330.948      1.3189067      0.98029988   
     30500  -10027.993     -10191.189      163.19659      31032.285      584.78174      16341.01       1.3180946      0.98029988   
     30600  -10028.134     -10188.822      160.6883       31471.765      575.7938       16371.701      1.3156236      0.98029988   
     30700  -10032.014     -10193.536      161.5221       29856.255      578.78152      16421.082      1.3116673      0.98029988   
     30800  -10033.238     -10193.005      159.7676       31145.433      572.49464      16475.141      1.3073634      0.98029988   
     30900  -10033.084     -10190.219      157.13458      30118.042      563.05975      16528.261      1.3031617      0.98029988   
     31000  -10036.519     -10195.388      158.86867      27155.541      569.27351      16573.399      1.2996125      0.86808265   
     31100  -10035.276     -10194.196      158.92081      29207.209      569.46035      16607.39       1.2969525      0.86808265   
     31200  -10033.775     -10195.949      162.17321      28737.002      581.11465      16622.217      1.2957956      0.86808265   
     31300  -10030.631     -10189.38       158.74892      27663.987      568.84443      16612.97       1.2965169      0.86808265   
     31400  -10031.336     -10189.366      158.03012      31143.449      566.26873      16597.841      1.2976987      0.86808265   
     31500  -10034.2       -10193.616      159.41622      27786.979      571.23556      16582.306      1.2989144      0.86808265   
     31600  -10032.874     -10196.137      163.26351      31274.674      585.02152      16564.926      1.3002772      0.86808265   
     31700  -10028.237     -10192.34       164.10337      30593.173      588.031        16537.125      1.3024632      0.86808265   
     31800  -10023.908     -10189.789      165.88114      30634.531      594.40128      16504.418      1.3050443      0.86808265   
     31900  -10021.296     -10185.461      164.16417      31467.532      588.24888      16466.324      1.3080634      0.86808265   
     32000  -10020.113     -10187.339      167.22525      31771.068      599.21761      16428.401      1.3110829      0.78768874   
     32100  -10021.239     -10183.719      162.47983      36021.458      582.21338      16401.026      1.3132713      0.78768874   
     32200  -10021.024     -10187.366      166.34247      29866.166      596.05436      16394.681      1.3137795      0.78768874   
     32300  -10024.803     -10189.101      164.29731      29034.642      588.72592      16407.031      1.3127906      0.78768874   
     32400  -10026.287     -10190.634      164.34791      32380.68       588.90727      16434.265      1.3106152      0.78768874   
     32500  -10026.267     -10190.184      163.91693      32877.176      587.36291      16483.196      1.3067245      0.78768874   
     32600  -10028.489     -10191.723      163.23394      32128.252      584.91557      16552.313      1.3012681      0.78768874   
     32700  -10030.155     -10188.867      158.71218      29215.291      568.71277      16624.574      1.2956119      0.78768874   
     32800  -10027.965     -10189.889      161.92409      27641.937      580.22201      16686.415      1.2908103      0.78768874   
     32900  -10029.897     -10187.643      157.74588      28272.824      565.25022      16727.731      1.2876221      0.78768874   
     33000  -10032.887     -10190.286      157.39893      24999.032      564.007        16743.107      1.2864397      0.71385821   
     33100  -10029.936     -10191.56       161.62423      25666.881      579.14751      16725.337      1.2878064      0.71385821   
     33200  -10024.139     -10191.586      167.44689      31004.335      600.01182      16679.966      1.2913094      0.71385821   
     33300  -10023.948     -10189.092      165.14373      30355.461      591.75892      16616.144      1.2962692      0.71385821   
     33400  -10025.38      -10193.148      167.76875      29125.939      601.16513      16544.934      1.3018484      0.71385821   
     33500  -10025.108     -10187.203      162.09525      32834.715      580.83531      16476.623      1.3072458      0.71385821   
     33600  -10019.999     -10186.241      166.24141      31123.625      595.69224      16423.588      1.3114672      0.71385821   
     33700  -10023.918     -10189.059      165.14085      34646.645      591.74861      16387.922      1.3143214      0.71385821   
     33800  -10025.466     -10184.939      159.47281      33660.093      571.43832      16373.305      1.3154947      0.71385821   
     33900  -10030.965     -10195.127      164.16139      28738.796      588.23891      16383.074      1.3147103      0.71385821   
     34000  -10031.263     -10190.432      159.16867      31404.227      570.34851      16407.877      1.3127229      0.79801818   
     34100  -10030.996     -10195.377      164.38088      29794.079      589.02539      16442.606      1.3099503      0.79801818   
     34200  -10032.236     -10195.629      163.39355      31154.348      585.48748      16477.833      1.3071499      0.79801818   
     34300  -10030.426     -10191.664      161.23814      30964.277      577.76404      16511.816      1.3044596      0.79801818   
     34400  -10029.32      -10189.45       160.13034      29302.579      573.79444      16538.934      1.3023208      0.79801818   
     34500  -10027.86      -10190.833      162.9721       27664.308      583.97732      16556.578      1.3009329      0.79801818   
     34600  -10026.857     -10189.295      162.43726      27916.456      582.06083      16567.919      1.3000424      0.79801818   
     34700  -10031.344     -10192.224      160.88026      28875.95       576.48164      16575.496      1.2994481      0.79801818   
     34800  -10026.569     -10189.684      163.11444      26289.777      584.48737      16573.289      1.2996211      0.79801818   
     34900  -10025.95      -10190.92       164.97041      28824.816      591.13787      16562.228      1.3004891      0.79801818   
     35000  -10026.289     -10188.667      162.37832      27854.133      581.84963      16548.529      1.3015656      0.82088281   
     35100  -10025.38      -10188.891      163.51109      26614.745      585.90867      16533.883      1.3027186      0.82088281   
     35200  -10029.04      -10187.339      158.29917      32092.582      567.23282      16523.765      1.3035163      0.82088281   
     35300  -10033.148     -10191.675      158.52689      31354.204      568.04882      16514.222      1.3042696      0.82088281   
     35400  -10032.614     -10193.465      160.85083      30184.975      576.3762       16496.616      1.3056615      0.82088281   
     35500  -10030.913     -10191.644      160.73084      26855.206      575.94621      16470.764      1.3077108      0.82088281   
     35600  -10030.382     -10194.834      164.45138      29427.27       589.278        16441.595      1.3100308      0.82088281   
     35700  -10028.351     -10190.541      162.19051      29661.861      581.17667      16415.021      1.3121516      0.82088281   
     35800  -10027.765     -10194.042      166.27666      33068.637      595.81855      16404.81       1.3129683      0.82088281   
     35900  -10030.908     -10194.006      163.098        29289.542      584.42844      16415.378      1.3121231      0.82088281   
     36000  -10034.922     -10194.912      159.99007      29868.643      573.29181      16442.228      1.3099804      0.98757745   
     36100  -10033.784     -10196.814      163.03012      29491.763      584.18523      16467.379      1.3079796      0.98757745   
     36200  -10036.19      -10195.29       159.09924      33145.926      570.09971      16489.468      1.3062275      0.98757745   
     36300  -10035.946     -10190.401      154.45554      26452.374      553.45997      16514.659      1.304235       0.98757745   
     36400  -10036.577     -10192.461      155.88352      30367.308      558.57682      16542.525      1.302038       0.98757745   
     36500  -10038.57      -10194.698      156.12826      30530.673      559.45381      16571.506      1.299761       0.98757745   
     36600  -10038.435     -10197.412      158.97765      30578.68       569.66402      16590.747      1.2982536      0.98757745   
     36700  -10032.588     -10194.164      161.57612      30434.216      578.97509      16597.097      1.2977568      0.98757745   
     36800  -10031.569     -10191.799      160.22972      30808.731      574.15054      16589.613      1.2983423      0.98757745   
     36900  -10028.576     -10194.225      165.64887      26799.416      593.56897      16570.367      1.2998503      0.98757745   
     37000  -10028.975     -10191.049      162.07378      33064.9        580.75838      16532.594      1.3028202      0.68769356   
     37100  -10028.461     -10192.668      164.20709      28760.038      588.40264      16484.402      1.3066289      0.68769356   
     37200  -10026.277     -10185.624      159.34694      27964.207      570.9873       16440.181      1.3101435      0.68769356   
     37300  -10025.419     -10191.187      165.76779      31714.158      593.9951       16404.661      1.3129803      0.68769356   
     37400  -10027.616     -10190.498      162.88248      29957.685      583.6562       16374.93       1.3153642      0.68769356   
     37500  -10029.636     -10188.895      159.2586       28117.424      570.67076      16348.507      1.3174901      0.68769356   
     37600  -10027.497     -10186.39       158.89316      28041.248      569.36126      16327.234      1.3192067      0.68769356   
     37700  -10029.904     -10187.224      157.32064      28175.721      563.72646      16321.712      1.319653       0.68769356   
     37800  -10029.647     -10190.864      161.21754      28807.974      577.6902       16336.176      1.3184846      0.68769356   
     37900  -10031.644     -10189.232      157.58766      31026.156      564.68329      16369.025      1.3158387      0.68769356   
     38000  -10031.371     -10195.967      164.59647      30846.435      589.79791      16408.324      1.3126872      0.71115121   
     38100  -10035.406     -10193.732      158.32576      27343.143      567.32811      16445.817      1.3096945      0.71115121   
     38200  -10031.327     -10191.003      159.67627      28867.825      572.16738      16482.853      1.3067518      0.71115121   
     38300  -10032.404     -10193.846      161.44267      27332.32       578.49693      16512.459      1.3044088      0.71115121   
     38400  -10033.888     -10196.336      162.4479       24891.448      582.09894      16532.965      1.3027909      0.71115121   
     38500  -10034.484     -10195.295      160.81153      30857.997      576.23534      16537.001      1.302473       0.71115121   
     38600  -10037.583     -10194.249      156.66661      31570.924      561.3829       16522.802      1.3035922      0.71115121   
     38700  -10034.445     -10193.756      159.31112      28107.712      570.85896      16487.66       1.3063707      0.71115121   
     38800  -10031.65      -10190.772      159.12197      30489.222      570.18115      16436.452      1.3104407      0.71115121   
     38900  -10029.036     -10188.824      159.7879       33522.263      572.5674       16378.454      1.3150812      0.71115121   
     39000  -10027.799     -10193.959      166.15932      33664.294      595.39809      16329.076      1.3190579      0.78924082   
     39100  -10029.52      -10190.91       161.39047      33857.027      578.30988      16294.304      1.3218728      0.78924082   
     39200  -10027.126     -10190.946      163.82009      36328.847      587.01593      16285.321      1.3226019      0.78924082   
     39300  -10027.063     -10183.444      156.38063      29950.162      560.35814      16301.548      1.3212854      0.78924082   
     39400  -10024.17      -10191.555      167.38452      34497.293      599.78833      16349.455      1.3174137      0.78924082   
     39500  -10027.901     -10189.602      161.70127      32497.621      579.42358      16428.06       1.3111102      0.78924082   
     39600  -10032.828     -10189.061      156.23345      30442.055      559.83076      16524.837      1.3034317      0.78924082   
     39700  -10035.864     -10196.279      160.41532      29436.44       574.81563      16624.944      1.2955831      0.78924082   
     39800  -10037.016     -10197.313      160.29698      25901.147      574.39156      16710.818      1.2889253      0.78924082   
     39900  -10037.534     -10193.208      155.67402      26029.337      557.82615      16765.37       1.2847314      0.78924082   
     40000  -10034.331     -10193.589      159.25819      27228.091      570.66928      16780.818      1.2835487      0.75682297   
     40100  -10030.906     -10191.41       160.50388      30302.88       575.13296      16756.921      1.2853791      0.75682297   
     40200  -10031.66      -10190.836      159.1763       29122.982      570.37584      16702.013      1.2896049      0.75682297   
     40300  -10028.714     -10191.928      163.21485      28067.868      584.84715      16627.341      1.2953963      0.75682297   
     40400  -10030.917     -10191.175      160.25774      31636.33       574.25096      16542.767      1.302019       0.75682297   
     40500  -10032.538     -10185.275      152.73701      29837.834      547.30197      16457.177      1.3087904      0.75682297   
     40600  -10030.195     -10190.607      160.41277      30742.541      574.8065       16379.44       1.315002       0.75682297   
     40700  -10025.896     -10190.293      164.3963       36034.612      589.08066      16320.545      1.3197474      0.75682297   
     40800  -10030.068     -10190.883      160.8156       34557.065      576.24994      16292.713      1.3220019      0.75682297   
     40900  -10028.266     -10192.304      164.03789      33469.026      587.79635      16302.75       1.3211879      0.75682297   
     41000  -10028.99      -10192.416      163.42527      31583.384      585.60115      16335.189      1.3185643      0.88165156   
     41100  -10033.964     -10193.875      159.91063      30383.192      573.00716      16384.1        1.314628       0.88165156   
     41200  -10035.783     -10197.764      161.98144      29913.516      580.42748      16439.669      1.3101843      0.88165156   
     41300  -10035.908     -10196.868      160.95999      30071.191      576.76732      16494.167      1.3058554      0.88165156   
     41400  -10039.641     -10195.029      155.38794      26265.386      556.80103      16540.389      1.3022062      0.88165156   
     41500  -10038.148     -10193.141      154.99267      29723.709      555.38465      16568.838      1.2999702      0.88165156   
     41600  -10033.353     -10192.139      158.78551      30308.149      568.97554      16578.88       1.2991829      0.88165156   
     41700  -10029.978     -10192.738      162.7603       29279.286      583.21836      16571.138      1.2997898      0.88165156   
     41800  -10029.885     -10192.446      162.56086      27382.887      582.50372      16554.411      1.3011032      0.88165156   
     41900  -10029.874     -10194.393      164.51921      27459.575      589.52107      16526.491      1.3033013      0.88165156   
     42000  -10027.447     -10191.392      163.94512      30143.653      587.46396      16485.854      1.3065139      0.73320638   
     42100  -10028.206     -10191.998      163.79241      28982.504      586.91674      16442.95       1.3099229      0.73320638   
     42200  -10029.325     -10189.039      159.71404      29856.794      572.30272      16398.948      1.3134377      0.73320638   
     42300  -10027.21      -10186.599      159.38898      33961.138      571.13794      16360.486      1.3165255      0.73320638   
     42400  -10023.872     -10191.762      167.88982      29887.056      601.59897      16337.245      1.3183983      0.73320638   
     42500  -10024.466     -10186.397      161.93007      31881.901      580.24341      16330.711      1.3189258      0.73320638   
     42600  -10027.205     -10189.264      162.05931      33455.715      580.70653      16343.488      1.3178947      0.73320638   
     42700  -10027.871     -10192.539      164.66823      28810.614      590.05505      16370.454      1.3157238      0.73320638   
     42800  -10020.524     -10185.392      164.86802      30417.636      590.77097      16406          1.3128731      0.73320638   
     42900  -10024.717     -10190.74       166.02256      33838.71       594.90802      16449.202      1.309425       0.73320638   
     43000  -10025.217     -10186.946      161.72874      31189.625      579.52199      16498.76       1.3054919      0.78426791   
     43100  -10027.234     -10188.573      161.33849      30324.567      578.1236       16548.809      1.3015436      0.78426791   
     43200  -10029.264     -10187.82       158.55603      29426.245      568.15322      16590.001      1.2983119      0.78426791   
     43300  -10033.644     -10192.255      158.61086      24041.58       568.34971      16619.756      1.2959875      0.78426791   
     43400  -10027.254     -10191.908      164.65437      28757.293      590.00539      16629.213      1.2952505      0.78426791   
     43500  -10030.52      -10195.522      165.00265      27543.989      591.25337      16614.607      1.2963891      0.78426791   
     43600  -10031.941     -10187.523      155.58186      24858.973      557.4959       16575.356      1.299459       0.78426791   
     43700  -10030.53      -10190.319      159.7889       28692.998      572.57098      16523.224      1.3035589      0.78426791   
     43800  -10026.623     -10189.852      163.22886      36511.273      584.89737      16464.735      1.3081897      0.78426791   
     43900  -10025.221     -10189.914      164.69376      30334.506      590.14653      16404.295      1.3130096      0.78426791   
     44000  -10022.629     -10187.144      164.51465      32275.85       589.50475      16348.905      1.3174581      0.75074307   
     44100  -10028.878     -10186.83       157.95202      36761.15       565.98887      16314.292      1.3202532      0.75074307   
     44200  -10028.005     -10188.565      160.56061      32091.611      575.33625      16305.437      1.3209702      0.75074307   
     44300  -10028.419     -10189.535      161.11596      34580.111      577.32621      16323.767      1.3194869      0.75074307   
     44400  -10031.402     -10188.446      157.04389      32819.096      562.73478      16362.484      1.3163647      0.75074307   
     44500  -10029.54      -10192.503      162.96283      32392.363      583.94411      16412.603      1.312345       0.75074307   
     44600  -10031.075     -10192.169      161.09477      27621.739      577.25028      16465.154      1.3081564      0.75074307   
     44700  -10029.599     -10190.922      161.32305      29403.552      578.0683       16508.548      1.3047178      0.75074307   
     44800  -10026.623     -10189.761      163.13827      32135.03       584.57275      16532.359      1.3028387      0.75074307   
     44900  -10023.425     -10189.391      165.96634      33383.438      594.70656      16534.824      1.3026444      0.75074307   
     45000  -10022.105     -10184.223      162.11712      29048.877      580.91367      16519.857      1.3038246      0.80913417   
     45100  -10023.958     -10189.737      165.77864      26702.634      594.034        16496.935      1.3056362      0.80913417   
     45200  -10026.339     -10190.996      164.65637      28210.816      590.01256      16468.975      1.3078529      0.80913417   
     45300  -10023.958     -10188.077      164.11894      30811.863      588.08679      16438.279      1.3102951      0.80913417   
     45400  -10027.297     -10190.447      163.14947      32260.078      584.61288      16406.381      1.3128426      0.80913417   
     45500  -10027.126     -10189.977      162.85049      29418.668      583.54156      16378.922      1.3150436      0.80913417   
     45600  -10028.114     -10187.099      158.9848       29565.509      569.68966      16360.118      1.3165551      0.80913417   
     45700  -10028.272     -10188.553      160.28055      26937.415      574.33272      16350.115      1.3173605      0.80913417   
     45800  -10035         -10193.977      158.97729      32947.458      569.66273      16340.946      1.3180997      0.80913417   
     45900  -10032.615     -10194.245      161.62973      32555.504      579.16722      16330.931      1.3189081      0.80913417   
     46000  -10034.703     -10195.472      160.7695       29185.701      576.08476      16327.559      1.3191805      0.7995524    
     46100  -10028.339     -10191.498      163.15883      33898.424      584.64642      16332.446      1.3187857      0.7995524    
     46200  -10032.253     -10194.38       162.12643      27953.351      580.94704      16351.173      1.3172753      0.7995524    
     46300  -10032.097     -10193.314      161.21627      26805.03       577.68565      16377.024      1.315196       0.7995524    
     46400  -10030.89      -10193.936      163.04629      33012.952      584.24318      16403.498      1.3130734      0.7995524    
     46500  -10032.443     -10189.209      156.76586      29430.671      561.73851      16428.579      1.3110687      0.7995524    
     46600  -10034.79      -10187.869      153.07907      26856.809      548.52765      16444.548      1.3097956      0.7995524    
     46700  -10032.725     -10195.707      162.98167      28371.147      584.01161      16453.292      1.3090995      0.7995524    
     46800  -10034.555     -10195.458      160.90281      30751.067      576.56245      16450.418      1.3093282      0.7995524    
     46900  -10036.453     -10193.102      156.64854      26956.981      561.31813      16435.143      1.3105452      0.7995524    
     47000  -10035.743     -10193.915      158.17153      27308.272      566.77546      16407.504      1.3127528      0.83752135   
     47100  -10033.164     -10195.763      162.59833      30475.106      582.63799      16374.766      1.3153774      0.83752135   
     47200  -10033.652     -10192.82       159.16789      32063.975      570.3457       16343.775      1.3178716      0.83752135   
     47300  -10032.016     -10192.263      160.24717      30855.047      574.21308      16323.819      1.3194827      0.83752135   
     47400  -10034.04      -10195.944      161.90452      27813.079      580.15188      16319.71       1.3198149      0.83752135   
     47500  -10033.429     -10190.013      156.58339      28330.123      561.08467      16324.808      1.3194028      0.83752135   
     47600  -10033.351     -10190.379      157.02753      35458.495      562.67616      16340.044      1.3181725      0.83752135   
     47700  -10029.152     -10192.531      163.3794       28021.77       585.43681      16367.291      1.3159781      0.83752135   
     47800  -10027.867     -10189.976      162.10912      32010.717      580.885        16393.873      1.3138443      0.83752135   
     47900  -10028.793     -10188.3        159.50677      29166.223      571.56003      16421.101      1.3116658      0.83752135   
     48000  -10026.85      -10189.02       162.16908      30101.763      581.09987      16448.059      1.309516       0.76738514   
     48100  -10027.684     -10193.877      166.19327      28878.694      595.51972      16472.279      1.3075905      0.76738514   
     48200  -10025.196     -10187.035      161.8391       30474.442      579.91743      16489.501      1.3062249      0.76738514   
     48300  -10025.874     -10188.877      163.00309      27225.101      584.08836      16496.259      1.3056897      0.76738514   
     48400  -10027.723     -10189.324      161.60089      30524.673      579.06386      16490.716      1.3061286      0.76738514   
     48500  -10027.721     -10189.861      162.13968      29726.403      580.99453      16475.401      1.3073428      0.76738514   
     48600  -10028.739     -10189.154      160.41459      26855.211      574.813        16448.957      1.3094445      0.76738514   
     48700  -10027.273     -10189.175      161.90202      31374.426      580.14292      16415.141      1.312142       0.76738514   
     48800  -10026.943     -10190.265      163.3218       31608.335      585.23041      16383.775      1.3146541      0.76738514   
     48900  -10028.586     -10188.435      159.84948      34665.073      572.78806      16357.856      1.3167371      0.76738514   
     49000  -10028.919     -10191.733      162.81384      30939.228      583.41023      16337.752      1.3183574      0.88972966   
     49100  -10028.577     -10188.777      160.2005       29671.698      574.04584      16327.94       1.3191497      0.88972966   
     49200  -10028.634     -10190.17       161.53594      31263.953      578.83112      16334.713      1.3186027      0.88972966   
     49300  -10023.821     -10188.519      164.69765      33042.53       590.16047      16356.077      1.3168803      0.88972966   
     49400  -10022.809     -10186.924      164.1146       29872.383      588.07125      16393.235      1.3138954      0.88972966   
     49500  -10027.129     -10189.019      161.88975      27695.246      580.09894      16438.141      1.3103061      0.88972966   
     49600  -10026.154     -10189.672      163.51827      30335.859      585.93441      16478.595      1.3070894      0.88972966   
     49700  -10026.958     -10189.806      162.84831      31367.63       583.53374      16508.285      1.3047386      0.88972966   
     49800  -10028.119     -10193.255      165.13655      30456.853      591.73317      16530.874      1.3029557      0.88972966   
     49900  -10028.802     -10190.878      162.07582      26686.28       580.76568      16544.963      1.3018462      0.88972966   
     50000  -10027.429     -10190.452      163.02259      29840.466      584.15825      16549.684      1.3014748      0.70862615   
     50100  -10028.577     -10194.277      165.69915      33094.068      593.74917      16546.292      1.3017416      0.70862615   
     50200  -10023.938     -10184.843      160.90538      28448.005      576.57166      16539.158      1.302303       0.70862615   
     50300  -10024.737     -10184.269      159.53193      27860.527      571.65018      16527.99       1.3031831      0.70862615   
     50400  -10026.516     -10190.834      164.31797      29799.75       588.79996      16511.49       1.3044853      0.70862615   
     50500  -10025.556     -10186.638      161.08262      30302.268      577.20675      16495.122      1.3057798      0.70862615   
     50600  -10025.469     -10186.261      160.79109      29325.607      576.16211      16481.521      1.3068573      0.70862615   
     50700  -10020.053     -10183.424      163.37097      31400.082      585.40657      16470.242      1.3077523      0.70862615   
     50800  -10017.223     -10182.51       165.28698      28671.374      592.27224      16465.733      1.3081104      0.70862615   
     50900  -10022.8       -10188.17       165.37002      29571.541      592.56979      16467.528      1.3079678      0.70862615   
     51000  -10021.097     -10184.901      163.8042       30006.502      586.95898      16470.588      1.3077248      0.90398706   
     51100  -10021.012     -10184.207      163.19422      32072.598      584.77323      16480.32       1.3069525      0.90398706   
     51200  -10026.578     -10192.345      165.76786      28546.454      593.99534      16494.727      1.3058111      0.90398706   
     51300  -10031.864     -10191.537      159.67339      30416.933      572.15707      16504.889      1.3050071      0.90398706   
     51400  -10032.311     -10191.063      158.75147      31436.993      568.85354      16504.991      1.304999       0.90398706   
     51500  -10032.728     -10193.294      160.56668      27308.856      575.35798      16494.649      1.3058172      0.90398706   
     51600  -10034.661     -10191.33       156.66919      31362.905      561.39213      16479.941      1.3069826      0.90398706   
     51700  -10037.56      -10194.486      156.92632      28605.363      562.3135       16461.781      1.3084244      0.90398706   
     51800  -10036.199     -10190.813      154.61423      29389.864      554.02859      16437.244      1.3103776      0.90398706   
     51900  -10031.909     -10192.841      160.93231      30406.157      576.66815      16417.296      1.3119698      0.90398706   
     52000  -10033.403     -10193.365      159.96237      30248.389      573.19257      16403.751      1.3130531      0.7295863    
     52100  -10032.59      -10193.139      160.5492       30819.117      575.29535      16392.825      1.3139283      0.7295863    
     52200  -10032.897     -10193.291      160.39373      30404.034      574.73825      16384.654      1.3145835      0.7295863    
     52300  -10035.341     -10192.679      157.33717      31935.575      563.78569      16380.46       1.3149201      0.7295863    
     52400  -10033.465     -10189.711      156.24582      29295.049      559.87507      16379.722      1.3149794      0.7295863    
     52500  -10031.852     -10192.408      160.55585      27633.116      575.31917      16386.776      1.3144133      0.7295863    
     52600  -10032.221     -10194.03       161.80871      31289.184      579.80854      16399.187      1.3134185      0.7295863    
     52700  -10029.607     -10189.36       159.75248      30403.395      572.44048      16420.33       1.3117274      0.7295863    
     52800  -10031.568     -10190.71       159.14148      31727.147      570.25108      16450.614      1.3093126      0.7295863    
     52900  -10030.318     -10193.643      163.32515      28507.861      585.24239      16479.078      1.3070511      0.7295863    
     53000  -10030.446     -10190.485      160.03905      28688.467      573.46732      16498.387      1.3055213      0.83610432   
     53100  -10029.147     -10189.695      160.54786      29534.263      575.29054      16513.632      1.3043161      0.83610432   
     53200  -10029.98      -10192.838      162.85849      29297.982      583.57023      16526.324      1.3033144      0.83610432   
     53300  -10032.517     -10191.616      159.09859      31324.195      570.09739      16535.324      1.3026051      0.83610432   
     53400  -10035.452     -10192.986      157.53453      27183.927      564.4929       16541.467      1.3021213      0.83610432   
     53500  -10033.977     -10188.889      154.91155      26102.057      555.09397      16542.124      1.3020696      0.83610432   
     53600  -10038.031     -10194.437      156.40692      29254.37       560.45233      16535.341      1.3026037      0.83610432   
     53700  -10035.515     -10191.654      156.13913      31046.818      559.49275      16522.725      1.3035983      0.83610432   
     53800  -10034.037     -10194.49       160.4531       31022.102      574.951        16512.977      1.3043678      0.83610432   
     53900  -10032.428     -10191.399      158.97059      29475.001      569.63872      16508.964      1.3046849      0.83610432   
     54000  -10033.944     -10196.649      162.70542      31761.876      583.02171      16509.929      1.3046087      0.74773641   
     54100  -10031.992     -10190.887      158.895        26581.539      569.36786      16506.257      1.3048989      0.74773641   
     54200  -10034.527     -10190.46       155.93313      32926.124      558.7546       16494.08       1.3058623      0.74773641   
     54300  -10037.092     -10198.208      161.11652      30710.024      577.32824      16479.676      1.3070036      0.74773641   
     54400  -10036.504     -10191.084      154.58005      28756.449      553.9061       16467.629      1.3079598      0.74773641   
     54500  -10031.67      -10193.074      161.40412      32989.769      578.35877      16458.944      1.3086499      0.74773641   
     54600  -10026.733     -10191.458      164.7254       29662.624      590.2599       16457.307      1.3087801      0.74773641   
     54700  -10026.308     -10190.122      163.81461      29943.827      586.9963       16465.38       1.3081384      0.74773641   
     54800  -10026.162     -10188.474      162.31169      31365.251      581.61087      16475.611      1.3073261      0.74773641   
     54900  -10022.616     -10188.571      165.95494      33085.652      594.66571      16485.633      1.3065313      0.74773641   
     55000  -10022.608     -10189.415      166.80661      29617.467      597.71752      16497.182      1.3056167      0.73786471   
     55100  -10025.685     -10189.309      163.62464      30452.079      586.31556      16517.978      1.303973       0.73786471   
[...]
   2186900  -10028.768     -10190.548      161.78006      26157.046      579.70588      16591.408      1.2982018      0.70887691   
   2187000  -10028.175     -10188.923      160.74757      28245.717      576.00618      16555.874      1.3009882      0.83580517   
   2187100  -10024.611     -10190.963      166.35224      28434.415      596.08936      16500.251      1.3053739      0.83580517   
   2187200  -10027.032     -10189.288      162.25608      30191.458      581.41161      16438.785      1.3102548      0.83580517   
   2187300  -10029.941     -10187.058      157.11683      32085.529      562.99614      16379.945      1.3149615      0.83580517   
   2187400  -10028.486     -10189.428      160.94166      31493.793      576.70165      16335.502      1.318539       0.83580517   
   2187500  -10025.26      -10188.196      162.93594      36002.288      583.84775      16306.612      1.320875       0.83580517   
   2187600  -10020.673     -10187.413      166.73918      34528.211      597.47588      16300.253      1.3213904      0.83580517   
   2187700  -10021.659     -10187.331      165.67197      31935.391      593.65174      16319.023      1.3198705      0.83580517   
   2187800  -10028.773     -10190.938      162.16543      30755.419      581.08677      16347.473      1.3175735      0.83580517   
   2187900  -10026.726     -10192.644      165.91806      32794.063      594.53357      16379.333      1.3150106      0.83580517   
   2188000  -10026.266     -10189.778      163.51146      29040.901      585.91         16415.11       1.3121445      0.94099827   
   2188100  -10028.748     -10193.294      164.54598      28307.124      589.61699      16454.303      1.3090191      0.94099827   
   2188200  -10028.876     -10193.587      164.71157      29231.747      590.21036      16492.62       1.3059779      0.94099827   
   2188300  -10027.53      -10189.731      162.20029      28562.039      581.21171      16519.094      1.3038849      0.94099827   
   2188400  -10029.323     -10192.858      163.53512      30673.298      585.99478      16531.627      1.3028964      0.94099827   
   2188500  -10028.798     -10187.257      158.45848      24438.03       567.80367      16530.151      1.3030127      0.94099827   
   2188600  -10033.03      -10193.044      160.01466      30374.834      573.37993      16515.563      1.3041636      0.94099827   
   2188700  -10036.739     -10193.983      157.24428      31498.889      563.45284      16487.456      1.3063869      0.94099827   
   2188800  -10036.06      -10193.615      157.55453      29627.237      564.56457      16452.81       1.3091379      0.94099827   
   2188900  -10030.919     -10193.677      162.75829      28765.527      583.21116      16419.459      1.311797       0.94099827   
   2189000  -10028.772     -10189.556      160.78441      31889.624      576.13817      16391.306      1.31405        0.8429252    
   2189100  -10033.598     -10192.51       158.91239      29929.172      569.43017      16374.058      1.3154342      0.8429252    
   2189200  -10035.871     -10192.808      156.93714      31629.839      562.35226      16365.253      1.316142       0.8429252    
   2189300  -10036.55      -10195.669      159.11907      28596.115      570.17076      16357.484      1.3167671      0.8429252    
   2189400  -10037.151     -10193.635      156.48307      31518.721      560.7252       16349.497      1.3174104      0.8429252    
   2189500  -10034.018     -10197.071      163.05247      30889.273      584.26532      16340.941      1.3181001      0.8429252    
   2189600  -10032.618     -10191.727      159.10895      28417.449      570.1345       16337.486      1.3183789      0.8429252    
   2189700  -10031.083     -10192.872      161.78926      27022.843      579.73886      16341.708      1.3180383      0.8429252    
   2189800  -10034.274     -10192.07       157.79562      31649.299      565.42848      16350.109      1.317361       0.8429252    
   2189900  -10033.272     -10191.239      157.96655      34192.089      566.04094      16360.764      1.3165031      0.8429252    
   2190000  -10029.684     -10190.136      160.4517       29034.922      574.94599      16379.537      1.3149942      0.83058691   
   2190100  -10032.564     -10193.185      160.62033      31358.558      575.55023      16409.646      1.3125814      0.83058691   
   2190200  -10031.905     -10192.805      160.89982      30573.668      576.55173      16440.646      1.3101065      0.83058691   
   2190300  -10029.303     -10190.43       161.12775      30133.459      577.36848      16468.285      1.3079077      0.83058691   
   2190400  -10028.053     -10190.759      162.70589      25986.292      583.02343      16483.201      1.3067242      0.83058691   
   2190500  -10027.268     -10189.978      162.70938      28335.406      583.03593      16474.766      1.3073931      0.83058691   
   2190600  -10026.318     -10191.541      165.2236       27735.215      592.0451       16444.959      1.3097629      0.83058691   
   2190700  -10026.863     -10188.206      161.34305      28623.114      578.13994      16399.334      1.3134068      0.83058691   
   2190800  -10026.433     -10189.686      163.25385      32146.479      584.98692      16350.025      1.3173678      0.83058691   
   2190900  -10022.806     -10184.73       161.9239       33589.021      580.2213       16310.404      1.320568       0.83058691   
   2191000  -10021.963     -10187.593      165.62993      28466.144      593.50109      16287.339      1.322438       0.75454168   
   2191100  -10025.69      -10186.858      161.16869      28974.146      577.51516      16283.215      1.322773       0.75454168   
   2191200  -10027.983     -10193.264      165.28045      32063.99       592.24882      16293.23       1.3219599      0.75454168   
   2191300  -10029.074     -10192.835      163.76114      30475.45       586.80469      16316.992      1.3200347      0.75454168   
   2191400  -10032.762     -10192.897      160.13493      30345.985      573.81091      16353.178      1.3171138      0.75454168   
   2191500  -10030.424     -10193.112      162.68721      30382.662      582.95648      16392.455      1.313958       0.75454168   
   2191600  -10033.552     -10192.862      159.31036      31435.62       570.85622      16423.077      1.311508       0.75454168   
   2191700  -10032.081     -10190.006      157.92474      27965.961      565.89115      16444.991      1.3097603      0.75454168   
   2191800  -10029.936     -10187.129      157.19367      30709.31       563.27151      16459.088      1.3086386      0.75454168   
   2191900  -10026.951     -10190.155      163.20367      31093.229      584.80711      16469.05       1.307847       0.75454168   
   2192000  -10031.092     -10191.805      160.71326      29182.889      575.88324      16472.815      1.307548       0.77067658   
   2192100  -10035.485     -10192.753      157.26784      28134.395      563.53725      16470.798      1.3077081      0.77067658   
   2192200  -10036.184     -10192.88       156.6965       29693.843      561.49         16456.671      1.3088307      0.77067658   
   2192300  -10031.668     -10194.374      162.70646      29446.296      583.02544      16434.399      1.3106044      0.77067658   
   2192400  -10033.31      -10188.541      155.23094      31222.739      556.23846      16410.075      1.3125471      0.77067658   
   2192500  -10030.452     -10189.612      159.15975      29998.22       570.31654      16389.189      1.3142198      0.77067658   
   2192600  -10032.926     -10195.631      162.70571      30524.933      583.02278      16375.956      1.3152818      0.77067658   
   2192700  -10031.037     -10189.955      158.9188       31050.523      569.45314      16370.672      1.3157063      0.77067658   
   2192800  -10029.367     -10189.206      159.83886      31757.945      572.75         16374.366      1.3154095      0.77067658   
   2192900  -10024.497     -10189.507      165.01046      33039.768      591.28137      16388.229      1.3142968      0.77067658   
   2193000  -10029.728     -10189.033      159.30571      26518.917      570.83957      16415.535      1.3121105      0.87501663   
   2193100  -10027.818     -10189.499      161.68058      30239.966      579.34942      16448.992      1.3094417      0.87501663   
   2193200  -10026.986     -10188.213      161.22729      33231.161      577.72515      16482.022      1.3068176      0.87501663   
   2193300  -10022.796     -10188.496      165.6994       29246.764      593.75003      16511.198      1.3045084      0.87501663   
   2193400  -10023.747     -10187.121      163.37386      32340.697      585.41694      16539.852      1.3022484      0.87501663   
   2193500  -10021.904     -10188.694      166.79074      27810.936      597.66063      16566.313      1.3001684      0.87501663   
   2193600  -10021.099     -10184.249      163.15006      31310.625      584.61499      16583.237      1.2988415      0.87501663   
   2193700  -10020.247     -10184.339      164.09121      29069.019      587.98741      16595.068      1.2979155      0.87501663   
   2193800  -10021.005     -10188.198      167.19341      27613.354      599.10353      16595.252      1.2979011      0.87501663   
   2193900  -10027.077     -10188.122      161.04494      28952.744      577.07174      16579.294      1.2991504      0.87501663   
   2194000  -10028.464     -10190.327      161.86225      28036.332      580.00041      16548.834      1.3015416      0.7908298    
   2194100  -10025.011     -10187.523      162.51269      31701.928      582.33112      16500.383      1.3053634      0.7908298    
   2194200  -10020.18      -10187.15       166.96981      35716.689      598.30229      16444.778      1.3097773      0.7908298    
   2194300  -10024.39      -10185.826      161.43561      36021.452      578.4716       16396.475      1.3136358      0.7908298    
   2194400  -10021.756     -10187.187      165.43056      31249.885      592.78672      16364.437      1.3162076      0.7908298    
   2194500  -10018.46      -10185.663      167.20323      34264.124      599.13873      16353.505      1.3170875      0.7908298    
   2194600  -10025.318     -10188.848      163.53019      28537.595      585.9771       16365.36       1.3161334      0.7908298    
   2194700  -10028.382     -10189.751      161.36871      30714.747      578.23191      16389.712      1.3141779      0.7908298    
   2194800  -10028.627     -10188.612      159.98481      29266.312      573.27296      16415.56       1.3121085      0.7908298    
   2194900  -10030.501     -10189.827      159.32644      29760.087      570.91385      16439.648      1.310186       0.7908298    
   2195000  -10030.693     -10190.586      159.89318      32012.332      572.94465      16458.231      1.3087067      0.82459968   
   2195100  -10031.353     -10187.214      155.86046      24540          558.49422      16471.018      1.3076907      0.82459968   
   2195200  -10033.499     -10189.822      156.32321      30843.262      560.15237      16476.452      1.3072594      0.82459968   
   2195300  -10029.545     -10192.634      163.08861      28468.45       584.39481      16478.661      1.3070841      0.82459968   
   2195400  -10031.017     -10194.397      163.38043      25212.44       585.44049      16464.783      1.3081859      0.82459968   
   2195500  -10030.161     -10189.448      159.28687      28984.143      570.77206      16434.024      1.3106343      0.82459968   
   2195600  -10027.558     -10190.133      162.57501      30536.738      582.55445      16399.255      1.3134131      0.82459968   
   2195700  -10026.504     -10190.925      164.42109      28325.745      589.16947      16367.663      1.3159482      0.82459968   
   2195800  -10024.236     -10187.517      163.28133      29988.832      585.08538      16343.647      1.3178819      0.82459968   
   2195900  -10025.492     -10190.629      165.1368       28469.265      591.73407      16333.662      1.3186875      0.82459968   
   2196000  -10022.936     -10183.851      160.91453      31349.583      576.60443      16337.616      1.3183684      0.74023598   
   2196100  -10023.865     -10185.182      161.31738      24948.912      578.04796      16351.782      1.3172262      0.74023598   
   2196200  -10028.209     -10188.964      160.75499      27630.598      576.03277      16374.082      1.3154323      0.74023598   
   2196300  -10023.42      -10186.095      162.67542      32638.156      582.91422      16401.167      1.31326        0.74023598   
   2196400  -10027.21      -10188.043      160.83306      29260.319      576.31251      16435.513      1.3105156      0.74023598   
   2196500  -10026.358     -10190.262      163.9035       29208.438      587.31481      16472.458      1.3075764      0.74023598   
   2196600  -10033.045     -10189.53       156.485        31631.565      560.73211      16501.375      1.305285       0.74023598   
   2196700  -10032.805     -10192.074      159.2687       28632.566      570.70695      16513.188      1.3043512      0.74023598   
   2196800  -10030.635     -10193.41       162.77462      31450.698      583.2697       16502.973      1.3051585      0.74023598   
   2196900  -10028.358     -10188.86       160.50214      31004.234      575.12672      16468          1.3079303      0.74023598   
   2197000  -10029.338     -10192.026      162.68756      33461.38       582.95774      16420.151      1.3117417      0.85907688   
   2197100  -10026.875     -10191.006      164.13102      33623.063      588.13009      16372.727      1.3155412      0.85907688   
   2197200  -10026.12      -10188.805      162.68533      31646.631      582.94973      16332.219      1.318804       0.85907688   
   2197300  -10024.739     -10187.184      162.44473      34139.83       582.08759      16304.952      1.3210095      0.85907688   
   2197400  -10028.804     -10190.793      161.98939      29935.254      580.45598      16284.904      1.3226358      0.85907688   
   2197500  -10025.709     -10190.676      164.96776      31019.101      591.12837      16270.706      1.3237899      0.85907688   
   2197600  -10023.387     -10187.528      164.14115      31734.699      588.16637      16268.665      1.323956       0.85907688   
   2197700  -10027.8       -10193.688      165.88814      31772.02       594.42634      16287.384      1.3224344      0.85907688   
   2197800  -10030.899     -10190.707      159.80846      29988.869      572.64108      16323.932      1.3194735      0.85907688   
   2197900  -10031.337     -10191.565      160.22841      29756.003      574.14588      16373.922      1.3154452      0.85907688   
   2198000  -10032.36      -10192.222      159.86242      29156.59       572.83443      16431.104      1.3108672      0.78971886   
   2198100  -10029.244     -10193.562      164.31737      31625.656      588.79781      16483.196      1.3067245      0.78971886   
   2198200  -10030.201     -10188.739      158.5373       30798.886      568.08613      16524.146      1.3034862      0.78971886   
   2198300  -10032.081     -10189.07       156.98889      29393.238      562.53771      16549.94       1.3014547      0.78971886   
   2198400  -10033.841     -10191.495      157.65463      30172.581      564.92325      16557.004      1.3008994      0.78971886   
   2198500  -10031.724     -10188.864      157.14006      28473.838      563.07941      16544.86       1.3018542      0.78971886   
   2198600  -10026.635     -10187.001      160.36554      27077.611      574.63723      16518.075      1.3039653      0.78971886   
   2198700  -10029.551     -10192.132      162.58037      31541.687      582.57363      16479.942      1.3069825      0.78971886   
   2198800  -10030.522     -10192.787      162.26573      32045.931      581.44618      16437.728      1.310339       0.78971886   
   2198900  -10032.141     -10192.742      160.60063      33397.584      575.47964      16400.238      1.3133344      0.78971886   
   2199000  -10030.48      -10192.7        162.2204       35450.738      581.28375      16368.68       1.3158664      0.85265841   
   2199100  -10031.973     -10188.972      156.99872      31660.897      562.57293      16347.78       1.3175487      0.85265841   
   2199200  -10032.747     -10193.663      160.91546      28546.969      576.60776      16341.713      1.3180378      0.85265841   
   2199300  -10027.956     -10192.404      164.44805      30513.339      589.26608      16343.964      1.3178563      0.85265841   
   2199400  -10023.164     -10189.377      166.21283      30729.61       595.58981      16352.25       1.3171885      0.85265841   
   2199500  -10022.264     -10188.63       166.36625      30138.586      596.13957      16371.339      1.3156527      0.85265841   
   2199600  -10025.863     -10189.277      163.41421      25851.991      585.56152      16397.982      1.3135151      0.85265841   
   2199700  -10030.446     -10189.822      159.37611      26714.216      571.09183      16420.795      1.3116902      0.85265841   
   2199800  -10029.927     -10190.077      160.15015      32668.37       573.86543      16434.82       1.3105709      0.85265841   
   2199900  -10032.292     -10190.517      158.22472      26204.645      566.96605      16440.113      1.3101489      0.85265841   
   2200000  -10030.218     -10189.83       159.61254      28024.827      571.93903      16432.289      1.3107727      0.73029661   
   2200100  -10026.853     -10190.204      163.35042      28170.961      585.33296      16415.025      1.3121513      0.73029661   
   2200200  -10026.426     -10185.773      159.34655      29646.493      570.98589      16391.265      1.3140533      0.73029661   
   2200300  -10026.928     -10189.068      162.13973      30907.653      580.9947       16373.362      1.3154901      0.73029661   
   2200400  -10026.141     -10187.98       161.83851      29213.422      579.91532      16367.602      1.3159531      0.73029661   
   2200500  -10027.354     -10189.762      162.40806      30651.931      581.95621      16372.953      1.315523       0.73029661   
   2200600  -10028.808     -10188.859      160.05059      33653.419      573.5087       16381.279      1.3148544      0.73029661   
   2200700  -10030.203     -10192.397      162.19349      31972.334      581.18733      16396.427      1.3136396      0.73029661   
   2200800  -10028.2       -10191.643      163.44275      29820.694      585.6638       16416.842      1.3120061      0.73029661   
   2200900  -10024.013     -10191.061      167.04726      27911.842      598.57983      16435.905      1.3104844      0.73029661   
   2200926  -10024.695     -10184.297      159.60247      30321.024      571.90293      16441.055      1.3100738      0.73029661   
Loop time of 10805 on 1 procs for 2000000 steps with 2160 atoms

Performance: 7.996 ns/day, 3.001 hours/ns, 185.100 timesteps/s, 399.815 katom-step/s
99.8% CPU use with 1 MPI tasks x 1 OpenMP threads

MPI task timing breakdown:
Section |  min time  |  avg time  |  max time  |%varavg| %total
---------------------------------------------------------------
Pair    | 8792.1     | 8792.1     | 8792.1     |   0.0 | 81.37
Neigh   | 90.292     | 90.292     | 90.292     |   0.0 |  0.84
Comm    | 92.13      | 92.13      | 92.13      |   0.0 |  0.85
Output  | 7.1332     | 7.1332     | 7.1332     |   0.0 |  0.07
Modify  | 1778.7     | 1778.7     | 1778.7     |   0.0 | 16.46
Other   |            | 44.62      |            |       |  0.41

Nlocal:           2160 ave        2160 max        2160 min
Histogram: 1 0 0 0 0 0 0 0 0 0
Nghost:           6357 ave        6357 max        6357 min
Histogram: 1 0 0 0 0 0 0 0 0 0
Neighs:              0 ave           0 max           0 min
Histogram: 1 0 0 0 0 0 0 0 0 0
FullNghs:       327628 ave      327628 max      327628 min
Histogram: 1 0 0 0 0 0 0 0 0 0

Total # of neighbors = 327628
Ave neighs/atom = 151.67963
Neighbor list builds = 200000
Dangerous builds = 200000

unfix		3
unfix		4
Total wall time: 3:18:17
