LAMMPS (7 Feb 2024 - Update 1)
KOKKOS mode with Kokkos version 4.2.0 is enabled (src/KOKKOS/kokkos.cpp:72)
  will use up to 2 GPU(s) per node
  using 1 OpenMP thread(s) per MPI task
Reading data file ...
  orthogonal box = (0 0 0) to (18.207572 23.629178 22.213196)
  1 by 2 by 1 MPI processor grid
  reading atoms ...
  864 atoms
  read_data CPU = 0.010 seconds
ACE/AL version: 2023.11.25
Loading /home/cicn/cicn607503/pd/pot_dir/interim_potential_ladder_step_5.yaml
Total number of basis functions
	H: 24 (r=1) 863 (r>1)
	O: 24 (r=1) 863 (r>1)
Mapping LAMMPS atom type #1(H) -> ACE species type #0
Mapping LAMMPS atom type #2(O) -> ACE species type #1
Loading ASI /home/cicn/cicn607503/pd/pot_dir/interim_potential_ladder_step_5.asi
LINEAR ASI is loaded
Switching to 'neigh_modify every 1 delay 0 check yes' setting during minimization
Neighbor list info ...
  update: every = 1 steps, delay = 0 steps, check = yes
  max neighbors/atom: 2000, page size: 100000
  master list distance cutoff = 6.5
  ghost atom cutoff = 6.5
  binsize = 6.5, bins = 3 4 4
  1 neighbor lists, perpetual/occasional/extra = 1 0 0
  (1) pair pace/extrapolation/kk, perpetual
      attributes: full, newton on, kokkos_device
      pair build: full/bin/kk/device
      stencil: full/bin/3d
      bin: kk/device
Setting up cg/kk style minimization ...
  Unit style    : metal
  Current step  : 0
WARNING: Fix with atom-based arrays not compatible with sending data in Kokkos communication, switching to classic exchange/border communication (src/KOKKOS/comm_kokkos.cpp:666)
WARNING: Fix with atom-based arrays not compatible with Kokkos sorting on device, switching to classic host sorting (src/KOKKOS/atom_kokkos.cpp:218)
Per MPI rank memory allocation (min/avg/max) = 449.3 | 453 | 456.7 Mbytes
   Step         TotEng         PotEng         KinEng         Press           Temp          Volume        Density     c_max_pace_gamma
         0  -4180.7249     -4180.7249      0              931.57303      0              9556.7825      0.90151666     0.51848275   
       100  -4182.8568     -4182.8568      0             -5818.1351      0              9556.7825      0.90151666     0.51848275   
       191  -4182.8571     -4182.8571      0             -5809.5218      0              9556.7825      0.90151666     0.51848275   
Loop time of 0.670246 on 2 procs for 191 steps with 864 atoms

99.6% CPU use with 2 MPI tasks x 1 OpenMP threads

Minimization stats:
  Stopping criterion = force tolerance
  Energy initial, next-to-last, final = 
      -4180.7249004513  -4182.85708343912  -4182.85708344366
  Force two-norm initial, final = 6.5563152 0.00040677855
  Force max component initial, final = 0.28078875 3.622429e-05
  Final line search alpha, max atom move = 1 3.622429e-05
  Iterations, force evaluations = 191 382

MPI task timing breakdown:
Section |  min time  |  avg time  |  max time  |%varavg| %total
---------------------------------------------------------------
Pair    | 0.46073    | 0.46179    | 0.46284    |   0.2 | 68.90
Neigh   | 0          | 0          | 0          |   0.0 |  0.00
Comm    | 0.067471   | 0.069279   | 0.071087   |   0.7 | 10.34
Output  | 0.00015823 | 0.00015926 | 0.0001603  |   0.0 |  0.02
Modify  | 0.08871    | 0.090429   | 0.092148   |   0.6 | 13.49
Other   |            | 0.04859    |            |       |  7.25

Nlocal:            432 ave         436 max         428 min
Histogram: 1 0 0 0 0 0 0 0 0 1
Nghost:           2169 ave        2174 max        2164 min
Histogram: 1 0 0 0 0 0 0 0 0 1
Neighs:              0 ave           0 max           0 min
Histogram: 2 0 0 0 0 0 0 0 0 0
FullNghs:        45636 ave       46083 max       45189 min
Histogram: 1 0 0 0 0 0 0 0 0 1

Total # of neighbors = 91272
Ave neighs/atom = 105.63889
Neighbor list builds = 0
Dangerous builds = 0
Setting up Verlet run ...
  Unit style    : metal
  Current step  : 191
  Time step     : 0.0005
WARNING: Fix with atom-based arrays not compatible with sending data in Kokkos communication, switching to classic exchange/border communication (src/KOKKOS/comm_kokkos.cpp:666)
WARNING: Fix with atom-based arrays not compatible with Kokkos sorting on device, switching to classic host sorting (src/KOKKOS/atom_kokkos.cpp:218)
Per MPI rank memory allocation (min/avg/max) = 453.3 | 454.9 | 456.4 Mbytes
   Step         TotEng         PotEng         KinEng         Press           Temp          Volume        Density     c_max_pace_gamma
       191  -4149.9494     -4182.8571      32.907694     -2131.5801      295            9556.7825      0.90151666     0.51848275   
       200  -4149.4679     -4173.21        23.742139     -9710.3192      212.83567      9556.5322      0.90154026     0.51848275   
       300  -4142.4186     -4162.8167      20.398158     -3053.505       182.85866      9518.8937      0.90510503     0.51848275   
       400  -4135.4868     -4157.3739      21.887118     -2062.3668      196.20639      9435.2781      0.91312609     0.51848275   
       500  -4129.7008     -4155.2087      25.507873     -238.42464      228.66453      9321.1684      0.92430457     0.51848275   
       600  -4126.5311     -4153.4373      26.906222      4157.785       241.2          9213.7157      0.93508405     0.51848275   
       700  -4123.1085     -4152.5634      29.454865      4476.8902      264.04722      9148.9533      0.9417032      0.51848275   
       800  -4123.1908     -4152.0044      28.813609      3066.6741      258.2987       9138.3024      0.94280078     0.51848275   
       900  -4122.8407     -4151.7573      28.916605      4319.9196      259.22201      9179.2867      0.93859129     0.51848275   
      1000  -4119.7643     -4149.5717      29.80741       3165.6537      267.2076       9259.9377      0.93041647     0.76055264   
      1100  -4118.9305     -4150.3035      31.372925      302.17893      281.24161      9361.9884      0.92027444     0.76055264   
      1200  -4118.7784     -4150.2526      31.474207      601.53792      282.14955      9466.0588      0.91015688     0.76055264   
      1300  -4118.0395     -4149.379       31.339526      1506.9374      280.94221      9550.9427      0.90206787     0.76055264   
      1400  -4116.2067     -4148.0727      31.865998      50.775354      285.66175      9609.7342      0.8965491      0.76055264   
      1500  -4114.8879     -4147.1954      32.307504     -1805.8882      289.61962      9638.6633      0.89385824     0.76055264   
      1600  -4114.7192     -4148.2488      33.52957       2535.3595      300.57479      9639.9039      0.89374321     0.76055264   
      1700  -4114.4603     -4148.6578      34.197491     -627.24024      306.56235      9617.2022      0.89585291     0.76055264   
      1800  -4114.6882     -4146.8956      32.207345      654.43014      288.72174      9576.5388      0.89965683     0.76055264   
      1900  -4113.1783     -4146.9619      33.783573      1982.4613      302.85179      9525.6015      0.90446767     0.76055264   
      2000  -4114.4013     -4149.0546      34.653267      1783.4502      310.64814      9476.5917      0.90914528     0.68775587   
      2100  -4115.7763     -4147.7013      31.925004      3115.3387      286.19071      9435.5542      0.91309937     0.68775587   
      2200  -4116.1071     -4147.5295      31.422405      234.11364      281.68518      9406.9075      0.91588002     0.68775587   
      2300  -4116.7363     -4148.2562      31.519944      3280.9525      282.55956      9390.4865      0.9174816      0.68775587   
      2400  -4116.104      -4148.6564      32.552403      5912.2239      291.81501      9388.5193      0.91767385     0.68775587   
      2500  -4115.7343     -4148.2447      32.510399      844.39413      291.43846      9405.0937      0.91605665     0.68775587   
      2600  -4114.7108     -4147.499       32.788157      3081.3547      293.92841      9438.3377      0.91283008     0.68775587   
      2700  -4115.1827     -4148.3458      33.163114      1644.5614      297.2897       9490.6247      0.907801       0.68775587   
      2800  -4116.9287     -4148.7444      31.81573       276.42481      285.21113      9551.69        0.9019973      0.68775587   
      2900  -4115.0603     -4147.5521      32.491771      365.04567      291.27148      9603.4666      0.89713422     0.68775587   
      3000  -4113.4973     -4145.5054      32.008081     -1137.6125      286.93545      9633.6087      0.89432723     0.83711791   
      3100  -4114.7844     -4146.3531      31.568723      888.51149      282.99683      9641.0465      0.89363728     0.83711791   
      3200  -4115.1968     -4146.7178      31.52103       1735.7365      282.56929      9624.9076      0.89513572     0.83711791   
      3300  -4116.7483     -4148.861       32.112769      1955.2668      287.87392      9589.9032      0.89840308     0.83711791   
      3400  -4115.4117     -4147.2717      31.859982      3269.0316      285.60781      9539.8785      0.90311408     0.83711791   
      3500  -4115.0545     -4147.5993      32.544757      2107.0031      291.74646      9485.3833      0.90830263     0.83711791   
      3600  -4114.4501     -4147.5443      33.094223      472.89361      296.67213      9433.5731      0.91329112     0.83711791   
      3700  -4114.9157     -4148.2718      33.35612       796.04261      299.0199       9397.5704      0.91679001     0.83711791   
      3800  -4114.846      -4148.6731      33.827043      4755.6559      303.24148      9386.1417      0.9179063      0.83711791   
      3900  -4113.5424     -4147.616       34.073608      2736.0202      305.4518       9396.6379      0.91688099     0.83711791   
      4000  -4112.5714     -4147.0366      34.465112      1794.4585      308.96143      9429.7607      0.91366036     0.75385735   
      4100  -4112.86       -4147.8486      34.988659      1534.0484      313.65475      9483.1492      0.90851662     0.75385735   
      4200  -4113.0978     -4146.6243      33.526542     -1469.2037      300.54764      9542.1099      0.90290289     0.75385735   
      4300  -4114.3141     -4148.106       33.791932     -872.97987      302.92672      9594.813       0.89794336     0.75385735   
      4400  -4113.7576     -4146.5798      32.822126      1973.4137      294.23293      9629.2501      0.89473204     0.75385735   
      4500  -4113.1742     -4145.664       32.489823      2540.0852      291.25401      9638.6467      0.89385977     0.75385735   
      4600  -4113.6529     -4147.2132      33.560248      116.67298      300.8498       9623.3934      0.89527656     0.75385735   
      4700  -4115.2864     -4148.2035      32.917127     -2374.7702      295.08456      9578.9338      0.89943189     0.75385735   
      4800  -4115.8943     -4146.9154      31.021093      1943.9299      278.08763      9508.8957      0.90605669     0.75385735   
      4900  -4116.1711     -4148.1351      31.96396       519.6106       286.53993      9426.4012      0.91398598     0.75385735   
      5000  -4115.5534     -4148.534       32.980625      6054.861       295.65379      9347.7963      0.92167162     0.66984379   
      5100  -4114.9621     -4147.5409      32.578789      3796.8393      292.05154      9292.0255      0.9272035      0.66984379   
      5200  -4115.4239     -4148.8776      33.453682      6425.6409      299.89449      9279.6928      0.92843576     0.66984379   
      5300  -4116.9656     -4148.5402      31.574609      3497.9566      283.0496       9309.9967      0.92541371     0.66984379   
      5400  -4117.1221     -4149.0902      31.968128     -545.45495      286.57729      9371.2647      0.91936349     0.66984379   
      5500  -4116.5978     -4147.643       31.045224     -314.49243      278.30394      9451.3931      0.91156917     0.66984379   
      5600  -4115.7293     -4148.5539      32.82467       1421.4751      294.25573      9534.3076      0.90364177     0.66984379   
      5700  -4116.1042     -4149.5348      33.430564      1645.4355      299.68726      9604.2557      0.89706052     0.66984379   
      5800  -4115.6937     -4147.3425      31.648819     -3647.4433      283.71486      9648.7705      0.89292191     0.66984379   
      5900  -4113.246      -4146.1735      32.927529     -3803.0149      295.17781      9661.4398      0.891751       0.66984379   
      6000  -4114.5214     -4146.768       32.246596      1956.8399      289.07361      9639.7178      0.89376045     0.72192455   
      6100  -4113.6341     -4147.3694      33.73531      -1347.4557      302.41914      9592.2656      0.89818182     0.72192455   
      6200  -4114.6501     -4148.2346      33.584478     -259.4077       301.067        9531.8382      0.90387587     0.72192455   
      6300  -4113.7706     -4147.4531      33.682495      3685.4262      301.94568      9471.3489      0.90964852     0.72192455   
      6400  -4114.5599     -4146.9645      32.40458       3128.7779      290.48985      9424.7689      0.91414428     0.72192455   
      6500  -4113.9494     -4147.7981      33.848742      3340.3472      303.43599      9398.2872      0.91672008     0.72192455   
      6600  -4115.2265     -4148.1741      32.947584      3543.8146      295.35759      9394.5143      0.91708824     0.72192455   
      6700  -4114.4693     -4147.1114      32.642107      1106.9943      292.61915      9410.4345      0.91553675     0.72192455   
      6800  -4114.3681     -4146.3708      32.002667     -357.58036      286.88691      9442.1775      0.91245887     0.72192455   
      6900  -4114.8441     -4146.8818      32.037755      1704.6461      287.20146      9481.3812      0.90868602     0.72192455   
      7000  -4114.8216     -4147.3488      32.52724       973.11697      291.58943      9518.5707      0.90513575     0.69604866   
      7100  -4114.8801     -4147.8847      33.0046       -136.77415      295.86871      9548.3951      0.90230855     0.69604866   
      7200  -4113.8168     -4146.9215      33.104744     -1227.7022      296.76645      9567.0868      0.90054567     0.69604866   
      7300  -4113.4337     -4146.4679      33.034168     -1419.6536      296.13377      9569.4835      0.90032012     0.69604866   
      7400  -4114.3839     -4146.4758      32.091886      1232.4186      287.68672      9555.4671      0.90164076     0.69604866   
      7500  -4114.5243     -4147.9699      33.445571      2771.8377      299.82178      9533.2672      0.90374039     0.69604866   
      7600  -4114.996      -4149.5664      34.570362      452.12304      309.90493      9507.6396      0.9061764      0.69604866   
      7700  -4115.0959     -4148.2371      33.141249      4612.0288      297.09369      9483.7085      0.90846304     0.69604866   
      7800  -4114.9355     -4147.5058      32.570235      945.48996      291.97486      9466.5157      0.91011295     0.69604866   
      7900  -4114.8316     -4147.2687      32.437159      2150.1289      290.7819       9453.8846      0.91132893     0.69604866   
      8000  -4114.8119     -4147.4065      32.594564      822.88956      292.19295      9451.8956      0.91152071     0.66298954   
      8100  -4115.5679     -4147.2034      31.635538      2344.7425      283.59579      9458.5009      0.91088415     0.66298954   
      8200  -4115.7895     -4148.5174      32.727914     -71.932946      293.38837      9470.2006      0.90975883     0.66298954   
      8300  -4115.5842     -4148.9712      33.38694       487.05404      299.29619      9485.8264      0.9082602      0.66298954   
      8400  -4115.699      -4146.7697      31.070621      1540.8832      278.53161      9500.3705      0.90686975     0.66298954   
      8500  -4116.7042     -4147.9752      31.270967     -810.50935      280.32761      9514.0864      0.90556236     0.66298954   
      8600  -4114.8757     -4148.8711      33.995341     -3518.0119      304.75017      9527.6144      0.90427658     0.66298954   
      8700  -4114.0962     -4148.781       34.68484       1117.312       310.93117      9543.9628      0.9027276      0.66298954   
      8800  -4112.9732     -4145.3371      32.363905      507.1831       290.12522      9560.2095      0.90119349     0.66298954   
      8900  -4111.9647     -4144.9316      32.966805     -1291.7278      295.5299       9567.4424      0.9005122      0.66298954   
      9000  -4112.4815     -4145.4365      32.954974     -842.14228      295.42384      9558.7534      0.90133077     0.81065789   
      9100  -4112.425      -4145.3881      32.963046      1174.2812      295.4962       9538.0283      0.90328927     0.81065789   
      9200  -4112.2574     -4145.9538      33.696451     -943.09489      302.07079      9510.3887      0.90591446     0.81065789   
      9300  -4112.1956     -4145.2318      33.036173      2183.6678      296.15175      9482.4051      0.9085879      0.81065789   
      9400  -4111.8558     -4146.0139      34.158163     -1451.0804      306.20979      9459.5212      0.9107859      0.81065789   
      9500  -4112.2793     -4145.0535      32.774187      2092.5146      293.80318      9448.7243      0.91182664     0.81065789   
      9600  -4112.6807     -4146.1127      33.43202       2688.7351      299.70031      9454.3983      0.91127942     0.81065789   
      9700  -4112.6991     -4146.9504      34.251253      968.49194      307.0443       9472.874       0.90950208     0.81065789   
      9800  -4112.8303     -4145.618       32.787695     -258.38316      293.92427      9498.1339      0.9070833      0.81065789   
      9900  -4114.0021     -4147.1527      33.150567     -417.05644      297.17723      9526.742       0.90435939     0.81065789   
     10000  -4114.6493     -4146.9407      32.291379     -783.59976      289.47506      9546.7425      0.90246475     0.72371653   
     10100  -4116.4513     -4147.9622      31.510911     -1051.8351      282.47858      9556.5468      0.90153889     0.72371653   
     10200  -4115.9876     -4148.4418      32.454173      915.95296      290.93443      9558.2659      0.90137674     0.72371653   
     10300  -4114.1079     -4147.0724      32.964522      2191.7617      295.50944      9551.3012      0.90203402     0.72371653   
     10400  -4113.3208     -4147.0346      33.713856      3137.6499      302.22681      9536.81        0.90340466     0.72371653   
     10500  -4113.1992     -4146.3719      33.172663     -561.9724       297.37531      9516.0202      0.90537834     0.72371653   
     10600  -4112.7681     -4145.9308      33.162714      1528.7962      297.28612      9489.0805      0.90794873     0.72371653   
     10700  -4114.5274     -4146.8227      32.295286      2254.2398      289.51008      9460.4459      0.91069689     0.72371653   
     10800  -4113.5275     -4146.1615      32.633984      2147.2159      292.54634      9434.3564      0.9132153      0.72371653   
     10900  -4113.5534     -4147.3828      33.829445      263.60654      303.26301      9422.0884      0.91440434     0.72371653   
     11000  -4113.6324     -4146.6911      33.058639      6677.0879      296.35314      9422.0165      0.91441132     0.72589964   
     11100  -4112.8985     -4147.0289      34.130401      2476.8552      305.96092      9437.9652      0.91286611     0.72589964   
     11200  -4114.5138     -4147.776       33.262192      4131.0988      298.17789      9467.3522      0.91003254     0.72589964   
     11300  -4116.0901     -4147.8987      31.80869       126.29217      285.14801      9504.73        0.90645379     0.72589964   
     11400  -4117.2835     -4149.4693      32.185836      638.91219      288.52893      9537.1427      0.90337314     0.72589964   
     11500  -4117.3721     -4150.296       32.923929      670.15242      295.14554      9554.6265      0.90172008     0.72589964   
     11600  -4115.9726     -4148.132       32.159334     -876.32747      288.29135      9557.4843      0.90145046     0.72589964   
     11700  -4115.2995     -4147.0754      31.775949     -1996.4392      284.85451      9546.9506      0.90244508     0.72589964   
     11800  -4114.4788     -4147.6633      33.184459      2287.0495      297.48105      9519.8389      0.90501517     0.72589964   
     11900  -4115.4511     -4147.9366      32.48553       718.51111      291.21552      9483.0885      0.90852243     0.72589964   
     12000  -4114.8542     -4147.3392      32.485013      1113.915       291.21089      9440.1829      0.91265166     0.76835077   
     12100  -4114.268      -4147.3472      33.079167     -721.24291      296.53717      9409.6432      0.91561374     0.76835077   
     12200  -4114.2114     -4146.9229      32.711472     -175.35567      293.24098      9394.257       0.91711336     0.76835077   
     12300  -4113.2753     -4146.4113      33.135996      2119.5156      297.04661      9397.68        0.91677931     0.76835077   
     12400  -4114.3798     -4146.2218      31.842043      3942.9089      285.447        9422.4228      0.91437189     0.76835077   
     12500  -4114.6351     -4147.1952      32.560131      320.91793      291.88428      9464.7488      0.91028286     0.76835077   
     12600  -4112.7861     -4147.3524      34.56627       1447.1407      309.86826      9518.6534      0.90512788     0.76835077   
     12700  -4111.8697     -4145.5923      33.72258      -128.65094      302.30502      9574.1358      0.89988264     0.76835077   
     12800  -4111.6894     -4145.9682      34.278845     -1036.9848      307.29164      9620.6678      0.8955302      0.76835077   
     12900  -4114.5063     -4147.2818      32.775565      1305.2247      293.81553      9646.2577      0.89315452     0.76835077   
     13000  -4113.8064     -4147.7087      33.902263     -2947.266       303.91578      9643.3904      0.89342008     0.74592513   
     13100  -4112.3501     -4147.078       34.727861     -1345.2306      311.31683      9614.2114      0.8961316      0.74592513   
     13200  -4113.3913     -4147.573       34.181715      204.74441      306.42092      9572.4023      0.90004561     0.74592513   
     13300  -4112.8824     -4147.1998      34.31741       1912.7341      307.63736      9523.1321      0.90470221     0.74592513   
     13400  -4112.8923     -4146.4301      33.537738      2082.5837      300.64801      9475.7385      0.90922714     0.74592513   
     13500  -4113.1217     -4145.8096      32.687921      1468.4713      293.02985      9435.3278      0.91312128     0.74592513   
     13600  -4114.4304     -4147.6113      33.180865      1463.9806      297.44883      9409.4704      0.91563056     0.74592513   
     13700  -4114.5447     -4147.2786      32.733943     -1544.2438      293.44241      9398.7946      0.91667059     0.74592513   
     13800  -4114.8631     -4148.055       33.191907      4774.2851      297.54781      9406.3517      0.91593413     0.74592513   
     13900  -4113.9498     -4147.3371      33.38734       2016.456       299.29977      9430.3689      0.91360144     0.74592513   
     14000  -4114.5054     -4147.7506      33.245134     -994.29945      298.02497      9467.2497      0.9100424      0.83883315   
     14100  -4115.1913     -4147.9672      32.775936      2153.3894      293.81886      9509.3198      0.90601628     0.83883315   
     14200  -4114.5899     -4146.184       31.594117     -278.39229      283.22448      9546.7867      0.90246058     0.83883315   
     14300  -4115.0026     -4147.3347      32.332149      782.69668      289.84055      9573.9843      0.89989688     0.83883315   
     14400  -4114.3654     -4146.7589      32.393539      2411.6845      290.39087      9589.8005      0.8984127      0.83883315   
     14500  -4115.1046     -4147.1854      32.080736      1169.5685      287.58676      9591.3001      0.89827224     0.83883315   
     14600  -4115.6666     -4148.003       32.336388     -2206.7227      289.87854      9575.1889      0.89978367     0.83883315   
     14700  -4116.4704     -4149.0346      32.564277     -549.04723      291.92144      9543.7369      0.90274896     0.83883315   
     14800  -4115.3699     -4146.4579      31.088021     -454.18189      278.6876       9503.7281      0.90654936     0.83883315   
     14900  -4114.9649     -4146.5757      31.610752      1482.9521      283.3736       9467.4627      0.91002192     0.83883315   
     15000  -4115.2366     -4148.2276      32.990992      2308.5886      295.74672      9441.4677      0.91252746     0.68169879   
     15100  -4115.8561     -4147.9689      32.112728      4492.3786      287.87355      9428.5858      0.91377421     0.68169879   
     15200  -4116.0916     -4148.0967      32.005117      3713.9844      286.90887      9434.1159      0.91323857     0.68169879   
     15300  -4115.0274     -4147.0204      31.993006      2884.2602      286.80031      9456.9137      0.91103703     0.68169879   
     15400  -4114.4162     -4147.4535      33.037334      1787.3893      296.16216      9494.7349      0.90740802     0.68169879   
     15500  -4114.3333     -4146.9483      32.615022     -390.29395      292.37636      9540.6148      0.90304438     0.68169879   
     15600  -4116.0086     -4147.2543      31.245682     -45.597214      280.10095      9582.9531      0.89905465     0.68169879   
     15700  -4116.3034     -4147.451       31.147629     -1462.162       279.22196      9616.0151      0.8959635      0.68169879   
     15800  -4116.4327     -4148.2492      31.816519      504.15511      285.2182       9632.3408      0.89444495     0.68169879   
     15900  -4115.1059     -4148.4565      33.350629      753.36523      298.97068      9629.8929      0.89467232     0.68169879   
     16000  -4114.0564     -4146.1297      32.073266     -3630.3306      287.5198       9608.7266      0.89664312     0.79952045   
     16100  -4114.8295     -4146.9613      32.131792     -1801.5505      288.04445      9577.1109      0.89960309     0.79952045   
     16200  -4115.0809     -4147.375       32.29415      -59.865557      289.49991      9538.4527      0.90324907     0.79952045   
     16300  -4114.5584     -4147.4472      32.888783      1474.3821      294.83047      9497.8388      0.90711148     0.79952045   
     16400  -4115.8785     -4148.8348      32.956215      1517.5549      295.43497      9462.7723      0.91047299     0.79952045   
     16500  -4117.1136     -4148.9267      31.813142      3247.9143      285.18792      9438.6064      0.91280409     0.79952045   
     16600  -4116.9814     -4149.2158      32.234434      765.79779      288.96458      9431.6403      0.91347828     0.79952045   
     16700  -4116.0362     -4148.313       32.276832      2601.3667      289.34466      9439.4797      0.91271965     0.79952045   
     16800  -4115.3939     -4148.1418      32.747896      4686.2577      293.56749      9459.1813      0.91081863     0.79952045   
     16900  -4115.8282     -4148.4764      32.648229      19.974898      292.67403      9487.9055      0.90806117     0.79952045   
     17000  -4115.3054     -4147.9432      32.63777      -2923.9426      292.58028      9518.2247      0.90516865     0.73279582   
     17100  -4114.62       -4148.179       33.558995     -700.28503      300.83857      9550.0603      0.90215123     0.73279582   
     17200  -4114.6777     -4147.1753      32.497592      335.84052      291.32365      9579.6787      0.89936195     0.73279582   
     17300  -4115.3057     -4146.9581      31.65232       427.26963      283.74623      9597.3583      0.89770521     0.73279582   
     17400  -4114.8719     -4147.2299      32.358053      2635.6349      290.07276      9602.4644      0.89722786     0.73279582   
     17500  -4114.5054     -4146.5717      32.066364      388.55017      287.45792      9593.6964      0.89804787     0.73279582   
     17600  -4115.9802     -4147.2185      31.238273      521.73969      280.03453      9572.969       0.89999232     0.73279582   
     17700  -4115.6563     -4149.4358      33.779503     -57.647915      302.8153       9543.0974      0.90280946     0.73279582   
     17800  -4114.7464     -4146.9571      32.210682     -312.53781      288.75166      9509.3758      0.90601095     0.73279582   
     17900  -4114.9511     -4146.8704      31.919283      1133.2314      286.13942      9478.6906      0.90894396     0.73279582   
     18000  -4115.0601     -4147.1509      32.090787      1184.8563      287.67686      9456.704       0.91105724     0.78615056   
     18100  -4114.7265     -4147.7085      32.982031      1228.6142      295.66639      9449.2188      0.91177892     0.78615056   
     18200  -4114.9277     -4147.8804      32.952673      1148.9829      295.40321      9455.498       0.91117344     0.78615056   
     18300  -4115.0675     -4147.2881      32.220648      639.14917      288.841        9472.7292      0.90951598     0.78615056   
     18400  -4114.9254     -4148.67        33.744596      1268.7015      302.50239      9498.2516      0.90707206     0.78615056   
     18500  -4115.05       -4146.976       31.925955      1870.0611      286.19923      9525.3178      0.90449461     0.78615056   
     18600  -4115.3187     -4147.3962      32.077581      2656.2419      287.55848      9546.5992      0.9024783      0.78615056   
     18700  -4115.4166     -4147.6028      32.186223      1341.7615      288.5324       9559.6978      0.90124173     0.78615056   
     18800  -4116.1889     -4147.5552      31.366282     -130.66454      281.18206      9563.4387      0.9008892      0.78615056   
     18900  -4116.6778     -4147.9989      31.321119      1176.4284      280.7772       9553.7454      0.90180324     0.78615056   
     19000  -4115.3405     -4148.2731      32.932568      407.89         295.22298      9531.6446      0.90389424     0.73806936   
     19100  -4113.9808     -4146.7002      32.719394     -1091.1741      293.31199      9502.3181      0.90668388     0.73806936   
     19200  -4114.3118     -4147.7957      33.483824     -3.6007586      300.1647       9473.23        0.9094679      0.73806936   
     19300  -4114.6584     -4146.9228      32.264377      2517.2621      289.233        9446.5991      0.91203178     0.73806936   
     19400  -4115.547      -4146.8411      31.294102      3895.4988      280.535        9429.3827      0.91369699     0.73806936   
     19500  -4115.0894     -4147.6047      32.515309      4368.0387      291.48248      9429.8535      0.91365137     0.73806936   
     19600  -4115.6316     -4148.0058      32.374262     -118.81883      290.21806      9446.9343      0.91199942     0.73806936   
     19700  -4114.9535     -4147.3162      32.362787      1097.0501      290.1152       9474.9536      0.90930246     0.73806936   
     19800  -4114.2614     -4146.6155      32.35408      -1179.2895      290.03714      9510.3147      0.9059215      0.73806936   
     19900  -4112.297      -4146.0976      33.800577      1546.3424      303.00422      9544.6176      0.90266566     0.73806936   
     20000  -4114.2645     -4146.7941      32.529644      853.7644       291.61098      9574.8599      0.89981459     0.68253516   
     20100  -4113.9898     -4146.6118      32.621997      1029.7905      292.43888      9593.0817      0.89810541     0.68253516   
     20200  -4113.1934     -4146.9898      33.796323      2268.7218      302.96609      9596.2505      0.89780884     0.68253516   
     20300  -4114.4008     -4147.1868      32.785987      576.11353      293.90896      9587.8716      0.89859345     0.68253516   
     20400  -4115.8368     -4147.3427      31.505868      1008.5661      282.43337      9567.3444      0.90052143     0.68253516   
     20500  -4114.2374     -4146.4237      32.186377      1454.1859      288.53378      9534.4208      0.90363104     0.68253516   
     20600  -4115.372      -4147.2664      31.894444      1003.9816      285.91675      9495.9686      0.90729013     0.68253516   
     20700  -4116.6242     -4148.7331      32.108853      117.84531      287.83881      9455.6154      0.91116212     0.68253516   
     20800  -4114.7895     -4147.8088      33.019253      2957.9694      296.00007      9418.6621      0.91473699     0.68253516   
     20900  -4115.7194     -4147.9706      32.251243      1772.8522      289.11526      9399.1232      0.91663855     0.68253516   
     21000  -4114.9948     -4146.5367      31.541911      3154.3136      282.75648      9398.0139      0.91674673     0.71209853   
     21100  -4116.1629     -4148.385       32.22214       1145.3874      288.85437      9420.829       0.91452659     0.71209853   
     21200  -4115.7976     -4149.0548      33.257142      1529.4591      298.13262      9462.5551      0.91049389     0.71209853   
     21300  -4114.2895     -4146.9222      32.632727      1692.2818      292.53506      9513.8656      0.90558338     0.71209853   
     21400  -4115.6278     -4149.1444      33.516598     -870.42887      300.4585       9569.2049      0.90034633     0.71209853   
     21500  -4115.8439     -4148.247       32.403043     -401.96599      290.47607      9609.3208      0.89658768     0.71209853   
     21600  -4115.2474     -4147.7604      32.512965     -1358.3487      291.46146      9629.7468      0.89468589     0.71209853   
     21700  -4113.8795     -4147.2966      33.417024     -2472.9323      299.56587      9627.6548      0.8948803      0.71209853   
     21800  -4115.169      -4146.5946      31.425624     -262.88535      281.71403      9602.9243      0.89718489     0.71209853   
     21900  -4115.4928     -4147.7481      32.255305     -390.96944      289.15168      9556.9843      0.90149762     0.71209853   
     22000  -4115.4998     -4146.929       31.429172      2151.2181      281.74583      9499.2796      0.90697389     0.78431062   
     22100  -4114.7301     -4147.3367      32.606648      1506.8569      292.30128      9444.1422      0.91226905     0.78431062   
     22200  -4115.7704     -4148.8065      33.036086      1033.8458      296.15097      9403.5336      0.91620863     0.78431062   
     22300  -4115.159      -4147.9214      32.762401      3357.5293      293.69752      9380.2771      0.91848018     0.78431062   
     22400  -4115.0649     -4147.566       32.501182      2629.9733      291.35584      9378.53        0.91865128     0.78431062   
     22500  -4115.5153     -4148.2253      32.710012      1399.8996      293.22788      9402.11        0.91634735     0.78431062   
     22600  -4116.1592     -4148.6991      32.539973      1278.5394      291.70358      9445.8885      0.91210039     0.78431062   
     22700  -4116.0224     -4148.1419      32.119428      1071.8857      287.93362      9498.1255      0.90708409     0.78431062   
     22800  -4116.3094     -4147.7437      31.434259     -839.56908      281.79143      9545.9257      0.90254197     0.78431062   
     22900  -4115.3549     -4147.5582      32.203324     -366.644        288.6857       9580.377       0.89929641     0.78431062   
     23000  -4114.3264     -4146.8724      32.546012     -1918.0182      291.75772      9597.1503      0.89772467     0.76898696   
     23100  -4113.0065     -4147.1191      34.112669      646.6467       305.80196      9599.25        0.89752831     0.76898696   
     23200  -4113.5824     -4146.0755      32.493124      415.33745      291.2836       9589.0834      0.89847989     0.76898696   
     23300  -4113.736      -4145.9394      32.203387      1598.484       288.68627      9569.7982      0.90029052     0.76898696   
     23400  -4114.2115     -4148.7928      34.581303      1629.261       310.00301      9543.9996      0.90272411     0.76898696   
     23500  -4114.7313     -4147.1099      32.378583      4717.0447      290.2568       9515.7407      0.90540494     0.76898696   
     23600  -4114.6129     -4146.8348      32.221934      1440.524       288.85253      9492.9907      0.90757474     0.76898696   
     23700  -4114.5304     -4147.6481      33.117715     -1331.8436      296.88273      9477.4155      0.90906625     0.76898696   
     23800  -4113.4897     -4145.9284      32.438677      2217.9088      290.79551      9468.1832      0.90995267     0.76898696   
     23900  -4113.6772     -4146.7672      33.090026      769.09576      296.63451      9468.1826      0.90995273     0.76898696   
     24000  -4114.1579     -4148.0052      33.847275     -1886.1234      303.42285      9477.5626      0.90905215     0.89138562   
     24100  -4115.0611     -4147.7818      32.720667      3430.5009      293.3234       9495.7221      0.90731368     0.89138562   
     24200  -4114.7524     -4149.215       34.462632     -811.09907      308.93919      9516.5336      0.90532949     0.89138562   
     24300  -4115.3656     -4147.875       32.509356      1566.2087      291.42911      9528.9092      0.9041537      0.89138562   
     24400  -4115.6378     -4147.0877      31.449834      607.5657       281.93106      9531.7615      0.90388314     0.89138562   
     24500  -4116.4454     -4148.0548      31.609407      766.34823      283.36155      9526.3878      0.90439302     0.89138562   
     24600  -4115.2858     -4147.6751      32.389252      996.26616      290.35244      9510.8357      0.90587187     0.89138562   
     24700  -4115.3472     -4149.0436      33.696438     -698.76759      302.07067      9494.5436      0.90742631     0.89138562   
     24800  -4115.8713     -4147.7862      31.914847      2248.508       286.09966      9479.2725      0.90888817     0.89138562   
     24900  -4116.9662     -4148.5014      31.535172      1558.1664      282.69607      9469.5952      0.90981699     0.89138562   
     25000  -4115.7596     -4148.7889      33.029354      2194.3141      296.09062      9461.214       0.91062295     0.67844811   
     25100  -4115.7311     -4148.2993      32.568253      104.56538      291.95709      9461.2591      0.91061861     0.67844811   
     25200  -4116.694      -4147.7032      31.009136      2460.0841      277.98044      9472.9684      0.90949302     0.67844811   
     25300  -4115.9118     -4147.6073      31.695499      845.13331      284.13331      9488.2463      0.90802856     0.67844811   
     25400  -4116.3844     -4148.0541      31.669686      2444.8987      283.90192      9505.3987      0.90639003     0.67844811   
     25500  -4116.7573     -4149.1577      32.400476      1564.0187      290.45306      9518.5215      0.90514042     0.67844811   
     25600  -4115.0886     -4146.8827      31.794046     -544.73451      285.01674      9522.5521      0.9047573      0.67844811   
     25700  -4113.8874     -4147.2779      33.390465     -7.7969257      299.32779      9521.2334      0.90488262     0.67844811   
     25800  -4113.6964     -4146.6869      32.9905        1614.9446      295.74231      9518.8815      0.90510619     0.67844811   
     25900  -4114.9381     -4148.3391      33.401017      516.53481      299.42238      9516.8592      0.90529853     0.67844811   
     26000  -4113.2171     -4147.8632      34.646048      168.95395      310.58342      9510.5374      0.90590029     0.6491741    
     26100  -4113.3114     -4146.0123      32.700933      1348.8226      293.1465       9500.7128      0.90683708     0.6491741    
     26200  -4112.6835     -4146.9818      34.29828       566.09078      307.46586      9490.8195      0.90778237     0.6491741    
     26300  -4111.8411     -4147.022       35.180901      2444.6863      315.37809      9481.9542      0.90863112     0.6491741    
     26400  -4110.9345     -4145.6628      34.728317      1416.8594      311.32091      9483.0477      0.90852634     0.6491741    
     26500  -4111.1067     -4145.4729      34.366188      794.47116      308.07463      9496.9132      0.90719989     0.6491741    
     26600  -4112.6647     -4145.979       33.314268      182.9208       298.64472      9519.6019      0.9050377      0.6491741    
     26700  -4112.7273     -4146.1217      33.3944        1670.5972      299.36306      9547.7875      0.90236598     0.6491741    
     26800  -4114.5633     -4146.9014      32.338086     -133.06157      289.89376      9574.217       0.89987501     0.6491741    
     26900  -4113.7945     -4146.8148      33.020337      670.9876       296.00978      9589.7186      0.89842037     0.6491741    
     27000  -4113.4141     -4146.6562      33.242118     -201.06966      297.99793      9591.5949      0.89824463     0.80212274   
     27100  -4114.1712     -4147.7953      33.624151      724.05736      301.42266      9583.3035      0.89902178     0.80212274   
     27200  -4113.6977     -4146.969       33.271289      2368.2715      298.25944      9565.8166      0.90066524     0.80212274   
     27300  -4114.1665     -4146.1771      32.010657      2084.2969      286.95854      9542.2331      0.90289123     0.80212274   
     27400  -4114.9889     -4146.9265      31.937643     -732.09088      286.30401      9513.6675      0.90560224     0.80212274   
     27500  -4113.1247     -4146.2357      33.11105       3434.0975      296.82298      9482.5288      0.90857605     0.80212274   
     27600  -4112.9921     -4146.9906      33.998508      2444.2273      304.77857      9459.6363      0.91077482     0.80212274   
     27700  -4114.0266     -4146.7671      32.740525     -933.40364      293.50142      9448.0178      0.91189483     0.80212274   
     27800  -4114.0176     -4146.8064      32.788831      2389.7411      293.93446      9449.2826      0.91177277     0.80212274   
     27900  -4114.1084     -4146.6172      32.50875       998.94085      291.42368      9462.2686      0.91052146     0.80212274   
     28000  -4114.3918     -4147.356       32.964272      542.35963      295.50719      9484.4492      0.90839208     0.81484458   
     28100  -4115.203      -4147.3021      32.099049      2219.8071      287.75093      9508.8937      0.90605688     0.81484458   
     28200  -4114.0387     -4146.5988      32.560106      1121.5959      291.88406      9534.722       0.90360249     0.81484458   
     28300  -4114.8559     -4146.8417      31.985777     -1368.8642      286.7355       9562.1858      0.90100724     0.81484458   
     28400  -4113.6193     -4144.8372      31.217887      3154.1565      279.85177      9586.0617      0.89876311     0.81484458   
     28500  -4115.5903     -4148.1877      32.597435     -721.92162      292.21869      9601.5162      0.89731646     0.81484458   
     28600  -4115.4341     -4146.5267      31.092613     -485.59255      278.72876      9600.4063      0.8974202      0.81484458   
     28700  -4115.526      -4146.9387      31.4127        1869.8341      281.59817      9581.5044      0.89919059     0.81484458   
     28800  -4115.38       -4147.3706      31.990572      3654.8569      286.77848      9544.0776      0.90271674     0.81484458   
     28900  -4115.886      -4148.4072      32.521151      214.39564      291.53484      9495.1971      0.90736385     0.81484458   
     29000  -4115.7937     -4147.6369      31.843186     -257.88835      285.45725      9443.3463      0.91234593     0.7406932    
     29100  -4114.7074     -4147.2386      32.531259      2482.9009      291.62546      9396.898       0.91685561     0.7406932    
     29200  -4114.4035     -4146.1189      31.715352     -119.23639      284.31128      9368.5884      0.91962612     0.7406932    
     29300  -4115.1135     -4147.6898      32.576367      849.98943      292.02983      9360.2814      0.92044226     0.7406932    
     29400  -4114.7116     -4146.3582      31.646593      1841.2143      283.6949       9373.1165      0.91918185     0.7406932    
     29500  -4115.6546     -4148.0647      32.410146      416.36567      290.53974      9412.6986      0.91531652     0.7406932    
     29600  -4115.3497     -4147.75        32.400218      463.08368      290.45075      9467.1544      0.91005156     0.7406932    
     29700  -4115.5118     -4147.2397      31.727869     -399.80659      284.42349      9526.6659      0.90436661     0.7406932    
     29800  -4116.0949     -4147.7977      31.702879      713.90375      284.19947      9577.1539      0.89959905     0.7406932    
     29900  -4114.6624     -4147.3902      32.727827     -1851.8941      293.38759      9607.3892      0.89676794     0.7406932    
     30000  -4113.7966     -4146.4916      32.695028     -652.35445      293.09357      9614.7221      0.89608399     0.69610939   
     30100  -4112.6577     -4145.8708      33.213077      506.11233      297.73759      9601.746       0.89729499     0.69610939   
     30200  -4112.4809     -4145.8318      33.350913     -82.005116      298.97322      9570.5488      0.90021991     0.69610939   
     30300  -4112.3059     -4146.4452      34.139332      2982.269       306.04098      9529.5626      0.90409172     0.69610939   
     30400  -4112.9538     -4146.3891      33.435386      126.14915      299.73048      9488.3205      0.90802146     0.69610939   
     30500  -4113.0708     -4146.8862      33.815379      3441.191       303.13691      9455.7666      0.91114755     0.69610939   
     30600  -4114.253      -4148.9179      34.664855      2270.6233      310.75201      9436.4922      0.91300861     0.69610939   
     30700  -4113.5629     -4146.2189      32.65593       189.40798      292.74307      9433.1155      0.91333543     0.69610939   
     30800  -4114.131      -4146.2319      32.100945     -1226.1113      287.76792      9442.1165      0.91246476     0.69610939   
     30900  -4113.8645     -4145.9038      32.039253      2088.6317      287.21489      9455.8606      0.9111385      0.69610939   
     31000  -4114.6635     -4148.7785      34.115033      725.58991      305.82315      9471.3881      0.90964477     0.85017015   
     31100  -4114.303      -4148.3371      34.034049      523.42342      305.09718      9489.0465      0.90795199     0.85017015   
     31200  -4115.0615     -4146.9805      31.918935      1594.4581      286.1363       9504.6253      0.90646378     0.85017015   
     31300  -4115.588      -4147.6059      32.01787      -1069.3537      287.0232       9514.5629      0.90551701     0.85017015   
     31400  -4115.4782     -4147.4006      31.922383     -1114.7202      286.16721      9517.748       0.90521398     0.85017015   
     31500  -4114.7637     -4147.778       33.014295      2901.6738      295.95562      9514.784       0.90549597     0.85017015   
     31600  -4115.2903     -4146.6343      31.344056      1843.7442      280.98282      9510.1618      0.90593607     0.85017015   
     31700  -4114.3783     -4147.8301      33.45175       164.48018      299.87718      9506.8         0.90625642     0.85017015   
     31800  -4114.2227     -4146.6596      32.436834      750.73305      290.77899      9503.7972      0.90654276     0.85017015   
     31900  -4114.3899     -4147.3662      32.976227      3252.6476      295.61436      9502.8892      0.90662938     0.85017015   
     32000  -4112.9786     -4146.6901      33.711445      1910.7182      302.2052       9506.005       0.90633222     0.75725633   
     32100  -4112.6838     -4145.6244      32.940624      433.73258      295.2952       9510.902       0.90586556     0.75725633   
     32200  -4114.1025     -4146.8785      32.775991      449.36893      293.81935      9512.2592      0.90573631     0.75725633   
     32300  -4113.8873     -4147.0085      33.121255      785.30064      296.91446      9506.3345      0.90630081     0.75725633   
     32400  -4112.7095     -4145.5374      32.827934      5053.2922      294.28499      9494.7544      0.90740616     0.75725633   
     32500  -4113.5668     -4146.797       33.230158     -1237.7954      297.89072      9487.7075      0.90808013     0.75725633   
     32600  -4113.4273     -4147.3322      33.904837      1453.2128      303.93886      9482.4101      0.90858743     0.75725633   
     32700  -4113.6349     -4146.6474      33.012543      3197.3195      295.93992      9477.9826      0.90901186     0.75725633   
     32800  -4113.3499     -4146.6888      33.338929      2232.2628      298.86579      9477.545       0.90905383     0.75725633   
     32900  -4113.2425     -4145.5973      32.3548       -876.14962      290.0436       9481.3861      0.90868556     0.75725633   
     33000  -4113.0408     -4147.5748      34.534005      352.67329      309.57901      9489.0077      0.90795569     0.71197501   
     33100  -4113.0233     -4147.8185      34.795126      2851.8238      311.91983      9499.8845      0.90691614     0.71197501   
     33200  -4115.5979     -4147.9042      32.306343      388.64759      289.60921      9516.5772      0.90532535     0.71197501   
     33300  -4114.5223     -4146.3249      31.802681     -860.88391      285.09415      9530.665       0.90398714     0.71197501   
     33400  -4115.4205     -4148.5024      33.081972      1633.7695      296.56231      9538.8546      0.90321102     0.71197501   
     33500  -4115.7887     -4148.1461      32.357378     -66.325315      290.06671      9535.4874      0.90352996     0.71197501   
     33600  -4115.9213     -4147.7487      31.827439     -932.2305       285.31609      9518.3525      0.9051565      0.71197501   
     33700  -4115.8318     -4146.7705      30.938692      862.53362      277.34894      9485.8468      0.90825825     0.71197501   
     33800  -4115.3609     -4148.7121      33.351186      727.48078      298.97567      9443.3978      0.91234096     0.71197501   
     33900  -4115.6211     -4148.8492      33.228137      2527.9322      297.8726       9402.0293      0.91635521     0.71197501   
     34000  -4114.4907     -4147.5214      33.030653      3363.8711      296.10226      9377.2342      0.91877822     0.81010617   
     34100  -4114.6638     -4146.5417      31.877872      3354.5862      285.76819      9373.1583      0.91917775     0.81010617   
     34200  -4114.884      -4147.2967      32.412681      1021.72        290.56247      9390.8364      0.91744741     0.81010617   
     34300  -4113.7623     -4147.1301      33.367806      1793.5617      299.12466      9423.3976      0.9142773      0.81010617   
     34400  -4114.0869     -4147.1393      33.052418     -2425.7051      296.29738      9467.323       0.91003535     0.81010617   
     34500  -4114.4154     -4147.6891      33.273723      968.13919      298.28125      9508.7178      0.90607365     0.81010617   
     34600  -4114.2653     -4147.977       33.711699      1918.3612      302.20747      9543.8434      0.90273889     0.81010617   
     34700  -4114.8049     -4146.7934      31.988513     -1416.1202      286.76003      9566.7793      0.90057462     0.81010617   
     34800  -4115.19       -4147.7582      32.568254     -2088.4748      291.9571       9573.6734      0.8999261      0.81010617   
     34900  -4114.8945     -4147.3647      32.470172      77.243197      291.07785      9566.7682      0.90057566     0.81010617   
     35000  -4115.7471     -4147.7502      32.003093      1273.8115      286.89073      9546.2091      0.90251517     0.76548854   
     35100  -4114.3271     -4146.6765      32.3494        2725.2017      289.99519      9509.1534      0.90603214     0.76548854   
     35200  -4115.081      -4147.6794      32.598328     -950.60424      292.2267       9465.0597      0.91025296     0.76548854   
     35300  -4113.8216     -4146.3229      32.501302      1635.7206      291.35691      9417.7917      0.91482153     0.76548854   
     35400  -4112.7793     -4145.7595      32.980254      2027.2701      295.65046      9382.0796      0.91830371     0.76548854   
     35500  -4113.2939     -4145.7945      32.500663      3482.6316      291.35118      9369.6679      0.91952016     0.76548854   
     35600  -4113.5873     -4145.9846      32.397287      509.03257      290.42448      9380.9296      0.9184163      0.76548854   
     35700  -4115.6828     -4147.6468      31.963983      1113.9632      286.54013      9408.9573      0.91568048     0.76548854   
     35800  -4114.9735     -4148.1289      33.155358      3084.8952      297.22017      9448.1371      0.91188331     0.76548854   
     35900  -4115.6015     -4146.8604      31.258893     -19.357405      280.21938      9492.6354      0.90760871     0.76548854   
     36000  -4116.8012     -4148.019       31.217723     -941.4909       279.85031      9541.2277      0.90298638     0.71082291   
     36100  -4115.1819     -4147.1385      31.956632     -2813.3552      286.47424      9583.5119      0.89900223     0.71082291   
     36200  -4114.2156     -4146.3365      32.120858     -1295.7579      287.94643      9610.5337      0.89647452     0.71082291   
     36300  -4114.5567     -4146.0984      31.541729      3249.0182      282.75485      9617.9199      0.89578606     0.71082291   
     36400  -4113.5269     -4145.5965      32.069621     -1510.8393      287.48712      9602.775       0.89719884     0.71082291   
     36500  -4112.9983     -4147.5617      34.563468     -303.34247      309.84313      9569.081       0.900358       0.71082291   
     36600  -4113.1249     -4145.9036      32.778684      989.49821      293.84349      9521.9094      0.90481837     0.71082291   
     36700  -4112.2115     -4146.6067      34.395186      2058.1575      308.33457      9477.3117      0.90907621     0.71082291   
     36800  -4111.4649     -4144.9435      33.478597      4296.7559      300.11784      9448.9445      0.9118054      0.71082291   
     36900  -4111.6994     -4144.0937      32.39434       1084.4103      290.39806      9438.6231      0.91280248     0.71082291   
     37000  -4111.9616     -4145.8082      33.846607      1047.9568      303.41685      9440.3826      0.91263235     0.72908924   
     37100  -4111.678      -4145.659       33.980959      590.78776      304.62125      9453.2692      0.91138826     0.72908924   
     37200  -4112.1473     -4147.1231      34.975866      726.01184      313.54007      9479.7372      0.90884361     0.72908924   
     37300  -4111.138      -4145.2878      34.149759     -1610.0644      306.13445      9513.0193      0.90566395     0.72908924   
     37400  -4112.0444     -4146.1772      34.132708      802.88206      305.9816       9552.1211      0.90195659     0.72908924   
     37500  -4112.6183     -4145.353       32.734725      2319.9355      293.44943      9587.874       0.89859323     0.72908924   
     37600  -4113.9941     -4146.7331      32.738949      2627.5095      293.48729      9611.5062      0.89638382     0.72908924   
     37700  -4112.742      -4146.0081      33.266115      1732.2152      298.21305      9617.2816      0.89584551     0.72908924   
     37800  -4113.6127     -4146.7015      33.088783      1828.7727      296.62336      9603.814       0.89710177     0.72908924   
     37900  -4114.172      -4146.5527      32.380696     -166.73393      290.27574      9573.6217      0.89993096     0.72908924   
     38000  -4113.1446     -4146.884       33.739322     -213.66516      302.4551       9532.791       0.90378553     0.67737902   
     38100  -4112.9704     -4146.8567      33.88627       1865.5212      303.77242      9487.6075      0.90808969     0.67737902   
     38200  -4113.2201     -4146.8754      33.65535       5629.8271      301.70234      9450.7967      0.91162669     0.67737902   
     38300  -4115.3427     -4146.9428      31.600133      2513.1132      283.27841      9425.6545      0.91405839     0.67737902   
     38400  -4114.6566     -4147.3599      32.703282      1609.0594      293.16756      9412.6305      0.91532315     0.67737902   
     38500  -4115.6864     -4147.8782      32.191806      1374.7347      288.58245      9412.6616      0.91532013     0.67737902   
     38600  -4115.2963     -4148.3731      33.076773      2783.0105      296.5157       9426.7876      0.91394852     0.67737902   
     38700  -4114.5674     -4147.7767      33.209274      4371.5971      297.70351      9454.0002      0.91131779     0.67737902   
     38800  -4114.5001     -4148.6749      34.174777      2061.7661      306.35873      9494.9892      0.90738371     0.67737902   
     38900  -4114.2522     -4146.2396      31.987461      1647.5754      286.7506       9538.9705      0.90320005     0.67737902   
     39000  -4113.4014     -4146.0124      32.611036     -1106.0079      292.34062      9578.8696      0.89943793     0.73606093   
     39100  -4112.2678     -4146.8212      34.553388      912.41619      309.75277      9606.7123      0.89683113     0.73606093   
     39200  -4111.0688     -4145.3481      34.279248      2340.1169      307.29526      9621.4793      0.89545467     0.73606093   
     39300  -4111.8678     -4145.5861      33.718338     -318.02353      302.26699      9621.343       0.89546736     0.73606093   
     39400  -4113.8713     -4145.8896      32.018295     -13.427962      287.02701      9604.4523      0.89704216     0.73606093   
     39500  -4112.9607     -4147.2653      34.304601      6.6668361      307.52253      9574.8242      0.89981794     0.73606093   
     39600  -4113.9921     -4146.6668      32.674701     -309.63691      292.91134      9532.1567      0.90384568     0.73606093   
     39700  -4113.8798     -4147.1003      33.220595      894.59787      297.80499      9481.184       0.90870492     0.73606093   
     39800  -4113.3082     -4145.3654      32.057218      387.58622      287.37593      9435.1254      0.91314087     0.73606093   
     39900  -4113.7579     -4146.7323      32.97446       775.25872      295.59852      9403.5042      0.91621149     0.73606093   
     40000  -4112.4883     -4146.5153      34.026996      4368.9115      305.03395      9391.1086      0.91742082     0.86326266   
     40100  -4111.6546     -4145.7242      34.069548      630.07385      305.41541      9399.2811      0.91662315     0.86326266   
     40200  -4110.7391     -4144.9583      34.219254      3070.4544      306.75744      9429.0006      0.91373402     0.86326266   
     40300  -4111.9973     -4147.7237      35.726482      2543.5369      320.26894      9480.3406      0.90878576     0.86326266   
     40400  -4111.1814     -4144.8766      33.69516       438.74429      302.05921      9543.4467      0.90277641     0.86326266   
     40500  -4111.5759     -4144.503       32.927062     -2005.2897      295.17363      9606.512       0.89684982     0.86326266   
     40600  -4112.0118     -4146.1876      34.17581       958.91088      306.36798      9653.0053      0.89253019     0.86326266   
     40700  -4111.2314     -4143.9987      32.767247      2502.8927      293.74096      9672.4612      0.89073489     0.86326266   
     40800  -4110.801      -4144.2424      33.441347     -1065.8605      299.78392      9670.2833      0.89093549     0.86326266   
     40900  -4111.517      -4144.8827      33.365741      1323.36        299.10615      9642.584       0.89349479     0.86326266   
     41000  -4112.1886     -4145.5377      33.349089     -2605.4405      298.95687      9590.5156      0.89834571     0.85214929   
     41100  -4111.1441     -4145.9726      34.82844       422.91324      312.21847      9526.1374      0.90441679     0.85214929   
     41200  -4110.9023     -4144.4633      33.560971      3296.1512      300.85629      9467.2226      0.910045       0.85214929   
     41300  -4110.137      -4145.4964      35.359412      3058.7773      316.97835      9424.956       0.91412613     0.85214929   
     41400  -4109.7994     -4145.5723      35.772909      4810.3041      320.68513      9407.0944      0.91586182     0.85214929   
     41500  -4111.1089     -4146.2111      35.102237     -172.02023      314.67291      9414.9704      0.91509566     0.85214929   
     41600  -4111.7742     -4144.8583      33.084086      1954.4916      296.58126      9439.4167      0.91272573     0.85214929   
     41700  -4111.9904     -4145.2471      33.256708      443.87413      298.12873      9472.5722      0.90953106     0.85214929   
     41800  -4109.9467     -4145.7506      35.803863      2891.4793      320.96262      9507.3692      0.90620217     0.85214929   
     41900  -4112.067      -4144.5721      32.505132     -51.853947      291.39124      9537.4881      0.90334043     0.85214929   
     42000  -4111.1185     -4144.8022      33.683732      2856.1049      301.95676      9560.0386      0.9012096      0.72523246   
     42100  -4111.6747     -4147.2283      35.553629     -807.63643      318.71941      9570.8649      0.90019017     0.72523246   
     42200  -4113.1336     -4146.6613      33.527692      198.1595       300.55795      9571.0858      0.90016941     0.72523246   
     42300  -4113.7158     -4146.9661      33.250343      1209.8499      298.07166      9560.0336      0.90121007     0.72523246   
     42400  -4114.4746     -4147.2706      32.796         773.39816      293.99872      9536.8446      0.90340138     0.72523246   
     42500  -4114.9543     -4147.5878      32.63348      -13.82441       292.54182      9508.1693      0.90612591     0.72523246   
     42600  -4114.4595     -4147.4412      32.981686      2545.7107      295.6633       9478.792       0.90893424     0.72523246   
     42700  -4114.8038     -4147.6285      32.824694      590.23512      294.25595      9455.6783      0.91115606     0.72523246   
     42800  -4115.8657     -4148.486       32.620235      3155.4522      292.42308      9443.6323      0.91231831     0.72523246   
     42900  -4115.9859     -4148.9836      32.997697      988.09232      295.80683      9440.1284      0.91265693     0.72523246   
     43000  -4114.9956     -4147.5275      32.531904      2597.0563      291.63124      9444.3656      0.91224747     0.7775807    
     43100  -4113.6906     -4146.9719      33.281277      3147.4634      298.34897      9455.4751      0.91117564     0.7775807    
     43200  -4114.1125     -4147.5641      33.451676      1526.779       299.87651      9474.8216      0.90931513     0.7775807    
     43300  -4112.8031     -4145.8147      33.011583      1938.6008      295.93131      9494.1093      0.90746781     0.7775807    
     43400  -4112.9805     -4145.324       32.343474     -1515.217       289.94206      9509.9117      0.9059599      0.7775807    
     43500  -4114.6327     -4145.9616      31.328922      52.660302      280.84715      9522.1225      0.90479813     0.7775807    
     43600  -4114.4648     -4147.6731      33.208353      102.06274      297.69525      9526.8042      0.90435349     0.7775807    
     43700  -4114.9859     -4146.8712      31.885272      1067.5566      285.83453      9527.0565      0.90432954     0.7775807    
     43800  -4116.0573     -4148.288       32.230656      1328.5334      288.93072      9523.5199      0.90466536     0.7775807    
     43900  -4115.628      -4148.6622      33.034181     -90.635384      296.13389      9512.2058      0.9057414      0.7775807    
     44000  -4114.0723     -4146.7363      32.663979      795.30222      292.81523      9496.9703      0.90719444     0.74692336   
     44100  -4113.758      -4146.1501      32.392077      1049.1129      290.37777      9489.023       0.90795423     0.74692336   
     44200  -4113.7448     -4146.2976      32.552838      3264.8344      291.8189       9482.3276      0.90859533     0.74692336   
     44300  -4113.239      -4146.3032      33.064178      1149.5979      296.4028       9480.984       0.9087241      0.74692336   
     44400  -4112.0549     -4147.351       35.29611       3238.366       316.41088      9487.8546      0.90806604     0.74692336   
     44500  -4113.6081     -4146.7888      33.180743      1371.5595      297.44774      9496.6031      0.90722951     0.74692336   
     44600  -4114.8306     -4146.5557      31.725059      1204.2552      284.3983       9504.8029      0.90644685     0.74692336   
     44700  -4115.3914     -4147.3036      31.912226      2755.2695      286.07616      9507.2389      0.90621459     0.74692336   
     44800  -4117.679      -4149.7522      32.073218      2170.2398      287.51937      9507.4293      0.90619644     0.74692336   
     44900  -4117.7782     -4149.0242      31.245952     -195.06522      280.10336      9506.6491      0.90627081     0.74692336   
     45000  -4115.4381     -4147.9687      32.530529      357.492        291.61891      9502.5582      0.90666096     0.7652029    
     45100  -4114.3196     -4147.0084      32.688813      2253.5691      293.03785      9502.3054      0.90668509     0.7652029    
     45200  -4114.0924     -4147.3907      33.298324      1501.3238      298.50179      9506.4129      0.90629333     0.7652029    
     45300  -4113.8644     -4146.8776      33.013227      2636.6033      295.94605      9513.2575      0.90564127     0.7652029    
     45400  -4115.2466     -4147.5206      32.274092      916.79281      289.32009      9523.798       0.90463895     0.7652029    
     45500  -4116.106      -4148.2866      32.180611      276.14285      288.48208      9533.3045      0.90373685     0.7652029    
     45600  -4116.9085     -4148.2169      31.308431     -1678.4977      280.66346      9537.0569      0.90338127     0.7652029    
     45700  -4115.668      -4147.7939      32.125917      2712.018       287.99178      9532.8003      0.90378465     0.7652029    
     45800  -4115.1858     -4146.4301      31.244374      2739.7299      280.08922      9523.1811      0.90469755     0.7652029    
     45900  -4114.8041     -4147.3173      32.513201      1595.8062      291.46358      9514.9753      0.90547777     0.7652029    
     46000  -4115.1919     -4148.1143      32.92239       1376.2328      295.13175      9512.2538      0.90573683     0.78778764   
     46100  -4114.8691     -4146.786       31.916877      316.0274       286.11786      9507.73        0.90616778     0.78778764   
     46200  -4113.7706     -4146.9308      33.160238      648.097        297.26392      9499.359       0.90696631     0.78778764   
     46300  -4113.9467     -4145.8409      31.894194      137.65124      285.91451      9490.1949      0.90784211     0.78778764   
     46400  -4113.8509     -4147.0221      33.171208      3272.2444      297.36226      9488.6034      0.90799438     0.78778764   
     46500  -4114.033      -4148.931       34.898048      304.99368      312.84246      9500.0721      0.90689823     0.78778764   
     46600  -4114.6257     -4146.9977      32.371975      3073.5552      290.19756      9523.3075      0.90468554     0.78778764   
     46700  -4113.9053     -4146.4103      32.504997      3844.5407      291.39004      9550.137       0.90214398     0.78778764   
     46800  -4114.0175     -4145.0517      31.034167      1180.0984      278.20482      9570.93        0.90018406     0.78778764   
     46900  -4114.4444     -4146.6178      32.173457     -911.35509      288.41796      9576.9683      0.89961648     0.78778764   
     47000  -4114.0344     -4147.5007      33.466244      1947.5608      300.0071       9567.5215      0.90050475     0.71254222   
     47100  -4113.9965     -4148.0343      34.037781     -392.15591      305.13063      9548.0215      0.90234386     0.71254222   
     47200  -4113.4903     -4147.6967      34.206402     -151.21479      306.64223      9524.1947      0.90460127     0.71254222   
     47300  -4113.0935     -4145.6024      32.50887       1163.8854      291.42475      9500.49        0.90685834     0.71254222   
     47400  -4113.1569     -4146.9445      33.787627     -140.08528      302.88814      9476.9597      0.90910997     0.71254222   
     47500  -4114.2583     -4147.9361      33.677757      1853.2         301.9032       9450.831       0.91162339     0.71254222   
     47600  -4114.6342     -4147.5142      32.879995      2294.4027      294.75169      9427.598       0.91386996     0.71254222   
     47700  -4114.4084     -4146.4014      31.992993      3085.9055      286.8002       9418.5528      0.9147476      0.71254222   
     47800  -4115.467      -4148.0517      32.584753      717.84629      292.105        9431.3893      0.9135026      0.71254222   
     47900  -4113.4669     -4146.2648      32.797875      3638.8557      294.01553      9457.8319      0.91094858     0.71254222   
     48000  -4113.2397     -4144.695       31.455315      2224.2488      281.98019      9489.4248      0.90791579     0.91038592   
     48100  -4113.4662     -4146.4842      33.018007     -1328.8661      295.9889       9521.5964      0.90484812     0.91038592   
     48200  -4114.2652     -4147.3172      33.052007     -453.09607      296.29369      9549.2974      0.9022233      0.91038592   
     48300  -4113.7717     -4146.3279      32.556156     -106.85461      291.84865      9573.0497      0.89998474     0.91038592   
     48400  -4113.0624     -4146.5151      33.452672     -263.42493      299.88544      9588.8862      0.89849836     0.91038592   
     48500  -4113.1789     -4146.0712      32.892312      240.07897      294.8621       9593.6743      0.89804994     0.91038592   
     48600  -4114.2647     -4147.32        33.055309     -939.53343      296.32329      9587.7442      0.89860539     0.91038592   
     48700  -4113.7141     -4146.458       32.743947      2251.7234      293.53209      9570.7413      0.9002018      0.91038592   
     48800  -4112.943      -4145.5162      32.573182     -651.90948      292.00127      9544.9401      0.90263516     0.91038592   
     48900  -4112.6765     -4145.8545      33.177999      1228.6784      297.42314      9513.329       0.90563446     0.91038592   
     49000  -4113.3815     -4146.3679      32.986379      2734.6131      295.70537      9481.0937      0.90871358     0.66556872   
     49100  -4113.2839     -4146.4812      33.197256     -1323.8744      297.59577      9454.7974      0.91124096     0.66556872   
     49200  -4112.8392     -4145.6154      32.776168      3468.0746      293.82094      9441.1221      0.91256087     0.66556872   
     49300  -4113.5564     -4146.7998      33.243486      3374.6805      298.0102       9448.4659      0.91185158     0.66556872   
     49400  -4113.6349     -4147.1161      33.481147      2155.0712      300.1407       9472.0393      0.90958222     0.66556872   
     49500  -4113.245      -4144.9847      31.739634     -205.07744      284.52897      9504.1529      0.90650883     0.66556872   
     49600  -4113.6901     -4145.8017      32.111556     -581.57608      287.86305      9540.7009      0.90303623     0.66556872   
     49700  -4112.9424     -4147.2777      34.33533      -915.46223      307.798        9574.6027      0.89983875     0.66556872   
     49800  -4112.2133     -4146.3788      34.165451     -402.08775      306.27513      9594.4786      0.89797465     0.66556872   
     49900  -4111.9182     -4145.4022      33.483929      1779.4914      300.16564      9602.5685      0.89721813     0.66556872   
     50000  -4114.0038     -4147.0613      33.057506      1929.9497      296.34298      9600.5866      0.89740336     0.71967756   
     50100  -4113.1134     -4147.3653      34.25182       97.503533      307.04938      9584.4223      0.89891684     0.71967756   
     50200  -4112.5548     -4146.2697      33.71482       2257.1433      302.23546      9554.6239      0.90172033     0.71967756   
     50300  -4113.2376     -4146.1707      32.933117      1441.965       295.2279       9514.5922      0.90551422     0.71967756   
     50400  -4112.6341     -4146.6069      33.972769      1281.5878      304.54783      9473.3999      0.90945159     0.71967756   
     50500  -4112.6512     -4145.7585      33.107364     -2466.0975      296.78993      9441.5583      0.91251871     0.71967756   
     50600  -4113.0132     -4145.4465      32.433248      4427.2116      290.74684      9421.7666      0.91443557     0.71967756   
     50700  -4111.4632     -4145.319       33.855797      2820.3058      303.49924      9416.2941      0.91496702     0.71967756   
     50800  -4110.4779     -4145.5118      35.033832      1270.9331      314.05969      9428.5521      0.91377748     0.71967756   
     50900  -4112.2612     -4146.9532      34.691971      1198.9442      310.9951       9458.9794      0.91083807     0.71967756   
     51000  -4112.5988     -4147.0052      34.406348      3199.9771      308.43464      9495.3512      0.90734912     1.1192474    
     51100  -4112.6537     -4145.972       33.318348      2923.4547      298.6813       9528.8636      0.90415804     1.1192474    
     51200  -4113.1853     -4146.6826      33.497279      3183.5892      300.28532      9552.2178      0.90194746     1.1192474    
     51300  -4113.572      -4147.1443      33.572376     -2887.1398      300.95852      9564.5452      0.90078497     1.1192474    
     51400  -4112.1391     -4146.6153      34.476149      2719.66        309.06036      9566.416       0.90060882     1.1192474    
     51500  -4110.6248     -4144.6392      34.014412      2289.5773      304.92114      9559.6329      0.90124785     1.1192474    
     51600  -4109.9617     -4143.6142      33.652516      585.51494      301.67694      9546.9634      0.90244387     1.1192474    
     51700  -4110.719      -4144.8801      34.161128      801.18172      306.23637      9526.1811      0.90441264     1.1192474    
     51800  -4111.3032     -4145.7753      34.472095      1696.0802      309.02403      9500.2169      0.90688441     1.1192474    
     51900  -4113.0068     -4144.8548      31.847954      2383.256       285.5          9477.7939      0.90902996     1.1192474    
     52000  -4113.8895     -4147.2968      33.407269      662.07444      299.47842      9460.9028      0.91065291     0.69487834   
     52100  -4114.2771     -4145.9606      31.683497      1711.2964      284.02572      9447.9053      0.91190568     0.69487834   
     52200  -4114.8633     -4146.7153      31.852078      3698.8437      285.53696      9442.2881      0.91244818     0.69487834   
     52300  -4115.5034     -4146.7709      31.267536     -1279.8109      280.29686      9443.5526      0.912326       0.69487834   
     52400  -4115.1157     -4147.4077      32.292035     -626.1344       289.48095      9453.5279      0.91136333     0.69487834   
     52500  -4114.9852     -4147.0603      32.075078      278.36988      287.53604      9469.0802      0.90986647     0.69487834   
     52600  -4114.9555     -4147.694       32.738468      1530.5398      293.48298      9485.0214      0.90833728     0.69487834   
     52700  -4114.6301     -4147.0876      32.457512      1374.9476      290.96435      9498.5191      0.9070465      0.69487834   
     52800  -4114.8529     -4147.6411      32.788167      2491.5753      293.9285       9508.6363      0.90608141     0.69487834   
     52900  -4115.477      -4148.7777      33.300765      726.90244      298.52367      9515.8817      0.90539152     0.69487834   
     53000  -4115.4202     -4147.7075      32.287229      4062.4093      289.43786      9516.2589      0.90535563     0.64177041   
     53100  -4114.6608     -4146.8703      32.209463      153.80633      288.74073      9510.4201      0.90591146     0.64177041   
     53200  -4113.4796     -4145.9895      32.509906     -570.46245      291.43405      9499.0165      0.90699902     0.64177041   
     53300  -4113.5341     -4146.251       32.716892     -76.579534      293.28956      9486.7304      0.90817365     0.64177041   
     53400  -4113.2549     -4146.1417      32.886747      788.81257      294.81222      9474.7317      0.90932376     0.64177041   
     53500  -4112.8371     -4146.026       33.188917      3274.6744      297.52101      9469.0234      0.90987193     0.64177041   
     53600  -4112.693      -4146.7363      34.043298      2410.0764      305.18009      9469.9438      0.90978349     0.64177041   
     53700  -4113.5657     -4146.1348      32.569081      2904.3302      291.96451      9476.5798      0.90914642     0.64177041   
     53800  -4115.4665     -4147.9974      32.530838      926.79487      291.62169      9483.239       0.90850801     0.64177041   
     53900  -4114.6491     -4147.3748      32.725777      3087.6052      293.36921      9481.2131      0.90870213     0.64177041   
     54000  -4113.7939     -4147.0122      33.218298     -756.23522      297.7844       9477.2844      0.90907883     0.75859973   
     54100  -4115.392      -4147.3352      31.943223      167.16137      286.35403      9476.1393      0.90918868     0.75859973   
     54200  -4114.6228     -4147.0612      32.438376      1622.5291      290.79282      9474.4536      0.90935044     0.75859973   
     54300  -4114.6638     -4146.918       32.254224     -798.44324      289.14199      9473.7457      0.90941839     0.75859973   
     54400  -4113.9819     -4146.1491      32.167158      1607.4207      288.36149      9474.8817      0.90930936     0.75859973   
     54500  -4113.0496     -4147.3524      34.302748      294.72585      307.50592      9478.3656      0.90897513     0.75859973   
     54600  -4112.1614     -4146.1526      33.991233     -175.05122      304.71335      9484.8676      0.90835202     0.75859973   
     54700  -4111.5593     -4146.4805      34.921262     -877.51199      313.05057      9497.4573      0.90714792     0.75859973   
     54800  -4111.8409     -4145.2699      33.428935      753.30199      299.67265      9514.1511      0.90555621     0.75859973   
     54900  -4112.3334     -4145.9182      33.584783      4289.8921      301.06974      9531.6111      0.90389741     0.75859973   
     55000  -4113.9391     -4146.8087      32.869598      789.17706      294.65849      9543.8091      0.90274213     0.71249026   
     55100  -4112.9496     -4146.8904      33.940774      1823.1873      304.26102      9544.4267      0.90268372     0.71249026   
     55200  -4112.9819     -4146.2476      33.265714      3759.3508      298.20946      9532.713       0.90379292     0.71249026   
     55300  -4112.5839     -4145.6011      33.017134      745.71742      295.98107      9511.4406      0.90581427     0.71249026   
     55400  -4111.4626     -4146.7052      35.242512      1293.8147      315.9304       9485.7712      0.90826548     0.71249026   
     55500  -4111.6732     -4145.0313      33.358084      3193.9234      299.0375       9464.3017      0.91032586     0.71249026   
     55600  -4112.2535     -4144.7174      32.463913      3055.5272      291.02174      9452.4513      0.91146713     0.71249026   
     55700  -4112.4438     -4146.4006      33.956761      3766.808       304.40433      9452.7179      0.91144142     0.71249026   
     55800  -4113.364      -4146.2631      32.899121      215.95174      294.92315      9467.4444      0.91002368     0.71249026   
     55900  -4113.6661     -4147.093       33.42691       378.24432      299.65449      9491.4803      0.90771916     0.71249026   
     56000  -4114.1685     -4146.609       32.440555      3287.2204      290.81234      9514.6329      0.90551035     0.73321024   
     56100  -4115.0267     -4147.6504      32.623693     -321.8164       292.45409      9533.8217      0.90368782     0.73321024   
     56200  -4114.2663     -4147.3602      33.093945      2939.2693      296.66964      9541.4473      0.90296559     0.73321024   
     56300  -4115.3252     -4147.0059      31.680699     -1276.9356      284.00065      9530.0284      0.90404753     0.73321024   
     56400  -4114.7435     -4148.2271      33.483676      424.71249      300.16337      9503.919       0.90653115     0.73321024   
     56500  -4114.9303     -4146.5103      31.580058      1499.1841      283.09845      9464.1106      0.91034424     0.73321024   
     56600  -4113.613      -4146.3617      32.748712      3160.3032      293.57481      9423.3647      0.9142805      0.73321024   
     56700  -4115.4638     -4148.4224      32.958505      2607.735       295.45549      9395.6585      0.91697656     0.73321024   
     56800  -4115.5305     -4148.1312      32.600697      3888.0778      292.24794      9382.3149      0.91828069     0.73321024   
     56900  -4115.9056     -4149.0558      33.150181      2011.0658      297.17377      9389.0261      0.91762431     0.73321024   
     57000  -4115.6777     -4148.2141      32.536404      1606.3815      291.67158      9407.0414      0.91586698     0.80102839   
     57100  -4114.3657     -4147.2287      32.863036      1108.3021      294.59967      9434.1114      0.91323901     0.80102839   
     57200  -4114.9877     -4147.328       32.340305      3274.0973      289.91366      9469.659       0.90981086     0.80102839   
[...]
    386100  -4114.9535     -4147.6095      32.655998      28.672662      292.74368      9449.6449      0.91173781     0.80499568   
    386200  -4115.4907     -4147.8666      32.375979      1874.2597      290.23346      9469.7569      0.90980146     0.80499568   
    386300  -4115.5946     -4147.2071      31.612527     -1249.5902      283.38951      9495.0514      0.90737777     0.80499568   
    386400  -4114.9096     -4146.2772      31.367595      20.288966      281.19383      9519.7121      0.90502722     0.80499568   
    386500  -4116.6757     -4147.3098      30.634068     -729.89111      274.61815      9538.5802      0.903237       0.80499568   
    386600  -4116.7694     -4147.1156      30.346172      1427.8206      272.03732      9541.724       0.9029394      0.80499568   
    386700  -4116.6889     -4149.4034      32.714448     -93.579286      293.26765      9530.7934      0.90397496     0.80499568   
    386800  -4116.6576     -4149.8581      33.200477      1782.5249      297.62464      9511.4397      0.90581435     0.80499568   
    386900  -4117.3635     -4149.2681      31.90463       1165.6867      286.00807      9488.2716      0.90802613     0.80499568   
    387000  -4115.6397     -4148.0452      32.405524      1670.3765      290.49831      9462.381       0.91051064     0.6616339    
    387100  -4114.3391     -4146.5024      32.16334       2882.6288      288.32727      9441.4478      0.91252939     0.6616339    
    387200  -4113.7344     -4147.4863      33.751907     -1523.4438      302.56792      9430.8365      0.91355614     0.6616339    
    387300  -4112.968      -4145.901       32.933025     -2347.0018      295.22708      9431.373       0.91350417     0.6616339    
    387400  -4113.8935     -4147.1779      33.284398     -336.8915       298.37696      9446.2267      0.91206773     0.6616339    
    387500  -4113.6226     -4146.1291      32.5065        2913.009       291.4035       9471.9238      0.90959331     0.6616339    
    387600  -4112.7976     -4146.7564      33.958769      744.69473      304.42232      9502.3148      0.90668419     0.6616339    
    387700  -4113.0718     -4146.2219      33.150119     -192.34877      297.17321      9528.5699      0.90418591     0.6616339    
    387800  -4112.4839     -4146.2529      33.768925      1299.7753      302.72048      9545.4196      0.90258982     0.6616339    
    387900  -4112.1264     -4146.2561      34.129664     -859.4638       305.95432      9555.4092      0.90164622     0.6616339    
    388000  -4113.664      -4147.3568      33.692734     -2109.2496      302.03747      9556.1421      0.90157707     0.70353047   
    388100  -4114.2612     -4146.0645      31.803299     -209.04689      285.09968      9543.9459      0.90272919     0.70353047   
    388200  -4114.1446     -4146.2947      32.150121      2902.8734      288.20876      9525.2517      0.90450089     0.70353047   
    388300  -4115.5343     -4147.7129      32.178598     -895.45901      288.46404      9505.0246      0.9064257      0.70353047   
    388400  -4115.6488     -4147.3239      31.675132     -89.9689        283.95074      9481.4968      0.90867494     0.70353047   
    388500  -4115.4572     -4146.7381      31.280913      2801.9857      280.41678      9456.3522      0.91109113     0.70353047   
    388600  -4115.3541     -4147.3783      32.024137      2114.0353      287.07938      9435.6263      0.91309239     0.70353047   
    388700  -4114.8701     -4147.8089      32.938735      1347.2604      295.27827      9422.4056      0.91437356     0.70353047   
    388800  -4115.2734     -4148.404       33.130594      1196.1773      296.99818      9420.4536      0.91456303     0.70353047   
    388900  -4116.0532     -4147.913       31.859858      1512.4456      285.60671      9426.2874      0.91399702     0.70353047   
    389000  -4115.7926     -4147.5792      31.786576      1693.3005      284.94977      9441.3049      0.9125432      0.77177384   
    389100  -4115.1929     -4147.5178      32.324899      921.91883      289.77555      9465.0716      0.91025182     0.77177384   
    389200  -4115.1413     -4147.5305      32.389195      56.807795      290.35193      9491.2616      0.90774008     0.77177384   
    389300  -4114.0437     -4148.776       34.732249      3013.5568      311.35616      9523.3346      0.90468296     0.77177384   
    389400  -4114.1938     -4148.5024      34.308548      1016.1224      307.55791      9556.7484      0.90151987     0.77177384   
    389500  -4114.9656     -4147.1104      32.144789     -0.93772534     288.16096      9580.5325      0.89928181     0.77177384   
    389600  -4113.7768     -4146.0176      32.240733      623.64211      289.02105      9590.6864      0.89832972     0.77177384   
    389700  -4115.6798     -4146.2993      30.619464     -808.93874      274.48723      9583.612       0.89899284     0.77177384   
    389800  -4115.0985     -4146.8568      31.758343     -223.7373       284.69667      9560.6934      0.90114788     0.77177384   
    389900  -4114.1609     -4147.7763      33.615465      2820.8798      301.34479      9529.5814      0.90408993     0.77177384   
    390000  -4113.2974     -4146.1614      32.863957      1396.6619      294.60792      9497.0752      0.90718441     0.78414284   
    390100  -4113.0819     -4146.1446      33.062702      1061.0182      296.38957      9470.1414      0.90976451     0.78414284   
    390200  -4114.9252     -4148.879       33.953816      1400.7195      304.37793      9453.7557      0.91134136     0.78414284   
    390300  -4113.7887     -4147.1191      33.330366      1384.678       298.78903      9446.0348      0.91208627     0.78414284   
    390400  -4113.0647     -4147.2756      34.210907      3008.9244      306.68262      9449.769       0.91172584     0.78414284   
    390500  -4113.6309     -4147.1892      33.558236     -997.2655       300.83176      9465.6376      0.91019739     0.78414284   
    390600  -4112.8405     -4147.076       34.235479      1193.5978      306.90289      9486.8375      0.9081634      0.78414284   
    390700  -4114.5136     -4146.6479      32.134379      1773.8557      288.06765      9508.7724      0.90606844     0.78414284   
    390800  -4115.255      -4147.7437      32.488778      2178.3467      291.24464      9529.1657      0.90412938     0.78414284   
    390900  -4115.1838     -4147.0696      31.885772      747.76994      285.83901      9549.2494      0.90222784     0.78414284   
    391000  -4116.5344     -4148.9451      32.410636     -927.7285       290.54414      9563.2521      0.90090677     0.77797707   
    391100  -4115.8487     -4147.0732      31.224472      468.45912      279.91081      9566.1131      0.90063733     0.77797707   
    391200  -4116.1156     -4147.4195      31.303983      559.19967      280.62359      9555.6468      0.9016238      0.77797707   
    391300  -4115.8665     -4148.4624      32.595909     -1643.5086      292.20501      9531.7015      0.90388884     0.77797707   
    391400  -4115.9762     -4148.0155      32.03932       1892.7673      287.21549      9501.4602      0.90676574     0.77797707   
    391500  -4114.3984     -4147.8276      33.429209      523.19599      299.67511      9474.3419      0.90936116     0.77797707   
    391600  -4114.883      -4146.8424      31.959404      1427.8772      286.49908      9451.9976      0.91151087     0.77797707   
    391700  -4115.7235     -4148.3286      32.605118      7.7367211      292.28757      9440.0816      0.91266145     0.77797707   
    391800  -4116.263      -4148.8214      32.558399      2908.7747      291.86875      9436.4088      0.91301668     0.77797707   
    391900  -4114.9329     -4147.4476      32.514779      2089.7059      291.47773      9441.197       0.91255363     0.77797707   
    392000  -4115.2692     -4148.0031      32.733896      2232.0007      293.44199      9453.7832      0.91133871     0.74630049   
    392100  -4115.2523     -4147.7879      32.535653     -478.88655      291.66485      9470.0894      0.90976951     0.74630049   
    392200  -4116.2302     -4147.7867      31.556495     -1378.5934      282.88722      9486.5         0.90819571     0.74630049   
    392300  -4114.3805     -4148.4277      34.047126      675.01914      305.21441      9500.3618      0.90687058     0.74630049   
    392400  -4115.8593     -4148.2055      32.346227      354.73282      289.96675      9509.0661      0.90604045     0.74630049   
    392500  -4115.9534     -4147.3724      31.418989      1582.4157      281.65455      9510.601       0.90589423     0.74630049   
    392600  -4115.5382     -4148.2503      32.71202       4302.856       293.24589      9505.0386      0.90642437     0.74630049   
    392700  -4116.3371     -4148.6831      32.346018      281.45905      289.96487      9494.9921      0.90738344     0.74630049   
    392800  -4116.2934     -4148.9451      32.651728     -138.61792      292.7054       9480.3068      0.90878901     0.74630049   
    392900  -4114.3861     -4147.5919      33.205851      1265.3018      297.67282      9464.4136      0.9103151      0.74630049   
    393000  -4115.083      -4147.0911      32.008016      2364.8378      286.93487      9452.4166      0.91147046     0.67399331   
    393100  -4114.5962     -4146.918       32.321824      446.93619      289.74799      9447.6712      0.91192829     0.67399331   
    393200  -4115.9916     -4147.7133      31.721669      2491.7345      284.36791      9448.7739      0.91182186     0.67399331   
    393300  -4114.2148     -4147.2877      33.072954      426.77518      296.48147      9455.8635      0.91113821     0.67399331   
    393400  -4113.8122     -4147.104       33.291795      5318.1356      298.44326      9467.1315      0.91005376     0.67399331   
    393500  -4113.4473     -4147.4619      34.014653      2234.7008      304.9233       9478.6774      0.90894523     0.67399331   
    393600  -4112.7207     -4146.2567      33.535933     -2195.272       300.63182      9487.6169      0.9080888      0.67399331   
    393700  -4112.4143     -4145.6464      33.232146      1513.8248      297.90854      9493.7594      0.90750126     0.67399331   
    393800  -4114.3061     -4146.185       31.878912      2765.0802      285.77752      9496.7333      0.90721707     0.67399331   
    393900  -4113.7118     -4147.7041      33.992289     -1603.1929      304.72282      9497.6113      0.9071332      0.67399331   
    394000  -4113.6441     -4147.6183      33.974153      1428.748       304.56023      9496.9791      0.90719359     0.72444937   
    394100  -4114.9854     -4147.1702      32.184791      2052.2128      288.51956      9491.5358      0.90771386     0.72444937   
    394200  -4115.4658     -4147.5712      32.105405      1646.1823      287.8079       9480.5331      0.90876731     0.72444937   
    394300  -4114.7156     -4147.9618      33.246202      196.08004      298.03455      9470.0477      0.90977351     0.72444937   
    394400  -4113.3154     -4146.9546      33.639196      1429.8841      301.55752      9461.403       0.91060476     0.72444937   
    394500  -4114.8117     -4148.7285      33.916709      592.54811      304.04529      9460.5037      0.91069132     0.72444937   
    394600  -4114.7702     -4146.7918      32.021609      1810.3549      287.05672      9468.4316      0.9099288      0.72444937   
    394700  -4114.3807     -4146.6194      32.238724     -963.94251      289.00304      9482.4539      0.90858323     0.72444937   
    394800  -4113.1818     -4146.6033      33.421547      1543.1362      299.60642      9496.1491      0.90727288     0.72444937   
    394900  -4113.7593     -4145.1214      31.362067     -2140.0736      281.14428      9508.574       0.90608734     0.72444937   
    395000  -4113.3727     -4146.5877      33.214964     -529.8443       297.75451      9522.8039      0.90473338     0.74367355   
    395100  -4113.7204     -4146.949       33.228631      1046.9345      297.87703      9532.29        0.90383303     0.74367355   
    395200  -4113.9237     -4146.8136      32.889921     -460.92743      294.84068      9537.0131      0.90338542     0.74367355   
    395300  -4113.4655     -4146.8043      33.338755     -1015.6504      298.86423      9537.4641      0.9033427      0.74367355   
    395400  -4113.5444     -4147.0912      33.546797     -296.7661       300.72922      9532.7955      0.90378511     0.74367355   
    395500  -4113.5701     -4145.2864      31.716283      497.07788      284.31963      9519.594       0.90503845     0.74367355   
    395600  -4114.0327     -4145.7         31.667309     -1317.1174      283.8806       9498.0709      0.90708931     0.74367355   
    395700  -4112.0683     -4146.2155      34.147211      1006.9016      306.11161      9472.5767      0.90953062     0.74367355   
    395800  -4112.3266     -4146.2611      33.9345        3670.6024      304.20477      9451.7667      0.91153314     0.74367355   
    395900  -4111.347      -4144.8941      33.547136      282.86343      300.73225      9444.6082      0.91222404     0.74367355   
    396000  -4112.4015     -4144.7842      32.382696      388.09709      290.29367      9455.8195      0.91114245     0.79961617   
    396100  -4113.9561     -4146.7798      32.823678     -116.36362      294.24684      9477.9165      0.9090182      0.79961617   
    396200  -4115.3067     -4148.3997      33.093017      2646.8976      296.66132      9504.3475      0.90649027     0.79961617   
    396300  -4114.88       -4148.3115      33.431466      905.63567      299.69534      9527.0929      0.90432608     0.79961617   
    396400  -4113.3792     -4146.3033      32.924115     -1007.724       295.14721      9545.8121      0.90255271     0.79961617   
    396500  -4112.6895     -4146.9966      34.307079      256.70191      307.54474      9563.9267      0.90084323     0.79961617   
    396600  -4112.598      -4146.5996      34.001564     -773.66059      304.80596      9578.3773      0.89948415     0.79961617   
    396700  -4112.2997     -4145.8397      33.540012      824.4966       300.66839      9586.2704      0.89874354     0.79961617   
    396800  -4112.092      -4145.0484      32.956466     -1009.9936      295.43722      9580.2202      0.89931113     0.79961617   
    396900  -4113.2282     -4146.7475      33.519322      1532.2312      300.48292      9561.5525      0.90106691     0.79961617   
    397000  -4113.4077     -4147.2035      33.795871      1238.7468      302.96204      9531.5782      0.90390053     0.83992599   
    397100  -4113.7823     -4148.2426      34.460333      529.836        308.91859      9502.0369      0.9067107      0.83992599   
    397200  -4113.9876     -4146.9477      32.960069     -1020.0133      295.46952      9473.77        0.90941606     0.83992599   
    397300  -4114.359      -4146.6946      32.335584      845.55397      289.87134      9449.2624      0.91177472     0.83992599   
    397400  -4115.1609     -4147.1747      32.013766      579.97096      286.98641      9428.7764      0.91375575     0.83992599   
    397500  -4114.866      -4147.6883      32.822284      3533.82        294.23435      9418.8058      0.91472303     0.83992599   
    397600  -4114.8606     -4148.2742      33.413601     -1444.8858      299.53519      9431.0162      0.91353873     0.83992599   
    397700  -4115.601      -4148.6013      33.000249     -504.1077       295.8297       9463.5381      0.91039931     0.83992599   
    397800  -4115.4614     -4147.9191      32.457692      3958.9735      290.96597      9505.8934      0.90634286     0.83992599   
    397900  -4114.9561     -4147.8125      32.856413     -272.26954      294.54029      9551.6432      0.90200172     0.83992599   
    398000  -4114.3453     -4147.9108      33.565526      1117.3389      300.89711      9590.8083      0.8983183      0.86603741   
    398100  -4113.2537     -4144.9173      31.663607     -788.42444      283.84742      9612.3863      0.89630174     0.86603741   
    398200  -4113.1799     -4146.0087      32.828818     -1621.9083      294.29292      9614.3284      0.89612069     0.86603741   
    398300  -4114.366      -4147.3863      33.020314      1368.0904      296.00958      9595.8371      0.89784752     0.86603741   
    398400  -4115.2451     -4148.6331      33.388036     -110.44982      299.30601      9561.9375      0.90103064     0.86603741   
    398500  -4114.9075     -4147.0338      32.12625       965.9218       287.99477      9518.0501      0.90518525     0.86603741   
    398600  -4113.6776     -4146.2292      32.551646      792.0643       291.80822      9471.9178      0.9095939      0.86603741   
    398700  -4113.6591     -4147.0511      33.392068     -62.214701      299.34215      9434.3259      0.91321825     0.86603741   
    398800  -4113.1724     -4146.4913      33.318901      3909.9651      298.68625      9411.017       0.91548008     0.86603741   
    398900  -4112.688      -4147.5292      34.84124       1971.7309      312.33321      9409.677       0.91561045     0.86603741   
    399000  -4112.1727     -4145.8796      33.706874      2595.9498      302.16423      9431.9434      0.91344893     0.74095411   
    399100  -4112.1281     -4146.2046      34.076531     -1542.0686      305.478        9473.1154      0.9094789      0.74095411   
    399200  -4113.4558     -4146.2588      32.802993     -1059.148       294.06141      9525.7727      0.90445141     0.74095411   
    399300  -4112.3535     -4145.9933      33.639762     -123.81752      301.5626       9577.5296      0.89956376     0.74095411   
    399400  -4111.7869     -4144.1601      32.373222      1058.9143      290.20874      9619.9004      0.89560164     0.74095411   
    399500  -4114.6838     -4146.7249      32.041083     -781.09678      287.23129      9640.8002      0.89366011     0.74095411   
    399600  -4115.4243     -4147.6575      32.233199     -399.74289      288.95351      9637.4254      0.89397306     0.74095411   
    399700  -4114.6712     -4148.5031      33.831934      758.54557      303.28532      9615.8009      0.89598347     0.74095411   
    399800  -4115.577      -4147.0835      31.506552     -1159.1277      282.43951      9580.1641      0.89931639     0.74095411   
    399900  -4116.0344     -4147.0988      31.064399      1021.3583      278.47584      9533.8456      0.90368556     0.74095411   
    400000  -4116.4987     -4147.7427      31.244054     -522.03506      280.08635      9482.519       0.908577       0.73584349   
    400100  -4117.2633     -4149.1008      31.837509      619.18813      285.40636      9431.4878      0.91349305     0.73584349   
    400191  -4116.3703     -4148.5568      32.186502      4642.8967      288.53489      9394.3371      0.91710554     0.73584349   
Loop time of 500.662 on 2 procs for 200000 steps with 864 atoms

Performance: 17.257 ns/day, 1.391 hours/ns, 399.471 timesteps/s, 345.143 katom-step/s
99.6% CPU use with 2 MPI tasks x 1 OpenMP threads

MPI task timing breakdown:
Section |  min time  |  avg time  |  max time  |%varavg| %total
---------------------------------------------------------------
Pair    | 261.42     | 261.59     | 261.76     |   1.0 | 52.25
Neigh   | 7.4862     | 7.5057     | 7.5251     |   0.7 |  1.50
Comm    | 38.901     | 40.326     | 41.752     |  22.4 |  8.05
Output  | 0.29385    | 0.29701    | 0.30017    |   0.6 |  0.06
Modify  | 187.29     | 188.93     | 190.56     |  11.9 | 37.74
Other   |            | 2.015      |            |       |  0.40

Nlocal:            432 ave         435 max         429 min
Histogram: 1 0 0 0 0 0 0 0 0 1
Nghost:         2204.5 ave        2213 max        2196 min
Histogram: 1 0 0 0 0 0 0 0 0 1
Neighs:              0 ave           0 max           0 min
Histogram: 2 0 0 0 0 0 0 0 0 0
FullNghs:        45414 ave       46055 max       44773 min
Histogram: 1 0 0 0 0 0 0 0 0 1

Total # of neighbors = 90828
Ave neighs/atom = 105.125
Neighbor list builds = 19909
Dangerous builds = 19458
Total wall time: 0:16:43
