LAMMPS (7 Feb 2024 - Update 1)
KOKKOS mode with Kokkos version 4.2.0 is enabled (src/KOKKOS/kokkos.cpp:72)
  will use up to 2 GPU(s) per node
  using 1 OpenMP thread(s) per MPI task
Reading data file ...
  triclinic box = (0 0 0) to (18.047441 22.912981 19.549222) with tilt (-0.10697296 -6.2467562 -0.022549581)
  1 by 2 by 1 MPI processor grid
  reading atoms ...
  1008 atoms
  read_data CPU = 0.009 seconds
ACE/AL version: 2023.11.25
Loading /home/cicn/cicn607503/pd/pot_dir/interim_potential_ladder_step_5.yaml
Total number of basis functions
	H: 24 (r=1) 863 (r>1)
	O: 24 (r=1) 863 (r>1)
Mapping LAMMPS atom type #1(H) -> ACE species type #0
Mapping LAMMPS atom type #2(O) -> ACE species type #1
Loading ASI /home/cicn/cicn607503/pd/pot_dir/interim_potential_ladder_step_5.asi
LINEAR ASI is loaded
Switching to 'neigh_modify every 1 delay 0 check yes' setting during minimization
Neighbor list info ...
  update: every = 1 steps, delay = 0 steps, check = yes
  max neighbors/atom: 2000, page size: 100000
  master list distance cutoff = 6.5
  ghost atom cutoff = 6.5
  binsize = 6.5, bins = 4 4 4
  1 neighbor lists, perpetual/occasional/extra = 1 0 0
  (1) pair pace/extrapolation/kk, perpetual
      attributes: full, newton on, kokkos_device
      pair build: full/bin/kk/device
      stencil: full/bin/3d
      bin: kk/device
Setting up cg/kk style minimization ...
  Unit style    : metal
  Current step  : 0
WARNING: Fix with atom-based arrays not compatible with sending data in Kokkos communication, switching to classic exchange/border communication (src/KOKKOS/comm_kokkos.cpp:666)
WARNING: Fix with atom-based arrays not compatible with Kokkos sorting on device, switching to classic host sorting (src/KOKKOS/atom_kokkos.cpp:218)
Per MPI rank memory allocation (min/avg/max) = 546.3 | 549.6 | 552.9 Mbytes
   Step         TotEng         PotEng         KinEng         Press           Temp          Volume        Density     c_max_pace_gamma
         0  -4827.4078     -4827.4078      0              65842.018      0              8084.0073      1.2433848      0.77404006   
       100  -4869.0901     -4869.0901      0             -8623.4012      0              8084.0073      1.2433848      0.77404006   
       200  -4869.1022     -4869.1022      0             -8586.5226      0              8084.0073      1.2433848      0.77404006   
       300  -4869.1022     -4869.1022      0             -8587.4902      0              8084.0073      1.2433848      0.77404006   
       303  -4869.1022     -4869.1022      0             -8587.5931      0              8084.0073      1.2433848      0.77404006   
Loop time of 1.20606 on 2 procs for 303 steps with 1008 atoms

99.7% CPU use with 2 MPI tasks x 1 OpenMP threads

Minimization stats:
  Stopping criterion = force tolerance
  Energy initial, next-to-last, final = 
     -4827.40775476357  -4869.10223783817  -4869.10223784276
  Force two-norm initial, final = 47.883568 0.00048071696
  Force max component initial, final = 2.283098 3.305506e-05
  Final line search alpha, max atom move = 1 3.305506e-05
  Iterations, force evaluations = 303 605

MPI task timing breakdown:
Section |  min time  |  avg time  |  max time  |%varavg| %total
---------------------------------------------------------------
Pair    | 0.84959    | 0.85888    | 0.86816    |   1.0 | 71.21
Neigh   | 0.0022155  | 0.002245   | 0.0022745  |   0.1 |  0.19
Comm    | 0.11456    | 0.12421    | 0.13386    |   2.7 | 10.30
Output  | 0.00044475 | 0.00044564 | 0.00044653 |   0.0 |  0.04
Modify  | 0.14093    | 0.14239    | 0.14385    |   0.4 | 11.81
Other   |            | 0.0779     |            |       |  6.46

Nlocal:            504 ave         505 max         503 min
Histogram: 1 0 0 0 0 0 0 0 0 1
Nghost:           2652 ave        2655 max        2649 min
Histogram: 1 0 0 0 0 0 0 0 0 1
Neighs:              0 ave           0 max           0 min
Histogram: 2 0 0 0 0 0 0 0 0 0
FullNghs:        73309 ave       73559 max       73059 min
Histogram: 1 0 0 0 0 0 0 0 0 1

Total # of neighbors = 146618
Ave neighs/atom = 145.45437
Neighbor list builds = 6
Dangerous builds = 0
Setting up Verlet run ...
  Unit style    : metal
  Current step  : 303
  Time step     : 0.0005
WARNING: Fix with atom-based arrays not compatible with sending data in Kokkos communication, switching to classic exchange/border communication (src/KOKKOS/comm_kokkos.cpp:666)
WARNING: Fix with atom-based arrays not compatible with Kokkos sorting on device, switching to classic host sorting (src/KOKKOS/atom_kokkos.cpp:218)
Per MPI rank memory allocation (min/avg/max) = 548.7 | 551 | 553.4 Mbytes
   Step         TotEng         PotEng         KinEng         Press           Temp          Volume        Density     c_max_pace_gamma
       303  -4830.7036     -4869.1022      38.398665     -3514.083       295            8084.0073      1.2433848      0.77404006   
       400  -4823.7731     -4844.8015      21.02832       3086.4121      161.5513       8045.1633      1.2493882      0.77404006   
       500  -4815.901      -4839.9244      24.023393      5335.9389      184.56113      7953.3777      1.2638067      0.77404006   
       600  -4810.1564     -4837.8561      27.699689      3552.6352      212.80449      7839.0118      1.2822447      0.77404006   
       700  -4803.4472     -4835.8607      32.413498      4044.0604      249.0186       7737.9523      1.2989912      0.77404006   
       800  -4800.7136     -4834.7056      33.99199       10029.984      261.14546      7673.8792      1.3098371      0.77404006   
       900  -4796.5827     -4831.1621      34.579392      9942.596       265.65821      7662.1318      1.3118453      0.77404006   
      1000  -4796.515      -4832.3601      35.845064      9423.3123      275.38181      7708.2319      1.3039997      0.72357743   
      1100  -4795.3249     -4831.6599      36.334949      4472.2906      279.14538      7797.2486      1.2891126      0.72357743   
      1200  -4794.6304     -4831.9851      37.354618      3846.8345      286.97905      7903.4265      1.2717942      0.72357743   
      1300  -4793.6984     -4828.9925      35.294175      536.33025      271.14957      8003.5472      1.2558846      0.72357743   
      1400  -4791.9582     -4829.069       37.110778      2008.1943      285.10574      8081.2827      1.243804       0.72357743   
      1500  -4793.1917     -4828.2775      35.085751      6895.9793      269.54834      8130.5945      1.2362604      0.72357743   
      1600  -4792.1068     -4829.2391      37.132303      328.24916      285.2711       8150.3462      1.2332644      0.72357743   
      1700  -4791.6569     -4829.7696      38.112657      1378.8397      292.80273      8142.3653      1.2344732      0.72357743   
      1800  -4792.2473     -4829.6374      37.390057      1045.4268      287.25131      8111.5026      1.2391701      0.72357743   
      1900  -4792.2241     -4829.6415      37.417392      2024.8136      287.46131      8061.5902      1.2468423      0.72357743   
      2000  -4793.8786     -4829.9302      36.051547      2825.8371      276.96813      8003.885       1.2558316      0.79259002   
      2100  -4794.4392     -4830.5442      36.104982      6881.7144      277.37865      7948.7683      1.2645395      0.79259002   
      2200  -4794.256      -4830.4393      36.183327      6121.1341      277.98054      7902.3319      1.2719703      0.79259002   
      2300  -4793.7386     -4829.5694      35.830789      6046.9915      275.27214      7870.0008      1.2771958      0.79259002   
      2400  -4794.3258     -4831.3638      37.038041      7549.1415      284.54693      7859.6998      1.2788697      0.79259002   
      2500  -4793.5741     -4829.5352      35.961134      4988.1907      276.27353      7871.9251      1.2768836      0.79259002   
      2600  -4793.4185     -4830.0383      36.619838      5715.6441      281.33406      7905.1233      1.2715212      0.79259002   
      2700  -4794.0452     -4832.1745      38.129243      1308.3785      292.93015      7956.6374      1.2632889      0.79259002   
      2800  -4794.5051     -4832.1384      37.633345      2976.5099      289.12038      8015.5461      1.2540046      0.79259002   
      2900  -4792.3676     -4829.1889      36.821286      781.79601      282.88169      8067.4764      1.2459326      0.79259002   
      3000  -4792.5361     -4829.264       36.727846      365.47523      282.16383      8105.0392      1.2401583      0.7155466    
      3100  -4791.2918     -4827.9267      36.634885      5293.2389      281.44966      8120.3959      1.237813       0.7155466    
      3200  -4790.793      -4828.4453      37.652342      5050.2665      289.26633      8114.9133      1.2386493      0.7155466    
      3300  -4789.8253     -4828.2033      38.377925      7656.7512      294.84066      8091.4157      1.2422464      0.7155466    
      3400  -4790.888      -4829.1025      38.214497      4493.9834      293.58512      8056.5225      1.2476266      0.7155466    
      3500  -4790.7947     -4828.8458      38.051165      3662.6278      292.33031      8013.1227      1.2543838      0.7155466    
      3600  -4790.0907     -4828.8415      38.750811      5380.6159      297.70539      7968.4064      1.2614231      0.7155466    
      3700  -4790.508      -4830.0726      39.564655      6217.44        303.95778      7935.7139      1.2666197      0.7155466    
      3800  -4789.9392     -4828.174       38.234849      7314.8104      293.74148      7915.892       1.2697914      0.7155466    
      3900  -4790.2525     -4828.1794      37.926871      4877.3558      291.37542      7913.9746      1.2700991      0.7155466    
      4000  -4790.7089     -4829.4594      38.750578      3984.4154      297.70359      7929.8526      1.2675559      0.72997934   
      4100  -4791.3646     -4830.7822      39.417526      3664.7174      302.82746      7961.6508      1.2624934      0.72997934   
      4200  -4791.0205     -4829.4146      38.394049      6178.087       294.96454      8008.12        1.2551675      0.72997934   
      4300  -4789.9953     -4828.0848      38.089518      4575.5036      292.62496      8062.9903      1.2466258      0.72997934   
      4400  -4789.3758     -4827.451       38.075141      6603.2528      292.51451      8117.993       1.2381794      0.72997934   
      4500  -4791.6551     -4828.0913      36.436168      2308.4373      279.923        8160.6983      1.2317         0.72997934   
      4600  -4791.3143     -4828.0255      36.711236      673.8141       282.03623      8178.6688      1.2289936      0.72997934   
      4700  -4789.971      -4827.8715      37.900505      824.42775      291.17286      8170.4352      1.2302321      0.72997934   
      4800  -4788.2092     -4827.0541      38.844953      1701.6205      298.42864      8134.1764      1.235716       0.72997934   
      4900  -4789.7108     -4828.4127      38.701923      1738.9772      297.3298       8080.2356      1.2439652      0.72997934   
      5000  -4788.565      -4827.8842      39.319284      5810.1347      302.07271      8016.6888      1.2538259      0.72456013   
      5100  -4789.5784     -4828.2832      38.70481       2081.1185      297.35198      7958.9975      1.2629143      0.72456013   
      5200  -4788.2077     -4827.5268      39.319043      9685.9941      302.07086      7914.5432      1.2700078      0.72456013   
      5300  -4789.5174     -4827.8131      38.29566       5162.8548      294.20866      7892.321       1.2735837      0.72456013   
      5400  -4791.1994     -4829.7559      38.556528      1420.8606      296.21279      7896.0502      1.2729822      0.72456013   
      5500  -4790.7371     -4828.8671      38.130053      5804.4959      292.93637      7926.9718      1.2680166      0.72456013   
      5600  -4790.4745     -4829.0961      38.621592      893.04872      296.71265      7977.4627      1.2599911      0.72456013   
      5700  -4790.129      -4829.997       39.867976      2326.9744      306.28807      8034.2216      1.2510897      0.72456013   
      5800  -4789.3475     -4826.8317      37.484167     -302.13789      287.97431      8091.1522      1.2422868      0.72456013   
      5900  -4788.334      -4828.7497      40.415645      34.12355       310.49557      8137.3324      1.2352367      0.72456013   
      6000  -4789.309      -4828.707       39.398074      2651.3034      302.67802      8166.8184      1.2307769      0.70137406   
      6100  -4789.1499     -4827.9637      38.813805      1502.2925      298.18933      8176.6903      1.229291       0.70137406   
      6200  -4789.7895     -4827.9897      38.200151      4863.0776      293.4749       8162.541       1.2314219      0.70137406   
      6300  -4789.749      -4827.6423      37.893311      5496.9749      291.11759      8124.8381      1.2371362      0.70137406   
      6400  -4790.7897     -4827.2113      36.421547      1493.3678      279.81068      8066.4067      1.2460978      0.70137406   
      6500  -4792.5716     -4828.3473      35.775677      7177.0059      274.84874      7997.3114      1.2568639      0.70137406   
      6600  -4792.2753     -4830.5107      38.235367      5577.6742      293.74545      7935.7895      1.2666076      0.70137406   
      6700  -4791.3859     -4829.4367      38.050843      9218.9636      292.32784      7891.3182      1.2737456      0.70137406   
      6800  -4791.854      -4829.8049      37.950851      8510.8188      291.55964      7872.2536      1.2768303      0.70137406   
      6900  -4792.8359     -4829.1712      36.335289      4820.8395      279.14799      7880.5657      1.2754835      0.70137406   
      7000  -4790.1217     -4826.97        36.848281      3133.9403      283.08908      7911.5107      1.2704946      0.70614758   
      7100  -4789.6421     -4828.7484      39.106341      5635.9305      300.43677      7961.7742      1.2624738      0.70614758   
      7200  -4790.1586     -4827.6837      37.525115      5912.642       288.2889       8025.0904      1.2525132      0.70614758   
      7300  -4790.9027     -4828.1615      37.258851      4381.7605      286.24332      8092.532       1.242075       0.70614758   
      7400  -4789.0382     -4827.7433      38.705083      1478.6467      297.35407      8149.0384      1.2334623      0.70614758   
      7500  -4788.2939     -4827.1926      38.898764      906.99832      298.84204      8183.5588      1.2282592      0.70614758   
      7600  -4788.547      -4827.4882      38.941207     -899.93186      299.16811      8194.863       1.2265649      0.70614758   
      7700  -4788.0684     -4825.8537      37.785293     -2693.8166      290.28773      8177.7113      1.2291375      0.70614758   
      7800  -4787.3447     -4827.0177      39.672992      191.78281      304.79009      8139.7763      1.2348658      0.70614758   
      7900  -4787.6027     -4825.7303      38.127662      2669.8637      292.918        8092.081       1.2421442      0.70614758   
      8000  -4787.8035     -4826.202       38.398533      5222.5005      294.99899      8042.9322      1.2497347      0.78138399   
      8100  -4786.6545     -4825.7552      39.100685      6818.385       300.39331      8000.0083      1.2564402      0.78138399   
      8200  -4786.7364     -4826.5321      39.795713      4625.1628      305.7329       7974.4145      1.2604727      0.78138399   
      8300  -4786.6496     -4826.0865      39.436949      9696.2435      302.97668      7965.9777      1.2618077      0.78138399   
      8400  -4787.5025     -4826.1922      38.689735      5669.6691      297.23616      7976.1869      1.2601926      0.78138399   
      8500  -4790.6294     -4829.2735      38.644069      5659.6652      296.88533      7998.9576      1.2566052      0.78138399   
      8600  -4790.8697     -4829.3938      38.524124      3819.3607      295.96384      8027.6737      1.2521101      0.78138399   
      8700  -4791.0347     -4830.0025      38.967828      858.56662      299.37263      8054.3664      1.2479606      0.78138399   
      8800  -4792.0053     -4829.6126      37.607254      2877.3333      288.91994      8071.5349      1.2453061      0.78138399   
      8900  -4792.1923     -4829.5316      37.339283      5316.9391      286.86123      8076.1569      1.2445934      0.78138399   
      9000  -4793.8859     -4830.8457      36.959813      2048.1443      283.94593      8069.4186      1.2456327      0.71659785   
      9100  -4792.3373     -4829.2756      36.938383     -759.66045      283.7813       8049.1756      1.2487654      0.71659785   
      9200  -4792.2672     -4828.0779      35.810622      1166.3682      275.11721      8022.1156      1.2529777      0.71659785   
      9300  -4790.8175     -4828.2411      37.423557      2750.905       287.50867      7992.4844      1.2576229      0.71659785   
      9400  -4789.4177     -4826.7056      37.287979      9613.8635      286.46709      7964.7274      1.2620057      0.71659785   
      9500  -4788.4302     -4828.9551      40.524883      6173.409       311.3348       7951.5502      1.2640971      0.71659785   
      9600  -4789.7117     -4828.9688      39.257125      2830.7301      301.59517      7955.6747      1.2634418      0.71659785   
      9700  -4790.2247     -4827.5271      37.302351      5299.6245      286.57751      7971.3113      1.2609634      0.71659785   
      9800  -4789.3485     -4827.6818      38.333291      4291.0669      294.49776      7992.4675      1.2576256      0.71659785   
      9900  -4789.8259     -4828.1261      38.300169      3224.3623      294.2433       8020.3776      1.2532492      0.71659785   
     10000  -4790.3046     -4828.1437      37.839168      5592.8702      290.70163      8051.5065      1.2484038      0.85067408   
     10100  -4789.9989     -4828.6794      38.680554      3134.892       297.16563      8080.3045      1.2439546      0.85067408   
     10200  -4788.7815     -4829.3087      40.527217      3769.7116      311.35273      8096.5101      1.2414647      0.85067408   
     10300  -4787.6926     -4827.8067      40.114117      2813.4897      308.17906      8093.6011      1.2419109      0.85067408   
     10400  -4788.3139     -4827.05        38.736167      3159.0717      297.59288      8077.7934      1.2443413      0.85067408   
     10500  -4788.6308     -4827.1002      38.469462      6222.3759      295.5439       8052.7783      1.2482067      0.85067408   
     10600  -4789.4375     -4828.1809      38.743364      5560.8447      297.64817      8018.0927      1.2536063      0.85067408   
     10700  -4788.4778     -4827.6133      39.135465      3718.8654      300.66051      7982.4811      1.2591989      0.85067408   
     10800  -4788.7846     -4827.0971      38.312497      4917.1889      294.33801      7952.8423      1.2638917      0.85067408   
     10900  -4788.5205     -4827.2451      38.72465       4152.9033      297.5044       7934.1141      1.2668751      0.85067408   
     11000  -4788.6468     -4827.9792      39.332439      5491.8457      302.17377      7930.2269      1.2674961      0.74255608   
     11100  -4790.2106     -4829.0934      38.882788      3014.3864      298.7193       7943.0821      1.2654448      0.74255608   
     11200  -4790.2126     -4829.8168      39.604187      6783.6509      304.2615       7971.0671      1.261002       0.74255608   
     11300  -4789.1017     -4827.5911      38.489388      7092.2427      295.69699      8011.445       1.2546465      0.74255608   
     11400  -4789.4004     -4827.1436      37.743216      8414.1743      289.96447      8055.2072      1.2478303      0.74255608   
     11500  -4790.3476     -4828.5161      38.168461      5204.9164      293.23144      8094.5046      1.2417723      0.74255608   
     11600  -4791.5961     -4829.463       37.866896      1831.4281      290.91466      8121.3426      1.2376687      0.74255608   
     11700  -4790.9644     -4829.0009      38.036494      1850.9907      292.2176       8127.4219      1.2367429      0.74255608   
     11800  -4790.8109     -4828.2368      37.425941      2135.2164      287.52699      8112.193       1.2390647      0.74255608   
     11900  -4789.9045     -4828.9103      39.005793      2026.3636      299.6643       8077.4037      1.2444013      0.74255608   
     12000  -4790.4597     -4828.9865      38.526845      5852.4317      295.98475      8029.7686      1.2517835      0.79672833   
     12100  -4791.4018     -4829.1341      37.732231      7155.743       289.88008      7979.1383      1.2597265      0.79672833   
     12200  -4791.9198     -4829.3863      37.466472      9156.1692      287.83837      7934.2866      1.2668476      0.79672833   
     12300  -4793.5742     -4830.768       37.193751      4720.3052      285.74318      7905.1207      1.2715216      0.79672833   
     12400  -4792.2573     -4830.0392      37.781913      3112.9625      290.26176      7897.2485      1.2727891      0.79672833   
     12500  -4790.8129     -4828.7155      37.902646      9245.7061      291.1893       7907.0218      1.2712159      0.79672833   
     12600  -4789.7296     -4827.4554      37.725769      3383.1114      289.83043      7935.9026      1.2665896      0.79672833   
     12700  -4789.1244     -4828.0821      38.957718      3331.1942      299.29496      7977.81        1.2599362      0.79672833   
     12800  -4789.57       -4828.925       39.355047      5500.2552      302.34746      8023.5302      1.2527568      0.79672833   
     12900  -4790.3244     -4827.933       37.60855       2610.2275      288.92989      8060.4822      1.2470137      0.79672833   
     13000  -4790.4798     -4828.9745      38.494719      4466.6563      295.73794      8087.9928      1.2427721      0.76407613   
     13100  -4789.1331     -4827.074       37.940962      2513.3343      291.48367      8105.5851      1.2400748      0.76407613   
     13200  -4788.5615     -4827.8944      39.332891      1554.9431      302.17724      8111.5069      1.2391695      0.76407613   
     13300  -4788.1036     -4827.0649      38.961325      1765.2954      299.32267      8105.8728      1.2400308      0.76407613   
     13400  -4788.9089     -4827.1773      38.268389      3291.4767      293.99915      8090.0669      1.2424535      0.76407613   
     13500  -4789.4162     -4827.9637      38.547452      2535.786       296.14307      8063.9177      1.2464824      0.76407613   
     13600  -4788.4553     -4828.0728      39.617474      5608.4866      304.36357      8030.7768      1.2516263      0.76407613   
     13700  -4788.756      -4828.0506      39.294625      6024.1366      301.88326      8001.8949      1.2561439      0.76407613   
     13800  -4789.237      -4828.1757      38.93864       4629.0529      299.14839      7986.2208      1.2586093      0.76407613   
     13900  -4789.8902     -4827.9378      38.04759       2195.3203      292.30285      7985.2551      1.2587615      0.76407613   
     14000  -4790.7456     -4827.3841      36.638484      6384.2877      281.47731      7995.2342      1.2571904      0.7386867    
     14100  -4790.6942     -4829.552       38.857799      3284.1792      298.52732      8015.1329      1.2540693      0.7386867    
     14200  -4790.0602     -4828.1789      38.118717      1590.4723      292.84928      8040.6725      1.2500859      0.7386867    
     14300  -4790.9554     -4828.4941      37.538724      2211.0371      288.39345      8066.32        1.2461112      0.7386867    
     14400  -4790.9053     -4829.7576      38.852242      3012.3856      298.48464      8085.5383      1.2431494      0.7386867    
     14500  -4791.3475     -4828.9072      37.559635      5757.6576      288.5541       8094.6481      1.2417503      0.7386867    
     14600  -4790.3437     -4826.528       36.184347      2669.1604      277.98837      8094.6315      1.2417528      0.7386867    
     14700  -4790.2264     -4828.3634      38.136985      6159.6934      292.98963      8082.9683      1.2435446      0.7386867    
     14800  -4789.8695     -4827.4507      37.581216      3838.1414      288.7199       8065.9877      1.2461625      0.7386867    
     14900  -4789.5407     -4829.0236      39.482898      5852.074       303.32968      8047.9383      1.2489573      0.7386867    
     15000  -4788.9256     -4828.0956      39.17008       1905.7435      300.92644      8028.8665      1.2519241      0.7124508    
     15100  -4789.5207     -4828.5424      39.021705      5814.3519      299.78654      8008.9953      1.2550303      0.7124508    
     15200  -4788.4323     -4828.2701      39.837788      6610.5699      306.05615      7994.4279      1.2573172      0.7124508    
     15300  -4789.2156     -4827.0302      37.814522      4860.5793      290.51228      7994.5276      1.2573015      0.7124508    
     15400  -4786.9886     -4827.4684      40.479794      6739.9387      310.98839      8009.3885      1.2549687      0.7124508    
     15500  -4787.6349     -4827.0874      39.452467      5258.7096      303.0959       8032.1479      1.2514127      0.7124508    
     15600  -4788.5057     -4827.3805      38.874756      4029.072       298.65759      8060.1997      1.2470574      0.7124508    
     15700  -4789.013      -4827.5958      38.582801      4337.2639      296.41463      8090.093       1.2424495      0.7124508    
     15800  -4789.4879     -4828.2445      38.756578      2736.6476      297.74968      8116.5511      1.2383994      0.7124508    
     15900  -4791.4766     -4829.3565      37.879903     -326.64995      291.01458      8131.0739      1.2361875      0.7124508    
     16000  -4790.1597     -4828.4822      38.322522      4311.256       294.41503      8130.8341      1.2362239      0.73741268   
     16100  -4790.3237     -4829.0996      38.775942      4532.8959      297.89845      8114.4477      1.2387204      0.73741268   
     16200  -4789.8572     -4827.7472      37.890002      5137.0229      291.09217      8081.3835      1.2437885      0.73741268   
     16300  -4789.8386     -4827.9834      38.144782      3702.4752      293.04953      8044.7833      1.2494472      0.73741268   
     16400  -4789.3122     -4828.0488      38.736552      3524.3525      297.59584      8010.1437      1.2548504      0.73741268   
     16500  -4788.9687     -4828.5467      39.577963      3427.7525      304.06003      7988.1414      1.2583067      0.73741268   
     16600  -4789.2668     -4828.3387      39.071969      4450.7673      300.1727       7978.6099      1.2598099      0.73741268   
     16700  -4787.7643     -4827.2194      39.455102      6352.7003      303.11614      7981.7002      1.2593221      0.73741268   
     16800  -4788.6371     -4826.0918      37.454611      3364.2394      287.74725      8001.1003      1.2562687      0.73741268   
     16900  -4788.6823     -4827.5007      38.818435      5105.2099      298.22491      8034.2411      1.2510866      0.73741268   
     17000  -4788.7938     -4827.4198      38.62595       1216.156       296.74613      8071.989       1.245236       0.71608556   
     17100  -4789.4244     -4828.2483      38.823899      1109.9852      298.26688      8110.2809      1.2393568      0.71608556   
     17200  -4789.6591     -4828.7719      39.112777      5819.8328      300.48621      8141.9273      1.2345396      0.71608556   
     17300  -4789.7168     -4828.1316      38.414823      3781.0719      295.12414      8155.6592      1.232461       0.71608556   
     17400  -4788.363      -4827.2837      38.920647      2947.3134      299.01016      8147.8735      1.2336387      0.71608556   
     17500  -4788.256      -4827.2781      39.022112      942.19927      299.78967      8122.2254      1.2375342      0.71608556   
     17600  -4787.9767     -4826.9879      39.011161      2851.9089      299.70554      8080.8827      1.2438656      0.71608556   
     17700  -4787.0436     -4825.9918      38.948209      4705.1979      299.2219       8039.7481      1.2502297      0.71608556   
     17800  -4787.3292     -4827.9387      40.609482      4599.4644      311.98473      8009.6293      1.2549309      0.71608556   
     17900  -4787.148      -4827.8024      40.654438      4817.7427      312.33011      7991.2649      1.2578149      0.71608556   
     18000  -4789.1434     -4828.0219      38.878433      3708.4519      298.68585      7986.7465      1.2585265      0.69025071   
     18100  -4789.5502     -4826.5815      37.031224      6322.1495      284.49456      7994.0449      1.2573774      0.69025071   
     18200  -4791.1882     -4828.4767      37.288482      5182.5502      286.47096      8008.1121      1.2551687      0.69025071   
     18300  -4789.983      -4828.3233      38.340373      1981.1451      294.55217      8024.4699      1.2526101      0.69025071   
     18400  -4790.4857     -4828.5203      38.034534      2873.1291      292.20254      8040.8402      1.2500599      0.69025071   
     18500  -4789.7281     -4827.4296      37.701459      1345.5446      289.64368      8052.2028      1.2482959      0.69025071   
     18600  -4788.9639     -4827.5293      38.565418      5180.9291      296.28109      8054.8762      1.2478816      0.69025071   
     18700  -4788.7969     -4826.6242      37.827252      4930.6505      290.61009      8053.0008      1.2481722      0.69025071   
     18800  -4789.9797     -4827.9929      38.013188      5403.1004      292.03855      8052.7169      1.2482162      0.69025071   
     18900  -4790.4564     -4829.2721      38.815729      3398.1707      298.20412      8051.3693      1.2484251      0.69025071   
     19000  -4788.9455     -4828.1018      39.156338      2600.6511      300.82087      8043.7095      1.249614       0.76206217   
     19100  -4790.979      -4828.1647      37.185659      2186.5052      285.68101      8029.4213      1.2518376      0.76206217   
     19200  -4790.0366     -4827.6224      37.58577       4720.1029      288.75489      8009.9088      1.2548872      0.76206217   
     19300  -4790.4155     -4829.4233      39.007756      2225.546       299.67938      7988.8028      1.2582025      0.76206217   
     19400  -4790.4538     -4828.5969      38.143115      6399.6383      293.03672      7972.5102      1.2607738      0.76206217   
     19500  -4791.7861     -4829.2139      37.42777       7798.4784      287.54104      7968.0564      1.2614785      0.76206217   
     19600  -4791.5993     -4830.3461      38.746825      5524.665       297.67476      7971.8916      1.2608716      0.76206217   
     19700  -4791.1612     -4829.405       38.243809      5414.7647      293.81031      7984.925       1.2588135      0.76206217   
     19800  -4790.6393     -4828.9193      38.280015      4735.0767      294.08846      8003.6248      1.2558724      0.76206217   
     19900  -4790.1637     -4828.8972      38.733532      5759.8673      297.57264      8019.7863      1.2533416      0.76206217   
     20000  -4788.9174     -4828.8002      39.88283       4583.1796      306.40219      8035.6708      1.250864       0.80616091   
     20100  -4788.31       -4827.9157      39.605654      6106.2602      304.27276      8049.9783      1.2486408      0.80616091   
     20200  -4788.1605     -4826.7841      38.623579      2167.9856      296.72791      8063.6194      1.2465285      0.80616091   
     20300  -4788.1769     -4825.7852      37.608319      1936.9108      288.92812      8077.4751      1.2443903      0.80616091   
     20400  -4786.7198     -4827.2883      40.568458      2782.9306      311.66956      8089.2674      1.2425763      0.80616091   
     20500  -4787.9149     -4827.6359      39.720969      673.05083      305.15868      8096.4148      1.2414793      0.80616091   
     20600  -4787.8226     -4826.6811      38.858434      2085.4306      298.53221      8095.2834      1.2416528      0.80616091   
     20700  -4788.6844     -4826.2529      37.568496      1170.1098      288.62218      8089.7163      1.2425073      0.80616091   
     20800  -4789.9898     -4828.4713      38.481552     -203.84616      295.63679      8081.7859      1.2437266      0.80616091   
     20900  -4789.3538     -4827.5552      38.201474      2375.2197      293.48507      8069.3312      1.2456462      0.80616091   
     21000  -4789.1438     -4828.0077      38.863862      1467.4498      298.5739       8057.2279      1.2475174      0.78495207   
     21100  -4790.5401     -4828.175       37.6349        5904.1603      289.13233      8042.3287      1.2498285      0.78495207   
     21200  -4789.3707     -4828.3591      38.988456      7422.0872      299.53111      8029.1926      1.2518733      0.78495207   
     21300  -4788.5839     -4828.3198      39.73592       3890.5708      305.27354      8019.8086      1.2533381      0.78495207   
     21400  -4788.1508     -4828.001       39.850203      4348.5991      306.15153      8016.669       1.253829       0.78495207   
     21500  -4787.7445     -4827.4754      39.730922      5431.0937      305.23514      8027.6054      1.2521208      0.78495207   
     21600  -4788.4502     -4827.1611      38.710875      1541.8468      297.39857      8050.7991      1.2485135      0.78495207   
     21700  -4790.7273     -4828.4684      37.741087      1481.6896      289.94812      8075.9455      1.244626       0.78495207   
     21800  -4790.0196     -4826.3882      36.368604      6580.9282      279.40394      8093.3848      1.2419441      0.78495207   
     21900  -4792.345      -4828.4101      36.065053      3455.5359      277.07189      8105.4495      1.2400955      0.78495207   
     22000  -4792.8381     -4831.3154      38.477335      761.3753       295.60439      8102.2144      1.2405907      0.71497144   
     22100  -4792.7127     -4830.4991      37.786497      3546.8038      290.29698      8080.1231      1.2439825      0.71497144   
     22200  -4792.1142     -4829.8794      37.765237      6542.9812      290.13365      8049.7259      1.24868        0.71497144   
     22300  -4791.0137     -4828.1164      37.102693      5551.5653      285.04362      8016.4481      1.2538635      0.71497144   
     22400  -4790.7698     -4829.146       38.376134      2970.9747      294.8269       7985.9764      1.2586478      0.71497144   
     22500  -4789.9751     -4827.8632      37.888129      5692.7955      291.07778      7964.1612      1.2620955      0.71497144   
     22600  -4789.7483     -4827.6788      37.930488      6185.8698      291.4032       7960.2345      1.262718       0.71497144   
     22700  -4789.4959     -4827.5726      38.076656      6184.961       292.52614      7971.9561      1.2608614      0.71497144   
     22800  -4789.63       -4828.2811      38.651065      5699.3569      296.93908      7994.8471      1.2572513      0.71497144   
     22900  -4788.3848     -4827.7065      39.321768      2989.3445      302.09179      8032.9574      1.2512866      0.71497144   
     23000  -4787.3376     -4826.8712      39.533637      4724.6636      303.71949      8075.2373      1.2447351      0.84325972   
     23100  -4788.4973     -4827.0928      38.595462      5307.8627      296.5119       8111.6371      1.2391496      0.84325972   
     23200  -4787.657      -4825.1688      37.511855      3234.6787      288.18703      8136.7461      1.2353257      0.84325972   
     23300  -4787.1897     -4825.8016      38.611871      2671.692       296.63797      8149.3666      1.2334126      0.84325972   
     23400  -4788.4968     -4828.5663      40.069543      3998.2779      307.83662      8150.4429      1.2332498      0.84325972   
     23500  -4789.1689     -4827.4768      38.307835      2892.7388      294.3022       8134.3559      1.2356887      0.84325972   
     23600  -4787.2115     -4825.8648      38.653321      4221.889       296.95641      8102.7823      1.2405037      0.84325972   
     23700  -4788.3544     -4827.1477      38.793253      1964.5142      298.03145      8068.1671      1.2458259      0.84325972   
     23800  -4788.0723     -4827.0361      38.963805      7659.003       299.34172      8035.3354      1.2509163      0.84325972   
     23900  -4786.6515     -4825.1092      38.457691      6621.497       295.45347      8011.5513      1.2546299      0.84325972   
     24000  -4787.0845     -4828.198       41.113508      3499.1298      315.85694      8000.9685      1.2562894      0.70713633   
     24100  -4789.0402     -4827.2953      38.255076      6332.1205      293.89687      8000.6253      1.2563433      0.70713633   
     24200  -4787.6687     -4826.1011      38.43235       4591.2563      295.25879      8011.6464      1.254615       0.70713633   
     24300  -4787.1332     -4826.8893      39.756101      5828.2561      305.42858      8032.3525      1.2513808      0.70713633   
     24400  -4786.8801     -4827.0941      40.214001      3915.9593      308.94642      8055.7503      1.2477462      0.70713633   
     24500  -4788.1965     -4827.8902      39.693644      4215.2886      304.94875      8074.7772      1.2448061      0.70713633   
     24600  -4787.0364     -4826.3982      39.361829      4315.3868      302.39956      8088.0823      1.2427583      0.70713633   
     24700  -4786.4371     -4826.8813      40.444184      5725.0194      310.71482      8100.1996      1.2408993      0.70713633   
     24800  -4788.7705     -4827.2615      38.491058      1966.5455      295.70981      8107.0453      1.2398514      0.70713633   
     24900  -4790.7535     -4827.9558      37.202288      787.66728      285.80876      8111.8496      1.2391171      0.70713633   
     25000  -4789.5716     -4826.5974      37.025769      6378.4986      284.45265      8107.7943      1.2397369      0.78660289   
     25100  -4791.2562     -4829.7729      38.516689      4385.7701      295.90672      8095.5502      1.2416119      0.78660289   
     25200  -4790.1139     -4827.6348      37.520949      5146.4044      288.25689      8074.2619      1.2448855      0.78660289   
     25300  -4790.3182     -4827.6614      37.343243      2523.6438      286.89166      8048.2708      1.2489057      0.78660289   
     25400  -4789.5731     -4828.0733      38.500281      5483.2257      295.78067      8019.6749      1.253359       0.78660289   
     25500  -4789.9755     -4828.1919      38.216387      7966.4242      293.59964      7999.5935      1.2565053      0.78660289   
     25600  -4790.7149     -4828.5939      37.879031      3617.7812      291.00788      7992.1236      1.2576797      0.78660289   
     25700  -4791.3818     -4828.9571      37.575286      4559.0298      288.67434      7995.5837      1.2571354      0.78660289   
     25800  -4790.5919     -4828.595       38.003154      5931.5348      291.96146      8011.7067      1.2546055      0.78660289   
     25900  -4790.7428     -4828.284       37.541201      7376.0989      288.41248      8034.0425      1.2511176      0.78660289   
     26000  -4791.174      -4828.8949      37.720922      3935.3455      289.7932       8059.8963      1.2471044      0.72878854   
     26100  -4789.9775     -4829.5282      39.550694      2286.8201      303.85053      8077.6309      1.2443663      0.72878854   
     26200  -4790.6643     -4828.1744      37.510108      3568.3292      288.17361      8091.5443      1.2422266      0.72878854   
     26300  -4789.3341     -4828.6294      39.295295      2578.2673      301.88841      8105.2346      1.2401284      0.72878854   
     26400  -4789.9368     -4827.2239      37.287093      3016.079       286.46029      8113.9604      1.2387948      0.72878854   
     26500  -4789.7263     -4827.1032      37.37689       4338.2789      287.15015      8114.4832      1.238715       0.72878854   
     26600  -4789.9821     -4829.1939      39.21182       3860.3396      301.24711      8106.8908      1.2398751      0.72878854   
     26700  -4790.4297     -4828.1199      37.690147      3764.5251      289.55677      8088.9876      1.2426193      0.72878854   
     26800  -4789.6285     -4829.3768      39.748256      1584.1003      305.36832      8060.4512      1.2470185      0.72878854   
     26900  -4790.156      -4829.2423      39.086239      2030.1412      300.28233      8031.0901      1.2515775      0.72878854   
     27000  -4791.2603     -4827.7756      36.515301      3394.809       280.53094      8004.5874      1.2557214      0.79773406   
     27100  -4791.95       -4828.0533      36.103298      2373.6869      277.36571      7982.2915      1.2592288      0.79773406   
     27200  -4790.5769     -4828.477       37.90009       4336.2963      291.16967      7971.796       1.2608867      0.79773406   
     27300  -4790.0716     -4828.0107      37.93913       5527.6054      291.46959      7976.435       1.2601534      0.79773406   
     27400  -4789.9472     -4827.7508      37.803643      4937.6348      290.42871      7999.7737      1.256477       0.79773406   
     27500  -4788.3404     -4827.5452      39.204802      3582.7803      301.19319      8039.1294      1.2503259      0.79773406   
     27600  -4788.8347     -4827.1528      38.318154      5107.7072      294.38147      8089.5684      1.24253        0.79773406   
     27700  -4789.0737     -4827.0255      37.951796      2174.1665      291.5669       8142.6498      1.2344301      0.79773406   
     27800  -4789.814      -4826.9026      37.088643     -663.51656      284.93568      8192.8684      1.2268636      0.79773406   
     27900  -4790.5383     -4827.7203      37.18206       1635.2791      285.65336      8231.7638      1.2210666      0.79773406   
     28000  -4790.5611     -4827.2012      36.640062     -163.55949      281.48943      8251.0515      1.2182122      0.7662621    
     28100  -4789.7207     -4826.6413      36.920618      843.06013      283.64482      8238.7525      1.2200308      0.7662621    
     28200  -4789.9263     -4827.7113      37.784988      3887.3341      290.28539      8190.9914      1.2271447      0.7662621    
     28300  -4788.2844     -4827.0249      38.740448      2790.9309      297.62577      8117.3269      1.238281       0.7662621    
     28400  -4788.5868     -4827.8147      39.227973      4338.3135      301.37121      8033.4477      1.2512102      0.7662621    
     28500  -4787.2999     -4827.7546      40.454673      7225.659       310.7954       7956.7705      1.2632678      0.7662621    
     28600  -4787.8023     -4827.0268      39.224512      7476.2885      301.34462      7907.4405      1.2711486      0.7662621    
     28700  -4786.8871     -4826.652       39.764913      9902.5738      305.49628      7894.3398      1.2732581      0.7662621    
     28800  -4787.856      -4827.3321      39.476124      9121.1426      303.27764      7920.5123      1.2690507      0.7662621    
     28900  -4789.5756     -4827.4764      37.900806      5109.5384      291.17517      7975.3124      1.2603308      0.7662621    
     29000  -4788.7594     -4827.288       38.528559      4333.5396      295.99791      8044.1025      1.2495529      0.69947623   
     29100  -4789.2201     -4826.2033      36.983178     -1037.8605      284.12544      8113.486       1.2388672      0.69947623   
     29200  -4788.6063     -4827.5301      38.923801      1672.7703      299.03439      8165.5154      1.2309733      0.69947623   
     29300  -4788.6418     -4825.9893      37.347548      3662.6256      286.92473      8191.626       1.2270496      0.69947623   
     29400  -4788.7494     -4827.477       38.727674     -102.40006      297.52763      8199.6916      1.2258426      0.69947623   
     29500  -4788.401      -4827.7875      39.386499      162.01333      302.5891       8188.6235      1.2274996      0.69947623   
     29600  -4788.7489     -4826.9929      38.24396       3922.0817      293.81147      8161.6187      1.231561       0.69947623   
     29700  -4789.3327     -4827.5325      38.199884      5678.1103      293.47285      8122.8612      1.2374373      0.69947623   
     29800  -4789.3866     -4827.5268      38.140241      5625.6625      293.01464      8080.6509      1.2439012      0.69947623   
     29900  -4790.4978     -4829.158       38.660243      2612.4056      297.00959      8038.2681      1.2504599      0.69947623   
     30000  -4790.1414     -4827.4361      37.294708      3898.9936      286.51879      7997.9548      1.2567627      0.78673842   
     30100  -4790.4061     -4828.5666      38.160494      3756.5486      293.17024      7966.2373      1.2617665      0.78673842   
     30200  -4791.9025     -4829.3584      37.4559        7149.2068      287.75716      7951.1681      1.2641579      0.78673842   
     30300  -4792.0175     -4829.6874      37.669915      6682.9303      289.40134      7951.4775      1.2641087      0.78673842   
     30400  -4792.8096     -4828.9106      36.101044      1808.1911      277.34839      7969.6463      1.2612268      0.78673842   
     30500  -4791.5474     -4829.8197      38.272316      3385.6994      294.02932      7999.8778      1.2564606      0.78673842   
     30600  -4789.5167     -4828.5848      39.068118      7038.7571      300.14311      8035.8552      1.2508353      0.78673842   
     30700  -4791.479      -4829.811       38.331952      6294.2882      294.48748      8076.88        1.244482       0.78673842   
     30800  -4792.415      -4829.3088      36.893841      5291.5722      283.4391       8117.3118      1.2382833      0.78673842   
     30900  -4791.5128     -4828.7618      37.249009      5578.253       286.1677       8147.3406      1.2337193      0.78673842   
     31000  -4791.0029     -4828.4834      37.48046       3424.7822      287.94583      8157.2694      1.2322177      0.73911875   
     31100  -4790.7974     -4829.3287      38.531295      1381.7008      296.01893      8152.1152      1.2329968      0.73911875   
     31200  -4789.5372     -4826.3016      36.764394     -432.67005      282.44461      8132.7551      1.2359319      0.73911875   
     31300  -4788.9985     -4826.7517      37.753245      1464.1877      290.04153      8098.9009      1.2410982      0.73911875   
     31400  -4787.9096     -4826.5501      38.640574      5225.8168      296.85848      8060.1369      1.2470671      0.73911875   
     31500  -4787.0619     -4826.4866      39.424692      4783.7686      302.88251      8020.7376      1.2531929      0.73911875   
     31600  -4786.3642     -4826.6138      40.249604      7816.7768      309.21995      7986.9407      1.2584958      0.73911875   
     31700  -4784.755      -4825.8588      41.10385       6756.6355      315.78274      7965.4147      1.2618968      0.73911875   
     31800  -4787.7868     -4825.6244      37.837664      5517.787       290.69007      7962.881       1.2622984      0.73911875   
     31900  -4787.9707     -4826.4384      38.467742      8340.0456      295.53069      7980.7897      1.2594658      0.73911875   
     32000  -4789.9053     -4829.285       39.379747      7567.9874      302.53722      8019.6587      1.2533615      0.71648087   
     32100  -4789.8754     -4827.8104      37.93498       3928.5427      291.43771      8069.7493      1.2455817      0.71648087   
     32200  -4789.8218     -4827.2077      37.385922      2202.7638      287.21954      8120.4797      1.2378002      0.71648087   
     32300  -4788.9119     -4827.6876      38.775696      3512.3869      297.89656      8161.1874      1.2316261      0.71648087   
     32400  -4789.2079     -4828.6958      39.487921      1758.4602      303.36827      8187.538       1.2276623      0.71648087   
     32500  -4789.5948     -4828.1016      38.506821     -550.27975      295.83091      8190.1479      1.2272711      0.71648087   
     32600  -4788.9022     -4827.4971      38.59496       1926.2027      296.50805      8167.7477      1.2306369      0.71648087   
     32700  -4788.7304     -4827.4245      38.694097      1615.2591      297.26968      8125.4658      1.2370407      0.71648087   
     32800  -4790.1172     -4828.1515      38.034312      4421.5533      292.20084      8073.2537      1.245041       0.71648087   
     32900  -4790.2697     -4828.4562      38.186495      6796.4378      293.36999      8017.3509      1.2537223      0.71648087   
     33000  -4790.5051     -4828.5953      38.090214      8916.2938      292.63031      7966.9354      1.261656       0.71256875   
     33100  -4790.3434     -4829.1177      38.774287      7546.5451      297.88574      7928.3377      1.2677981      0.71256875   
     33200  -4788.9866     -4827.3854      38.398807      7532.9806      295.00109      7912.0558      1.2704071      0.71256875   
     33300  -4789.708      -4827.4809      37.772886      8009.4253      290.19242      7928.0143      1.2678499      0.71256875   
     33400  -4789.5044     -4828.9964      39.492016      6667.198       303.39974      7971.2938      1.2609662      0.71256875   
     33500  -4790.1202     -4828.0099      37.889639      4374.85        291.08938      8033.2531      1.2512405      0.71256875   
     33600  -4789.7131     -4827.6484      37.935377      5204.4094      291.44076      8103.7157      1.2403608      0.71256875   
     33700  -4788.7793     -4827.2104      38.431013      3123.5432      295.24852      8163.2795      1.2313105      0.71256875   
     33800  -4787.9445     -4827.337       39.39246       1998.2681      302.63489      8198.9189      1.2259582      0.71256875   
     33900  -4788.4167     -4827.8103      39.393676      94.535554      302.64423      8212.3843      1.223948       0.71256875   
     34000  -4787.6044     -4825.9708      38.366364      2026.9346      294.75184      8202.9786      1.2253515      0.80749454   
     34100  -4788.5681     -4827.7986      39.230516      5226.4228      301.39074      8177.3744      1.2291882      0.80749454   
     34200  -4789.3705     -4827.8121      38.441595      4565.5032      295.32981      8134.9109      1.2356044      0.80749454   
     34300  -4789.4072     -4826.9636      37.556385      2175.4645      288.52913      8086.6531      1.242978       0.80749454   
     34400  -4787.5166     -4826.1533      38.636725      4407.6989      296.82891      8038.2515      1.2504625      0.80749454   
     34500  -4787.1002     -4826.3813      39.281109      3045.9445      301.77942      7999.6536      1.2564959      0.80749454   
     34600  -4787.0787     -4825.7995      38.720839      8149.4644      297.47512      7977.3914      1.2600023      0.80749454   
     34700  -4787.3382     -4827.2271      39.888915      5876.8496      306.44893      7976.9685      1.2600691      0.80749454   
     34800  -4788.5297     -4828.0818      39.552087      4052.2039      303.86123      7995.1509      1.2572035      0.80749454   
     34900  -4789.6766     -4828.7087      39.032083      3143.9082      299.86627      8024.5344      1.2526         0.80749454   
     35000  -4790.9009     -4829.0595      38.158611      1363.8959      293.15577      8059.8763      1.2471074      0.68358323   
     35100  -4791.3439     -4828.5124      37.168495      1640.3884      285.54915      8092.1772      1.2421295      0.68358323   
     35200  -4790.3427     -4827.0623      36.719671      1401.5448      282.10103      8114.2737      1.2387469      0.68358323   
     35300  -4789.5866     -4827.2344      37.647838      125.34288      289.23173      8123.4957      1.2373407      0.68358323   
     35400  -4790.294      -4828.4148      38.120822      4463.3114      292.86546      8118.1869      1.2381498      0.68358323   
     35500  -4787.7098     -4826.7544      39.044604      4115.0921      299.96247      8098.2566      1.241197       0.68358323   
     35600  -4788.8431     -4826.6531      37.809957      5004.8765      290.47721      8075.4639      1.2447002      0.68358323   
     35700  -4789.7495     -4827.6669      37.917418      2423.1769      291.3028       8052.4299      1.2482607      0.68358323   
     35800  -4789.1586     -4827.7873      38.628699      2542.2127      296.76725      8030.9085      1.2516058      0.68358323   
     35900  -4788.9712     -4827.6239      38.65273       5109.1073      296.95187      8020.3316      1.2532564      0.68358323   
     36000  -4788.6058     -4827.7133      39.107494      6566.9951      300.44562      8021.7731      1.2530312      0.7646772    
     36100  -4788.4776     -4828.603       40.125398      5437.4491      308.26573      8030.5241      1.2516657      0.7646772    
     36200  -4788.5665     -4827.4351      38.868647      5061.6382      298.61066      8044.5273      1.2494869      0.7646772    
     36300  -4788.0252     -4827.9943      39.96912       5633.812       307.06511      8061.8195      1.2468068      0.7646772    
     36400  -4787.0787     -4826.5216      39.442935      3771.022       303.02266      8080.381       1.2439428      0.7646772    
     36500  -4786.9765     -4827.2009      40.224383      5408.2492      309.02618      8101.8967      1.2406393      0.7646772    
     36600  -4788.1732     -4828.3146      40.141399      4010.4689      308.38866      8122.7524      1.2374539      0.7646772    
     36700  -4786.809      -4825.1453      38.336271      1784.5602      294.52065      8132.4821      1.2359734      0.7646772    
     36800  -4788.1886     -4826.3937      38.20507       3113.3764      293.5127       8133.3176      1.2358464      0.7646772    
     36900  -4786.699      -4826.1656      39.466594      1573.5488      303.20443      8119.956       1.2378801      0.7646772    
     37000  -4787.3649     -4827.2818      39.91692       3800.1543      306.66409      8093.6121      1.2419092      0.71701113   
     37100  -4787.8103     -4827.1904      39.380045      2328.477       302.53951      8061.0608      1.2469242      0.71701113   
     37200  -4787.5098     -4826.1151      38.605222      6730.6033      296.58689      8030.2263      1.2517121      0.71701113   
     37300  -4787.1585     -4827.8035      40.645068      5058.2239      312.25812      8011.5224      1.2546344      0.71701113   
     37400  -4787.4627     -4826.4929      39.030184      4635.5388      299.85168      8007.0538      1.2553346      0.71701113   
     37500  -4786.2689     -4826.0061      39.737245      6868.5578      305.28372      8018.205       1.2535888      0.71701113   
     37600  -4786.9185     -4825.8808      38.962247      5937.2582      299.32975      8045.8015      1.2492891      0.71701113   
     37700  -4787.4542     -4825.6467      38.192498      5021.4205      293.41611      8084.5239      1.2433053      0.71701113   
     37800  -4787.2655     -4825.8518      38.586289      6069.1739      296.44143      8122.7712      1.237451       0.71701113   
     37900  -4787.8455     -4826.7856      38.940114      2910.6271      299.15972      8148.9267      1.2334792      0.71701113   
     38000  -4788.1345     -4826.0337      37.899168      2540.299       291.16258      8154.5281      1.2326319      0.74788925   
     38100  -4787.5303     -4826.79        39.259615      3028.05        301.6143       8140.8224      1.2347072      0.74788925   
     38200  -4787.4151     -4825.7829      38.367811      3205.5054      294.76296      8114.3728      1.2387318      0.74788925   
     38300  -4788.7518     -4827.1446      38.392859      2618.4143      294.9554       8084.9689      1.2432369      0.74788925   
     38400  -4789.3607     -4826.544       37.183311      1733.4088      285.66297      8059.2309      1.2472073      0.74788925   
     38500  -4790.6374     -4829.1602      38.522836      3297.1172      295.95395      8037.4975      1.2505798      0.74788925   
     38600  -4789.8083     -4828.1825      38.37422       6642.7614      294.8122       8017.5875      1.2536853      0.74788925   
     38700  -4788.4713     -4827.5828      39.111493      1936.2214      300.47634      8003.7133      1.2558585      0.74788925   
     38800  -4789.6631     -4828.2132      38.550082      3670.6067      296.16327      7999.9693      1.2564463      0.74788925   
     38900  -4790.6346     -4828.4084      37.773871      3766.7885      290.19998      8007.9274      1.2551977      0.74788925   
     39000  -4792.0639     -4829.9542      37.890253      4574.5217      291.0941       8023.8794      1.2527022      0.73530518   
     39100  -4791.545      -4829.3552      37.81018       4963.6786      290.47893      8041.6394      1.2499356      0.73530518   
     39200  -4792.1943     -4828.0973      35.902997      6477.476       275.82688      8059.971       1.2470928      0.73530518   
     39300  -4792.6035     -4829.2863      36.682787      3447.906       281.81766      8073.3927      1.2450195      0.73530518   
     39400  -4791.193      -4828.8492      37.656177      5054.5038      289.2958       8077.7342      1.2443504      0.73530518   
     39500  -4791.4179     -4828.6881      37.270211      3356.7329      286.33059      8075.9065      1.244632       0.73530518   
     39600  -4791.9759     -4829.0653      37.089411      905.13911      284.94158      8066.1369      1.2461395      0.73530518   
     39700  -4793.4371     -4829.4594      36.022357      3795.8749      276.74388      8045.5823      1.2493231      0.73530518   
     39800  -4791.679      -4829.7016      38.022655      3062.6076      292.11128      8017.4348      1.2537092      0.73530518   
     39900  -4791.1192     -4829.3532      38.233989      2084.5294      293.73487      7992.1959      1.2576683      0.73530518   
     40000  -4792.003      -4830.1251      38.122127      234.76909      292.87548      7977.1783      1.260036       0.74559209   
     40100  -4790.9322     -4829.6855      38.753362      3047.1001      297.72498      7972.6283      1.2607551      0.74559209   
     40200  -4792.3515     -4829.6678      37.316317      8104.5197      286.6848       7981.0491      1.2594249      0.74559209   
     40300  -4789.6514     -4827.7563      38.104934      6318.4557      292.74339      7999.2129      1.2565651      0.74559209   
     40400  -4789.9053     -4828.878       38.972749      2541.4462      299.41043      8020.0448      1.2533012      0.74559209   
     40500  -4789.4069     -4826.1443      36.737373      1856.5348      282.23703      8037.5097      1.2505779      0.74559209   
     40600  -4791.2556     -4827.9511      36.695499      3365.9524      281.91533      8053.6685      1.2480687      0.74559209   
     40700  -4791.355      -4829.6946      38.339586      5299.8641      294.54612      8060.6043      1.2469948      0.74559209   
     40800  -4790.844      -4827.7112      36.867182      3032.5129      283.23429      8061.0734      1.2469222      0.74559209   
     40900  -4789.7471     -4828.1749      38.427822      1691.7014      295.224        8058.8677      1.2472635      0.74559209   
     41000  -4789.0506     -4827.8196      38.768966      1340.006       297.84486      8057.2515      1.2475137      0.78679847   
     41100  -4790.6148     -4827.3666      36.751789      4400.9506      282.34778      8054.716       1.2479064      0.78679847   
     41200  -4789.9863     -4828.1957      38.209322      5862.8588      293.54536      8052.4706      1.2482544      0.78679847   
     41300  -4790.1429     -4828.3408      38.197874      3099.8805      293.45741      8047.2865      1.2490585      0.78679847   
     41400  -4789.5356     -4828.0508      38.515163      5685.2755      295.895        8040.8877      1.2500525      0.78679847   
     41500  -4789.5797     -4828.2565      38.676803      4506.2724      297.13681      8037.9162      1.2505146      0.78679847   
     41600  -4790.4946     -4828.3596      37.865012      6250.0339      290.90018      8038.9355      1.2503561      0.78679847   
     41700  -4789.5224     -4828.0349      38.512448      2676.0943      295.87415      8042.6806      1.2497738      0.78679847   
     41800  -4789.3425     -4826.6305      37.288007      2804.042       286.46731      8050.6271      1.2485402      0.78679847   
     41900  -4789.5156     -4827.2864      37.770783      208.59526      290.17626      8059.0699      1.2472322      0.78679847   
     42000  -4788.7854     -4827.7429      38.95751       2079.9428      299.29336      8067.0968      1.2459912      0.70590293   
     42100  -4789.7197     -4828.4776      38.757892      3852.7486      297.75979      8066.3924      1.2461         0.70590293   
     42200  -4790.2456     -4828.0889      37.843311      1792.5952      290.73346      8058.1197      1.2473793      0.70590293   
     42300  -4789.6228     -4828.317       38.694164      1711.8633      297.27018      8049.128       1.2487727      0.70590293   
     42400  -4790.0658     -4827.2338      37.168004      3765.5486      285.54538      8045.3713      1.2493558      0.70590293   
     42500  -4791.8597     -4828.9333      37.073585      2471.297       284.81999      8047.9334      1.2489581      0.70590293   
     42600  -4791.2831     -4828.9537      37.670617      4743.6654      289.40673      8047.6064      1.2490089      0.70590293   
     42700  -4790.9352     -4828.5406      37.605444      6120.0844      288.90604      8042.328       1.2498286      0.70590293   
     42800  -4790.545      -4828.7721      38.227134      577.50384      293.6822       8035.3936      1.2509072      0.70590293   
     42900  -4789.6445     -4828.6242      38.979723      5966.4763      299.46401      8028.5716      1.2519701      0.70590293   
     43000  -4788.6173     -4827.319       38.701716      3593.2531      297.32821      8022.5822      1.2529048      0.83722941   
     43100  -4789.9823     -4829.7545      39.772191      3960.1648      305.5522       8016.8575      1.2537995      0.83722941   
     43200  -4789.3013     -4827.6701      38.368838      3019.6094      294.77085      8012.1372      1.2545381      0.83722941   
     43300  -4789.4521     -4827.7191      38.266962      3160.7931      293.98818      8019.8793      1.2533271      0.83722941   
     43400  -4791.0366     -4828.8253      37.788773      2245.187       290.31447      8042.0878      1.249866       0.83722941   
     43500  -4790.6133     -4828.4283      37.815021      5271.6755      290.51612      8062.78        1.2466583      0.83722941   
     43600  -4791.43       -4828.7298      37.299816      721.97458      286.55803      8078.9883      1.2441572      0.83722941   
     43700  -4790.0606     -4827.5466      37.485974      3510.5147      287.9882       8088.9725      1.2426216      0.83722941   
     43800  -4788.8249     -4826.8277      38.002807      5551.1596      291.9588       8093.6312      1.2419063      0.83722941   
     43900  -4788.9515     -4827.003       38.051422      4759.7389      292.33228      8097.6665      1.2412874      0.83722941   
     44000  -4789.2904     -4827.839       38.548577      3431.1628      296.15171      8099.5379      1.2410006      0.70894348   
     44100  -4787.1528     -4827.0299      39.877141      5277.9605      306.35848      8097.2086      1.2413576      0.70894348   
     44200  -4788.508      -4825.4897      36.981737      5572.1788      284.11437      8094.2825      1.2418064      0.70894348   
     44300  -4788.3912     -4826.9105      38.519355      4544.5144      295.92721      8085.3667      1.2431757      0.70894348   
     44400  -4787.7898     -4826.7368      38.94697       4948.0189      299.21238      8072.3687      1.2451775      0.70894348   
     44500  -4790.4698     -4827.6497      37.179897      3674.1882      285.63674      8057.3417      1.2474997      0.70894348   
     44600  -4789.748      -4827.7768      38.028798      5719.3989      292.15848      8043.1998      1.2496932      0.70894348   
     44700  -4790.6244     -4828.4929      37.868457      3387.4641      290.92664      8037.574       1.2505679      0.70894348   
     44800  -4789.703      -4829.0859      39.382915      6544.8639      302.56156      8038.0357      1.250496       0.70894348   
     44900  -4790.2825     -4828.1524      37.869842      2946.1852      290.93728      8039.9899      1.2501921      0.70894348   
     45000  -4790.123      -4827.5683      37.445329      1739.614       287.67594      8042.0258      1.2498756      0.70962536   
     45100  -4788.4845     -4827.7579      39.273398      3598.163       301.72019      8044.9979      1.2494138      0.70962536   
     45200  -4788.6399     -4828.4085      39.768614      2091.2744      305.52471      8050.4071      1.2485743      0.70962536   
     45300  -4788.7279     -4826.9744      38.246513      4594.7485      293.83108      8059.4549      1.2471726      0.70962536   
     45400  -4789.2316     -4825.6362      36.404612      4830.6627      279.68057      8068.7115      1.2457419      0.70962536   
     45500  -4787.4715     -4827.8275      40.356006      4303.8656      310.03739      8078.7125      1.2441997      0.70962536   
     45600  -4787.9188     -4826.8118      38.892964      5573.3099      298.79748      8087.9525      1.2427783      0.70962536   
     45700  -4788.7519     -4826.5637      37.811842      5019.9595      290.4917       8097.6623      1.2412881      0.70962536   
     45800  -4789.234      -4826.6372      37.403168      4070.8284      287.35204      8102.7484      1.2405089      0.70962536   
     45900  -4789.1748     -4827.6072      38.432417      1696.0296      295.2593       8101.8276      1.2406499      0.70962536   
     46000  -4789.7722     -4828.865       39.092767      2977.7645      300.33248      8090.2822      1.2424204      0.7310877    
     46100  -4790.474      -4828.2217      37.747744      123.90948      289.99926      8067.8147      1.2458803      0.7310877    
     46200  -4790.6194     -4829.0777      38.458288      4451.3309      295.45806      8040.2689      1.2501487      0.7310877    
     46300  -4790.8247     -4827.6315      36.806764      4351.9619      282.77012      8011.0701      1.2547052      0.7310877    
     46400  -4788.5284     -4826.5741      38.045674      4660.8691      292.28813      7982.9802      1.2591202      0.7310877    
     46500  -4788.9448     -4828.6269      39.682092      6180.9713      304.86         7972.2988      1.2608072      0.7310877    
     46600  -4788.1601     -4829.3541      41.193998      4590.9663      316.47531      7979.5558      1.2596606      0.7310877    
     46700  -4788.8223     -4826.8013      37.978985      2582.3527      291.77578      8000.5304      1.2563582      0.7310877    
     46800  -4788.059      -4827.757       39.697964      998.69127      304.98194      8033.2845      1.2512356      0.7310877    
     46900  -4789.3968     -4828.143       38.746189      6199.9288      297.66988      8067.8614      1.2458731      0.7310877    
     47000  -4789.2846     -4829.5182      40.233553      3811.301       309.09664      8098.8345      1.2411084      0.73193451   
     47100  -4787.7426     -4826.6831      38.940542      4064.7335      299.163        8122.6705      1.2374664      0.73193451   
     47200  -4787.8851     -4826.6617      38.776568      3051.0539      297.90326      8137.7152      1.2351786      0.73193451   
     47300  -4787.8023     -4826.9946      39.19224       3042.0636      301.09669      8138.1727      1.2351092      0.73193451   
     47400  -4788.3136     -4826.5981      38.284486      3629.4958      294.12282      8128.1677      1.2366295      0.73193451   
     47500  -4788.3717     -4827.0946      38.72294       2516.5413      297.49126      8109.895       1.2394158      0.73193451   
     47600  -4787.7916     -4828.1828      40.3912        132.49343      310.30776      8087.3383      1.2428727      0.73193451   
     47700  -4788.519      -4827.8224      39.303353      3780.5195      301.95032      8060.1901      1.2470589      0.73193451   
     47800  -4789.5018     -4828.1587      38.656943      3313.0731      296.98424      8036.9545      1.2506643      0.73193451   
     47900  -4789.5649     -4826.5294      36.964531      3086.5972      283.98218      8021.1501      1.2531285      0.73193451   
     48000  -4789.0291     -4827.2506      38.221529      3017.982       293.63915      8018.4625      1.2535485      0.72386748   
     48100  -4788.4254     -4827.6419      39.216504      6171.1079      301.2831       8025.096       1.2525123      0.72386748   
     48200  -4788.8953     -4826.0165      37.121254      700.20062      285.18621      8042.5812      1.2497893      0.72386748   
     48300  -4790.0242     -4826.0199      35.995762      1708.3819      276.53956      8064.6675      1.2463665      0.72386748   
     48400  -4789.3147     -4827.3862      38.071427      3971.4464      292.48598      8082.0166      1.243691       0.72386748   
     48500  -4789.2894     -4829.4471      40.157787      6109.8558      308.51456      8093.6728      1.2418999      0.72386748   
     48600  -4788.2694     -4826.9248      38.65543       4967.6548      296.97261      8095.2706      1.2416548      0.72386748   
     48700  -4789.4465     -4827.9377      38.491176     -215.72179      295.71072      8087.4721      1.2428521      0.72386748   
     48800  -4790.1019     -4828.1901      38.088128      2159.7964      292.61428      8073.0319      1.2450752      0.72386748   
     48900  -4789.4416     -4827.7502      38.308626      2893.4738      294.30827      8053.4941      1.2480957      0.72386748   
     49000  -4789.5591     -4828.1019      38.54287       3133.3607      296.10786      8033.0172      1.2512772      0.69742849   
     49100  -4789.8851     -4827.9627      38.0776        4413.0157      292.5334       8014.2174      1.2542125      0.69742849   
     49200  -4790.6434     -4828.7589      38.115509      4157.3215      292.82464      8001.8606      1.2561493      0.69742849   
     49300  -4789.8906     -4829.1637      39.273118      3397.4051      301.71804      7994.783       1.2572614      0.69742849   
     49400  -4789.3718     -4827.9483      38.57655       5969.4982      296.36661      7991.383       1.2577963      0.69742849   
     49500  -4789.0242     -4826.4693      37.445136      6162.9624      287.67446      7992.8778      1.257561       0.69742849   
     49600  -4789.2492     -4828.1275      38.878296      6768.258       298.6848       8008.435       1.2551181      0.69742849   
     49700  -4789.5701     -4826.8605      37.290419      4238.1508      286.48583      8031.294       1.2515457      0.69742849   
     49800  -4790.5104     -4828.9172      38.406804      2210.7106      295.06253      8059.0952      1.2472283      0.69742849   
     49900  -4790.3942     -4827.5341      37.139901      5155.1017      285.32947      8085.226       1.2431974      0.69742849   
     50000  -4790.5647     -4827.8662      37.301529      3460.4862      286.57119      8103.9795      1.2403205      0.73251535   
     50100  -4788.0652     -4827.6609      39.595632      2298.9588      304.19577      8108.6903      1.2395999      0.73251535   
     50200  -4789.6049     -4828.7104      39.105546      4607.5072      300.43065      8096.4727      1.2414705      0.73251535   
     50300  -4789.4206     -4826.72        37.29934       3169.4657      286.55437      8072.9808      1.2450831      0.73251535   
     50400  -4790.3477     -4827.742       37.394247      128.48109      287.2835       8043.1151      1.2497063      0.73251535   
     50500  -4789.3039     -4827.1757      37.871778      4907.2927      290.95216      8014.4866      1.2541704      0.73251535   
     50600  -4788.1378     -4827.0033      38.865466      5866.7232      298.58623      7996.3982      1.2570074      0.73251535   
     50700  -4787.2519     -4825.4253      38.173403      8467.0896      293.26941      7987.9787      1.2583323      0.73251535   
     50800  -4787.8659     -4827.7421      39.876196      8240.9053      306.35122      7989.4534      1.2581         0.73251535   
     50900  -4788.7617     -4828.0921      39.330395      6083.2466      302.15807      8000.9167      1.2562975      0.73251535   
     51000  -4788.1363     -4825.6833      37.546932      5132.4046      288.45651      8022.2675      1.2529539      0.70422829   
     51100  -4788.6675     -4828.0661      39.398514      901.95897      302.6814       8050.1209      1.2486187      0.70422829   
     51200  -4788.6469     -4827.8792      39.232339      3752.8339      301.40475      8082.9687      1.2435445      0.70422829   
     51300  -4789.3717     -4826.4739      37.102238      5548.5749      285.04013      8113.7237      1.2388309      0.70422829   
     51400  -4789.5478     -4828.2005      38.652692      2447.2067      296.95157      8134.7352      1.2356311      0.70422829   
     51500  -4789.3467     -4827.5696      38.222915      1461.6387      293.64979      8135.3802      1.2355331      0.70422829   
     51600  -4789.5193     -4828.803       39.283723      1812.1092      301.79951      8115.911       1.238497       0.70422829   
     51700  -4787.5087     -4827.7629      40.254176      3020.5512      309.25508      8085.8691      1.2430985      0.70422829   
     51800  -4787.0435     -4825.9386      38.895151      2786.2078      298.81428      8056.2868      1.2476631      0.70422829   
     51900  -4787.1433     -4827.286       40.14266       6408.4013      308.39834      8034.4167      1.2510593      0.70422829   
     52000  -4786.5731     -4827.9057      41.332617      4883.7112      317.54026      8021.9667      1.2530009      0.79589039   
     52100  -4787.975      -4826.9102      38.935124      5804.0623      299.12138      8019.0736      1.253453       0.79589039   
     52200  -4789.099      -4828.7853      39.686324      4848.5458      304.89251      8025.5587      1.2524401      0.79589039   
     52300  -4789.2313     -4828.3242      39.092929      3713.5707      300.33372      8039.4538      1.2502755      0.79589039   
     52400  -4789.6202     -4827.2395      37.619213      6319.5533      289.01182      8054.0394      1.2480112      0.79589039   
     52500  -4788.5494     -4829.5647      41.015289      4784.977       315.10236      8064.3083      1.246422       0.79589039   
     52600  -4790.8403     -4828.4187      37.578403      3713.1544      288.69829      8069.3614      1.2456415      0.79589039   
     52700  -4790.6931     -4828.9591      38.266019      4255.3861      293.98094      8069.245       1.2456595      0.79589039   
     52800  -4790.3556     -4828.4318      38.076206      4721.9823      292.52269      8065.4899      1.2462395      0.79589039   
     52900  -4790.9144     -4831.0577      40.143303      3592.0782      308.40328      8061.9371      1.2467886      0.79589039   
     53000  -4790.4268     -4828.6803      38.253507      876.38283      293.88481      8051.5682      1.2483943      0.72189828   
     53100  -4791.0959     -4828.4774      37.381455      1909.8116      287.18522      8039.17        1.2503196      0.72189828   
     53200  -4790.2512     -4828.7833      38.532136      1850.0596      296.0254       8026.4829      1.2522959      0.72189828   
     53300  -4790.7852     -4829.5899      38.804662      2549.3722      298.11909      8015.5288      1.2540073      0.72189828   
     53400  -4789.2914     -4828.1451      38.85375       1849.0654      298.49622      8009.9526      1.2548803      0.72189828   
     53500  -4789.6613     -4827.7686      38.107299      1862.7387      292.76156      8010.9468      1.2547246      0.72189828   
     53600  -4790.6612     -4828.1459      37.484643      2122.9757      287.97798      8016.1533      1.2539096      0.72189828   
     53700  -4791.2007     -4829.6113      38.410594      3670.1058      295.09165      8029.2866      1.2518586      0.72189828   
     53800  -4790.1772     -4829.7545      39.577265      5336.2356      304.05467      8044.18        1.2495409      0.72189828   
     53900  -4789.8451     -4826.9642      37.119098      5641.5164      285.16965      8057.8945      1.2474142      0.72189828   
     54000  -4789.5771     -4826.9681      37.390916      3163.663       287.25791      8071.2192      1.2453548      0.74934424   
     54100  -4789.1036     -4827.3893      38.285761      2396.9611      294.13261      8081.7709      1.2437289      0.74934424   
     54200  -4788.0193     -4826.6723      38.653026      4493.5171      296.95414      8088.2947      1.2427257      0.74934424   
     54300  -4786.5849     -4825.4091      38.82422       6367.498       298.26935      8092.8217      1.2420305      0.74934424   
     54400  -4786.988      -4825.3904      38.402403      3929.9399      295.02872      8100.4182      1.2408658      0.74934424   
     54500  -4787.1526     -4827.2644      40.111827      3794.0612      308.16147      8113.7262      1.2388305      0.74934424   
     54600  -4787.9047     -4826.6731      38.768392      4427.7615      297.84045      8127.5204      1.236728       0.74934424   
     54700  -4786.3001     -4826.8928      40.592791      821.85488      311.8565       8133.5608      1.2358095      0.74934424   
     54800  -4784.5264     -4824.087       39.560602      4052.9188      303.92665      8132.4769      1.2359742      0.74934424   
     54900  -4784.4216     -4825.0708      40.64912       5980.9432      312.28925      8128.4346      1.2365889      0.74934424   
     55000  -4785.8773     -4826.1274      40.250072      2261.4837      309.22354      8122.4711      1.2374968      0.75171442   
     55100  -4785.8364     -4825.1377      39.301325      3842.1266      301.93474      8113.6486      1.2388424      0.75171442   
     55200  -4786.2213     -4825.1704      38.949103      3479.6978      299.22877      8106.4964      1.2399354      0.75171442   
     55300  -4786.0625     -4824.7619      38.699387      2929.25        297.31032      8103.5901      1.2403801      0.75171442   
     55400  -4786.2325     -4826.8615      40.629033      8738.3482      312.13493      8099.5188      1.2410036      0.75171442   
     55500  -4787.3693     -4827.0604      39.691086      6032.3612      304.9291       8095.7722      1.2415779      0.75171442   
     55600  -4787.7281     -4827.5433      39.815143      2501.0325      305.88218      8091.6149      1.2422158      0.75171442   
     55700  -4788.2389     -4826.7817      38.542875      4679.0736      296.1079       8085.6642      1.24313        0.75171442   
     55800  -4789.0894     -4826.1897      37.100281      3522.4117      285.02509      8078.7185      1.2441988      0.75171442   
     55900  -4788.0186     -4826.1341      38.115491      6527.4964      292.8245       8070.6699      1.2454396      0.75171442   
     56000  -4789.8188     -4828.1244      38.305615      5689.4956      294.28514      8066.5596      1.2460742      0.75119883   
     56100  -4791.2009     -4828.43        37.229134      3199.9028      286.01501      8059.6642      1.2471403      0.75119883   
     56200  -4792.0142     -4829.6624      37.648194      4090.4876      289.23446      8046.3851      1.2491984      0.75119883   
     56300  -4792.4264     -4829.9568      37.530421      6708.9167      288.32966      8034.9194      1.250981       0.75119883   
     56400  -4792.0771     -4828.872       36.794806      5322.263       282.67826      8026.7911      1.2522478      0.75119883   
     56500  -4790.5372     -4828.5771      38.039907      3634.7298      292.24382      8025.1536      1.2525033      0.75119883   
     56600  -4789.2264     -4828.393       39.166542      6828.1954      300.89926      8030.3435      1.2516939      0.75119883   
     56700  -4790.0793     -4828.3983      38.319014      7502.7253      294.38808      8039.9427      1.2501994      0.75119883   
     56800  -4789.7484     -4827.605       37.856511      3770.8981      290.83487      8050.8275      1.2485091      0.75119883   
     56900  -4790.2417     -4828.574       38.332256      3310.4725      294.48981      8064.7842      1.2463485      0.75119883   
     57000  -4788.8057     -4828.1106      39.304944      5398.2722      301.96254      8076.654       1.2445168      0.72328939   
     57100  -4790.2113     -4827.6838      37.472511      5388.5172      287.88477      8089.6265      1.2425211      0.72328939   
     57200  -4789.3626     -4826.7771      37.414584      3857.982       287.43974      8103.3632      1.2404148      0.72328939   
[...]
    386300  -4790.0793     -4828.6688      38.589446      3983.51        296.46569      8044.3611      1.2495127      0.75750532   
    386400  -4791.2454     -4829.1089      37.863568      1698.0938      290.88909      8035.6955      1.2508602      0.75750532   
    386500  -4790.4031     -4828.2134      37.810271      5190.2186      290.47963      8022.589       1.2529037      0.75750532   
    386600  -4791.6553     -4829.2665      37.611195      4146.3025      288.95022      8009.4564      1.254958       0.75750532   
    386700  -4791.2836     -4828.9948      37.711172      5823.837       289.7183       7999.2062      1.2565661      0.75750532   
    386800  -4788.7258     -4827.0288      38.302977      4705.1042      294.26487      7995.66        1.2571235      0.75750532   
    386900  -4789.6438     -4828.0915      38.44767       3515.7752      295.37649      8003.2655      1.2559288      0.75750532   
    387000  -4789.2269     -4827.827       38.600082      569.9921       296.54739      8018.945       1.2534731      0.72679264   
    387100  -4789.8706     -4829.0485      39.177912      1223.7847      300.98661      8038.9854      1.2503483      0.72679264   
    387200  -4790.1562     -4829.4037      39.24746       822.6133       301.52092      8053.1118      1.248155       0.72679264   
    387300  -4791.0576     -4827.6842      36.626682     -598.00606      281.38664      8056.3589      1.2476519      0.72679264   
    387400  -4791.0972     -4828.9041      37.806889      1146.1817      290.45364      8049.4279      1.2487262      0.72679264   
    387500  -4790.7644     -4829.9053      39.14092       3928.3783      300.70242      8031.0531      1.2515833      0.72679264   
    387600  -4788.9812     -4827.5946      38.613482      3302.5219      296.65035      8007.3881      1.2552822      0.72679264   
    387700  -4788.2844     -4828.6384      40.354046      5136.9479      310.02233      7990.2977      1.2579671      0.72679264   
    387800  -4788.2799     -4828.652       40.372113      7770.2813      310.16113      7987.275       1.2584432      0.72679264   
    387900  -4788.3912     -4827.8599      39.468689      5536.1065      303.22052      7996.3045      1.2570221      0.72679264   
    388000  -4789.5067     -4828.6141      39.107427      5766.8872      300.4451       8016.7532      1.2538158      0.74039401   
    388100  -4789.228      -4828.2704      39.042375      6296.8205      299.94534      8038.648       1.2504008      0.74039401   
    388200  -4789.6683     -4828.2148      38.54657       5095.0959      296.13629      8054.0189      1.2480144      0.74039401   
    388300  -4790.7361     -4828.73        37.993862     -640.38239      291.89007      8063.2027      1.246593       0.74039401   
    388400  -4790.5329     -4828.5473      38.014383      873.97755      292.04773      8064.8817      1.2463334      0.74039401   
    388500  -4789.1602     -4826.2782      37.117966      2862.5474      285.16096      8062.0388      1.2467729      0.74039401   
    388600  -4788.433      -4827.7131      39.280071      6786.162       301.77145      8056.9487      1.2475606      0.74039401   
    388700  -4787.274      -4825.108       37.833992      3852.4506      290.66187      8050.1051      1.2486212      0.74039401   
    388800  -4787.9303     -4827.0629      39.132546      5154.2103      300.63809      8043.0808      1.2497116      0.74039401   
    388900  -4790.4654     -4827.6223      37.156899      4202.1931      285.46006      8036.2445      1.2507748      0.74039401   
    389000  -4791.6153     -4830.0025      38.387172      3909.9076      294.91171      8028.6171      1.251963       0.76877579   
    389100  -4790.6448     -4828.4634      37.81864       8384.7495      290.54393      8018.6606      1.2535175      0.76877579   
    389200  -4790.5395     -4830.0356      39.496062      5183.7424      303.43081      8009.751       1.2549119      0.76877579   
    389300  -4789.8258     -4828.6437      38.817871      6898.26        298.22058      8005.4242      1.2555901      0.76877579   
    389400  -4788.1058     -4828.9867      40.880858      4043.3919      314.06959      8007.9067      1.2552009      0.76877579   
    389500  -4788.5511     -4827.355       38.803951      3806.6832      298.11364      8016.2607      1.2538928      0.76877579   
    389600  -4787.8942     -4826.7265      38.832293      2954.4297      298.33137      8033.2914      1.2512345      0.76877579   
    389700  -4788.6977     -4827.808       39.110303      7377.395       300.4672       8052.6211      1.2482311      0.76877579   
    389800  -4788.9301     -4829.0629      40.132787      1835.1749      308.32249      8068.9594      1.2457036      0.76877579   
    389900  -4788.5598     -4827.879       39.319161      2383.0254      302.07176      8079.9748      1.2440053      0.76877579   
    390000  -4789.3273     -4828.0791      38.75187       5234.944       297.71352      8082.0505      1.2436858      0.75134161   
    390100  -4790.0293     -4828.8889      38.859593      3147.4346      298.5411       8077.8701      1.2443295      0.75134161   
    390200  -4789.158      -4828.2626      39.104573      3586.8996      300.42318      8068.0015      1.2458515      0.75134161   
    390300  -4790.0604     -4828.1894      38.128914      3911.7389      292.92762      8062.703       1.2466702      0.75134161   
    390400  -4790.2697     -4827.3589      37.089248      8334.3062      284.94033      8057.4448      1.2474838      0.75134161   
    390500  -4791.0392     -4829.6024      38.563151      2140.1229      296.26367      8046.7915      1.2491354      0.75134161   
    390600  -4790.4364     -4828.5491      38.112728      6589.6041      292.80327      8026.5965      1.2522782      0.75134161   
    390700  -4790.9161     -4828.9402      38.024112      4825.0917      292.12248      8005.1526      1.2556327      0.75134161   
    390800  -4791.0884     -4829.493       38.404594      6301.0162      295.04555      7985.0256      1.2587977      0.75134161   
    390900  -4791.369      -4827.6982      36.329234      5489.5753      279.10147      7971.5526      1.2609252      0.75134161   
    391000  -4791.2104     -4829.2108      38.000451      3568.4702      291.9407       7972.1475      1.2608311      0.78340367   
    391100  -4790.3623     -4829.0425      38.680174      7084.6772      297.16271      7988.2656      1.2582871      0.78340367   
    391200  -4789.9369     -4828.0682      38.131376      4471.5597      292.94654      8015.4022      1.2540271      0.78340367   
    391300  -4791.0757     -4827.9253      36.849529      4739.6046      283.09867      8048.3859      1.2488879      0.78340367   
    391400  -4790.5045     -4828.7894      38.284826      3254.989       294.12543      8078.9756      1.2441592      0.78340367   
    391500  -4788.6813     -4826.864       38.182618      5238.1292      293.3402       8099.0328      1.241078       0.78340367   
    391600  -4788.838      -4826.2627      37.424696      5689.4461      287.51743      8109.0513      1.2395447      0.78340367   
    391700  -4790.1332     -4828.4406      38.307329      3878.3989      294.29831      8110.7513      1.2392849      0.78340367   
    391800  -4790.642      -4828.1852      37.543213      4488.6858      288.42794      8102.841       1.2404947      0.78340367   
    391900  -4789.2633     -4828.3616      39.098253      2910.4691      300.37462      8087.3755      1.2428669      0.78340367   
    392000  -4787.9686     -4827.8482      39.879577      4162.2528      306.37719      8068.7003      1.2457436      0.77205194   
    392100  -4789.0248     -4828.2818      39.256969      7956.1954      301.59397      8052.6769      1.2482224      0.77205194   
    392200  -4789.2176     -4827.9041      38.686459      5743.8115      297.211        8034.7658      1.2510049      0.77205194   
    392300  -4789.206      -4827.6337      38.427722      5125.797       295.22323      8018.1145      1.2536029      0.77205194   
    392400  -4789.2525     -4828.0862      38.833666      5133.5478      298.34192      8012.8207      1.2544311      0.77205194   
    392500  -4789.2092     -4827.9279      38.718724      2401.892       297.45887      8014.0517      1.2542384      0.77205194   
    392600  -4788.5054     -4826.1583      37.652874      1734.2027      289.27042      8021.8299      1.2530223      0.77205194   
    392700  -4786.2729     -4826.2833      40.01039       4043.5761      307.38217      8034.7198      1.2510121      0.77205194   
    392800  -4787.5651     -4827.053       39.487901      5326.9331      303.36812      8056.0592      1.2476983      0.77205194   
    392900  -4788.0706     -4828.3005      40.22988       2893.6658      309.06842      8086.272       1.2430365      0.77205194   
    393000  -4787.7716     -4826.9176      39.145979     -988.13686      300.74129      8115.0105      1.2386345      0.79132952   
    393100  -4788.8317     -4827.2187      38.386929      4073.7398      294.90984      8131.9501      1.2360543      0.79132952   
    393200  -4789.6012     -4827.2723      37.671143      4866.1971      289.41077      8134.719       1.2356335      0.79132952   
    393300  -4788.6453     -4828.4794      39.834133      4281.3985      306.02807      8122.9476      1.2374242      0.79132952   
    393400  -4788.6889     -4826.6169      37.928024      1335.4007      291.38427      8095.3546      1.2416419      0.79132952   
    393500  -4788.0379     -4826.9542      38.916254      7769.4079      298.97641      8061.294       1.2468881      0.79132952   
    393600  -4788.0898     -4827.1312      39.041325      3671.6985      299.93727      8026.3965      1.2523094      0.79132952   
    393700  -4787.9141     -4827.856       39.941853      2340.7478      306.85563      7999.0869      1.2565849      0.79132952   
    393800  -4788.6447     -4827.5609      38.916196      5084.9133      298.97596      7979.6065      1.2596526      0.79132952   
    393900  -4788.0996     -4827.9772      39.877592      4661.5227      306.36194      7970.9141      1.2610262      0.79132952   
    394000  -4788.3443     -4827.6873      39.342935      4404.1457      302.25441      7975.8444      1.2602467      0.72683354   
    394100  -4788.7377     -4826.711       37.973266      4120.7996      291.73185      7994.1707      1.2573576      0.72683354   
    394200  -4789.472      -4828.0381      38.566098      1357.6686      296.28631      8022.5318      1.2529127      0.72683354   
    394300  -4790.8494     -4827.8361      36.986759      2399.7132      284.15295      8054.2322      1.2479814      0.72683354   
    394400  -4790.7095     -4828.3641      37.654643      6009.4007      289.28401      8076.4665      1.2445457      0.72683354   
    394500  -4790.8857     -4829.4248      38.53909       4171.1475      296.07883      8084.4333      1.2433193      0.72683354   
    394600  -4789.6699     -4826.8837      37.21378       3692.4973      285.89705      8080.8614      1.2438688      0.72683354   
    394700  -4789.3504     -4828.2345      38.884054      2773.3001      298.72903      8066.3914      1.2461002      0.72683354   
    394800  -4789.739      -4827.7569      38.017863      4442.2485      292.07447      8042.6969      1.2497713      0.72683354   
    394900  -4790.2317     -4827.7645      37.532766      6316.0197      288.34768      8016.5822      1.2538425      0.72683354   
    395000  -4790.6647     -4829.4517      38.786968      4346.5748      297.98316      7990.7006      1.2579037      0.71108849   
    395100  -4791.9293     -4829.2484      37.319044      2402.076       286.70574      7965.4616      1.2618894      0.71108849   
    395200  -4790.412      -4830.8074      40.395435      6166.9974      310.3403       7944.7246      1.2651831      0.71108849   
    395300  -4791.418      -4829.0012      37.583171      7579.5536      288.73492      7936.678       1.2664658      0.71108849   
    395400  -4791.5643     -4828.7301      37.16576       8794.5895      285.52814      7940.7369      1.2658185      0.71108849   
    395500  -4790.3137     -4828.8988      38.585177      5217.6767      296.43289      7959.6618      1.2628089      0.71108849   
    395600  -4789.2467     -4827.4509      38.20423       4053.0643      293.50624      7994.2002      1.257353       0.71108849   
    395700  -4789.1263     -4828.0833      38.95699       2339.7589      299.28937      8041.2608      1.2499945      0.71108849   
    395800  -4789.2529     -4827.7136      38.460678      693.20746      295.47642      8094.2578      1.2418102      0.71108849   
    395900  -4787.6398     -4825.8996      38.259807      3126.2582      293.93322      8140.4043      1.2347706      0.71108849   
    396000  -4786.1045     -4825.0415      38.936968      4628.2347      299.13554      8173.3157      1.2297985      0.76107829   
    396100  -4786.6244     -4827.3163      40.691923      434.54393      312.61809      8189.7842      1.2273256      0.76107829   
    396200  -4786.8918     -4826.311       39.419225     -2031.2919      302.84051      8184.4368      1.2281275      0.76107829   
    396300  -4787.3224     -4825.9493      38.626908      1857.7669      296.75349      8156.9119      1.2322717      0.76107829   
    396400  -4787.0861     -4825.501       38.414829      4195.0909      295.12418      8110.3362      1.2393483      0.76107829   
    396500  -4787.6324     -4827.2842      39.651738      2109.307       304.62681      8054.3779      1.2479588      0.76107829   
    396600  -4788.7293     -4827.4802      38.750941      4992.259       297.70638      7994.4273      1.2573173      0.76107829   
    396700  -4788.3012     -4828.4285      40.127274      5970.0493      308.28014      7939.5059      1.2660148      0.76107829   
    396800  -4789.6534     -4828.5898      38.936362      8264.8405      299.13089      7905.3814      1.2714797      0.76107829   
    396900  -4789.5674     -4829.2256      39.658161      5863.7372      304.67615      7898.6951      1.272556       0.76107829   
    397000  -4790.3662     -4828.1001      37.733946      5776.6716      289.89326      7915.2119      1.2699005      0.70484705   
    397100  -4789.4461     -4827.4942      38.048088      5065.9414      292.30667      7956.865       1.2632528      0.70484705   
    397200  -4791.1976     -4829.4831      38.285471      5222.3246      294.13038      8013.2563      1.2543629      0.70484705   
    397300  -4790.7208     -4828.2172      37.496394      3556.2765      288.06825      8074.046       1.2449188      0.70484705   
    397400  -4789.649      -4828.6684      39.01936       6462.5633      299.76853      8125.6349      1.2370149      0.70484705   
    397500  -4789.7547     -4826.9556      37.200926      2956.0564      285.7983       8157.6277      1.2321636      0.70484705   
    397600  -4791.814      -4827.3058      35.491745      1822.4786      272.66742      8166.9899      1.2307511      0.70484705   
    397700  -4791.9067     -4828.3355      36.428846      341.52746      279.86675      8147.8146      1.2336476      0.70484705   
    397800  -4791.2672     -4829.2879      38.020754      5529.0747      292.09668      8103.8959      1.2403333      0.70484705   
    397900  -4791.3139     -4828.9256      37.611688      2335.3739      288.954        8042.2202      1.2498454      0.70484705   
    398000  -4789.6879     -4827.6426      37.954702      4444.5977      291.58923      7973.5959      1.2606021      0.71852562   
    398100  -4789.2178     -4828.3889      39.171138      4472.1449      300.93457      7913.3985      1.2701915      0.71852562   
    398200  -4790.5312     -4828.7945      38.263383      3709.5937      293.96069      7873.6788      1.2765992      0.71852562   
    398300  -4789.2114     -4828.3746      39.163253      7850.6435      300.87399      7862.0622      1.2784854      0.71852562   
    398400  -4789.2621     -4827.5947      38.332667      6919.5662      294.49297      7885.0157      1.2747637      0.71852562   
    398500  -4791.2233     -4829.3147      38.091355      4816.6912      292.63907      7936.5649      1.2664839      0.71852562   
    398600  -4790.5193     -4827.5943      37.075025      1394.7138      284.83106      7999.416       1.2565332      0.71852562   
    398700  -4791.0974     -4828.1071      37.009629     -67.305762      284.32865      8064.4952      1.2463932      0.71852562   
    398800  -4791.9247     -4829.3736      37.448926     -614.56918      287.70358      8117.1886      1.2383021      0.71852562   
    398900  -4793.1189     -4829.9861      36.867178     -255.55373      283.23426      8144.7264      1.2341153      0.71852562   
    399000  -4792.3417     -4830.3034      37.961701     -1161.71        291.643        8142.9903      1.2343784      0.69883749   
    399100  -4791.6139     -4829.2214      37.60753       1466.0031      288.92206      8118.4115      1.2381156      0.69883749   
    399200  -4789.3453     -4827.0521      37.706841      4247.1668      289.68502      8078.0106      1.2443078      0.69883749   
    399300  -4788.3649     -4827.6607      39.295779      8491.0154      301.89213      8031.0789      1.2515792      0.69883749   
    399400  -4789.097      -4828.4287      39.331659      7659.0969      302.16778      7986.5689      1.2585544      0.69883749   
    399500  -4789.6797     -4828.3811      38.701445      3599.3191      297.32612      7953.9346      1.2637182      0.69883749   
    399600  -4789.5271     -4827.758       38.230882      5375.5606      293.711        7935.8705      1.2665947      0.69883749   
    399700  -4790.9053     -4828.4771      37.57178       5726.8774      288.64741      7934.9481      1.266742       0.69883749   
    399800  -4790.2581     -4830.1389      39.88082       2839.1094      306.38675      7951.7324      1.2640682      0.69883749   
    399900  -4790.678      -4829.4546      38.776618      2093.9407      297.90365      7981.6466      1.2593306      0.69883749   
    400000  -4791.1144     -4827.7934      36.679082      6.8295226      281.7892       8019.9302      1.2533191      0.72144289   
    400100  -4789.6482     -4826.925       37.27673      -114.93628      286.38067      8058.6264      1.2473009      0.72144289   
    400200  -4790.4458     -4829.0543      38.608509      1960.3613      296.61214      8089.0951      1.2426027      0.72144289   
    400300  -4790.0679     -4828.6755      38.607566      988.45571      296.60489      8106.859       1.2398799      0.72144289   
    400303  -4790.2058     -4827.7578      37.552017      4344.9017      288.49558      8107.0941      1.239844       0.72144289   
Loop time of 545.605 on 2 procs for 200000 steps with 1008 atoms

Performance: 15.836 ns/day, 1.516 hours/ns, 366.566 timesteps/s, 369.498 katom-step/s
99.6% CPU use with 2 MPI tasks x 1 OpenMP threads

MPI task timing breakdown:
Section |  min time  |  avg time  |  max time  |%varavg| %total
---------------------------------------------------------------
Pair    | 298.93     | 299.96     | 300.99     |   5.9 | 54.98
Neigh   | 7.9089     | 8.0307     | 8.1525     |   4.3 |  1.47
Comm    | 42.091     | 43.896     | 45.701     |  27.2 |  8.05
Output  | 0.30223    | 0.30485    | 0.30748    |   0.5 |  0.06
Modify  | 190.34     | 191.04     | 191.74     |   5.1 | 35.01
Other   |            | 2.372      |            |       |  0.43

Nlocal:            504 ave         506 max         502 min
Histogram: 1 0 0 0 0 0 0 0 0 1
Nghost:           2659 ave        2667 max        2651 min
Histogram: 1 0 0 0 0 0 0 0 0 1
Neighs:              0 ave           0 max           0 min
Histogram: 2 0 0 0 0 0 0 0 0 0
FullNghs:        72655 ave       73145 max       72165 min
Histogram: 1 0 0 0 0 0 0 0 0 1

Total # of neighbors = 145310
Ave neighs/atom = 144.15675
Neighbor list builds = 19972
Dangerous builds = 19836
Total wall time: 0:18:12
