LAMMPS (7 Feb 2024 - Update 1)
KOKKOS mode with Kokkos version 4.2.0 is enabled (src/KOKKOS/kokkos.cpp:72)
  will use up to 2 GPU(s) per node
  using 1 OpenMP thread(s) per MPI task
Reading data file ...
  triclinic box = (0 0 0) to (18.047441 22.912981 19.549222) with tilt (-0.10697296 -6.2467562 -0.022549581)
  1 by 2 by 1 MPI processor grid
  reading atoms ...
  1008 atoms
  read_data CPU = 0.010 seconds
ACE/AL version: 2023.11.25
Loading /home/cicn/cicn607503/pd/pot_dir/interim_potential_ladder_step_5.yaml
Total number of basis functions
	H: 24 (r=1) 863 (r>1)
	O: 24 (r=1) 863 (r>1)
Mapping LAMMPS atom type #1(H) -> ACE species type #0
Mapping LAMMPS atom type #2(O) -> ACE species type #1
Loading ASI /home/cicn/cicn607503/pd/pot_dir/interim_potential_ladder_step_5.asi
LINEAR ASI is loaded
Switching to 'neigh_modify every 1 delay 0 check yes' setting during minimization
Neighbor list info ...
  update: every = 1 steps, delay = 0 steps, check = yes
  max neighbors/atom: 2000, page size: 100000
  master list distance cutoff = 6.5
  ghost atom cutoff = 6.5
  binsize = 6.5, bins = 4 4 4
  1 neighbor lists, perpetual/occasional/extra = 1 0 0
  (1) pair pace/extrapolation/kk, perpetual
      attributes: full, newton on, kokkos_device
      pair build: full/bin/kk/device
      stencil: full/bin/3d
      bin: kk/device
Setting up cg/kk style minimization ...
  Unit style    : metal
  Current step  : 0
WARNING: Fix with atom-based arrays not compatible with sending data in Kokkos communication, switching to classic exchange/border communication (src/KOKKOS/comm_kokkos.cpp:666)
WARNING: Fix with atom-based arrays not compatible with Kokkos sorting on device, switching to classic host sorting (src/KOKKOS/atom_kokkos.cpp:218)
Per MPI rank memory allocation (min/avg/max) = 546.3 | 549.6 | 552.9 Mbytes
   Step         TotEng         PotEng         KinEng         Press           Temp          Volume        Density     c_max_pace_gamma
         0  -4827.4078     -4827.4078      0              65842.018      0              8084.0073      1.2433848      0.7740399    
       100  -4869.0901     -4869.0901      0             -8623.4012      0              8084.0073      1.2433848      0.7740399    
       200  -4869.1022     -4869.1022      0             -8586.5226      0              8084.0073      1.2433848      0.7740399    
       300  -4869.1022     -4869.1022      0             -8587.4902      0              8084.0073      1.2433848      0.7740399    
       303  -4869.1022     -4869.1022      0             -8587.5931      0              8084.0073      1.2433848      0.7740399    
Loop time of 1.21267 on 2 procs for 303 steps with 1008 atoms

99.3% CPU use with 2 MPI tasks x 1 OpenMP threads

Minimization stats:
  Stopping criterion = force tolerance
  Energy initial, next-to-last, final = 
     -4827.40775476356  -4869.10223783817  -4869.10223784276
  Force two-norm initial, final = 47.883568 0.00048071696
  Force max component initial, final = 2.283098 3.3055059e-05
  Final line search alpha, max atom move = 1 3.3055059e-05
  Iterations, force evaluations = 303 605

MPI task timing breakdown:
Section |  min time  |  avg time  |  max time  |%varavg| %total
---------------------------------------------------------------
Pair    | 0.8597     | 0.8663     | 0.8729     |   0.7 | 71.44
Neigh   | 0.0022216  | 0.0022515  | 0.0022814  |   0.1 |  0.19
Comm    | 0.11575    | 0.12308    | 0.1304     |   2.1 | 10.15
Output  | 0.00043707 | 0.00043873 | 0.00044039 |   0.0 |  0.04
Modify  | 0.14023    | 0.14163    | 0.14303    |   0.4 | 11.68
Other   |            | 0.07897    |            |       |  6.51

Nlocal:            504 ave         505 max         503 min
Histogram: 1 0 0 0 0 0 0 0 0 1
Nghost:           2652 ave        2655 max        2649 min
Histogram: 1 0 0 0 0 0 0 0 0 1
Neighs:              0 ave           0 max           0 min
Histogram: 2 0 0 0 0 0 0 0 0 0
FullNghs:        73309 ave       73559 max       73059 min
Histogram: 1 0 0 0 0 0 0 0 0 1

Total # of neighbors = 146618
Ave neighs/atom = 145.45437
Neighbor list builds = 6
Dangerous builds = 0
Setting up Verlet run ...
  Unit style    : metal
  Current step  : 303
  Time step     : 0.0005
WARNING: Fix with atom-based arrays not compatible with sending data in Kokkos communication, switching to classic exchange/border communication (src/KOKKOS/comm_kokkos.cpp:666)
WARNING: Fix with atom-based arrays not compatible with Kokkos sorting on device, switching to classic host sorting (src/KOKKOS/atom_kokkos.cpp:218)
Per MPI rank memory allocation (min/avg/max) = 548.7 | 551 | 553.4 Mbytes
   Step         TotEng         PotEng         KinEng         Press           Temp          Volume        Density     c_max_pace_gamma
       303  -4829.4019     -4869.1022      39.700315     -3342.0996      305            8084.0073      1.2433848      0.7740399    
       400  -4821.5022     -4843.7208      22.218608     -353.35407      170.69576      8045.9098      1.2492722      0.7740399    
       500  -4812.2408     -4838.3755      26.134646     -2164.8016      200.78095      7953.4429      1.2637963      0.7740399    
       600  -4806.1061     -4835.8211      29.715043      4717.7187      228.28756      7836.9803      1.2825771      0.7740399    
       700  -4802.0706     -4836.7073      34.63671       8003.5683      266.09856      7735.2916      1.299438       0.7740399    
       800  -4798.8434     -4833.2967      34.453341      8633.1949      264.68982      7670.089       1.3104844      0.7740399    
       900  -4796.1935     -4831.6451      35.451563      8547.701       272.35872      7657.1578      1.3126975      0.7740399    
      1000  -4795.0058     -4831.0074      36.001579      6309.4521      276.58425      7699.0585      1.3055534      0.75410188   
      1100  -4793.5741     -4830.666       37.091861      1146.5108      284.96041      7782.2174      1.2916025      0.75410188   
      1200  -4792.8123     -4831.0775      38.265195      5725.0297      293.97461      7885.7024      1.2746527      0.75410188   
      1300  -4792.1934     -4830.3897      38.196253      5957.6626      293.44496      7984.9975      1.2588021      0.75410188   
      1400  -4791.1758     -4828.2834      37.107526      3264.1694      285.08075      8062.8445      1.2466483      0.75410188   
      1500  -4790.4089     -4828.1652      37.756339      5053.7496      290.06529      8114.9361      1.2386458      0.75410188   
      1600  -4789.6034     -4827.6519      38.048543      2655.4579      292.31016      8140.3304      1.2347818      0.75410188   
      1700  -4788.7785     -4826.9683      38.189759      3570.3407      293.39507      8139.8331      1.2348572      0.75410188   
      1800  -4789.2246     -4827.9379      38.713272      2565.1502      297.41699      8119.4233      1.2379613      0.75410188   
      1900  -4787.5752     -4827.9416      40.366427     -76.9036        310.11745      8084.7968      1.2432634      0.75410188   
      2000  -4785.5699     -4824.3706      38.800718      7205.5559      298.08879      8044.7691      1.2494494      0.71856178   
      2100  -4787.2644     -4827.655       40.390569      7586.5402      310.30292      8011.4265      1.2546494      0.71856178   
      2200  -4787.6775     -4826.9523      39.274879      5952.8727      301.73156      7984.5863      1.2588669      0.71856178   
      2300  -4789.8289     -4828.5114      38.682504      5526.0467      297.18061      7967.6705      1.2615396      0.71856178   
      2400  -4789.6455     -4829.6607      40.015219      4897.4897      307.41927      7957.8092      1.2631029      0.71856178   
      2500  -4788.8879     -4826.2956      37.407632      5716.8489      287.38633      7960.2634      1.2627135      0.71856178   
      2600  -4789.5373     -4828.4507      38.913396      6409.8457      298.95445      7981.4833      1.2593563      0.71856178   
      2700  -4790.8352     -4828.8298      37.994652      6337.9985      291.89615      8012.9877      1.254405       0.71856178   
      2800  -4791.6467     -4829.9822      38.335488      3553.3336      294.51464      8044.6929      1.2494612      0.71856178   
      2900  -4791.8036     -4827.5975      35.793901      2711.1364      274.98875      8068.6992      1.2457438      0.71856178   
      3000  -4791.7528     -4829.5624      37.809581      5983.4951      290.47432      8080.329       1.2439508      0.6903819    
      3100  -4789.9432     -4828.6995      38.756312      10077.967      297.74765      8076.4141      1.2445538      0.6903819    
      3200  -4789.0713     -4827.5864      38.515182      5063.6376      295.89515      8061.8886      1.2467961      0.6903819    
      3300  -4789.6926     -4828.9483      39.255714      6715.5741      301.58433      8039.7905      1.2502231      0.6903819    
      3400  -4788.3181     -4827.7944      39.476285      630.25007      303.27888      8013.5276      1.2543205      0.6903819    
      3500  -4786.822      -4825.4763      38.65425       4945.8967      296.96355      7987.4899      1.2584093      0.6903819    
      3600  -4786.4087     -4824.853       38.44426       2924.1104      295.35029      7969.2998      1.2612817      0.6903819    
      3700  -4785.5133     -4827.2792      41.765918      3557.9948      320.86912      7967.926       1.2614991      0.6903819    
      3800  -4787.569      -4826.728       39.159043      4257.8164      300.84165      7982.1819      1.2592461      0.6903819    
      3900  -4786.3616     -4826.5487      40.187159      2906.1483      308.74021      8009.0781      1.2550173      0.6903819    
      4000  -4785.3034     -4825.6384      40.334993      5814.9003      309.87595      8047.5212      1.2490221      0.72014606   
      4100  -4785.5697     -4824.4958      38.926105      928.11971      299.05209      8095.2616      1.2416562      0.72014606   
      4200  -4784.0959     -4823.7333      39.637399      3421.5466      304.51664      8143.8291      1.2342513      0.72014606   
      4300  -4784.2034     -4824.7661      40.562664      2537.8636      311.62505      8191.0392      1.2271375      0.72014606   
      4400  -4784.7568     -4825.1578      40.401044      3931.4897      310.38339      8225.0467      1.2220638      0.72014606   
      4500  -4784.7276     -4825.2031      40.475497      4597.644       310.95539      8237.1333      1.2202706      0.72014606   
      4600  -4785.3124     -4825.471       40.158589      2792.6558      308.52072      8221.3843      1.2226082      0.72014606   
      4700  -4784.1783     -4824.0553      39.877028      1987.6848      306.35761      8177.4548      1.2291761      0.72014606   
      4800  -4785.3573     -4826.2308      40.873465      908.0744       314.0128       8116.6429      1.2383854      0.72014606   
      4900  -4784.1582     -4825.6765      41.518325      5738.0083      318.96697      8053.0896      1.2481584      0.72014606   
      5000  -4783.0882     -4824.7882      41.700023      8221.358       320.36288      7996.8603      1.2569348      0.75576979   
      5100  -4783.9658     -4825.1046      41.138757      7176.4945      316.05092      7960.7375      1.2626383      0.75576979   
      5200  -4783.3031     -4824.4908      41.187679      11558.04       316.42677      7945.2958      1.2650922      0.75576979   
      5300  -4783.9591     -4824.936       40.976913      6083.9934      314.80755      7955.6519      1.2634454      0.75576979   
      5400  -4786.1425     -4825.9908      39.848231      6591.5936      306.13637      7988.2278      1.2582931      0.75576979   
      5500  -4785.2932     -4825.5352      40.242048      1883.6221      309.1619       8035.8016      1.2508437      0.75576979   
      5600  -4786.0332     -4825.0072      38.974053      6098.2357      299.42045      8090.847       1.2423337      0.75576979   
      5700  -4786.4844     -4827.235       40.750609      1898.6802      313.06895      8144.7232      1.2341158      0.75576979   
      5800  -4786.512      -4825.1889      38.67694      -1394.1108      297.13786      8186.3192      1.2278451      0.75576979   
      5900  -4784.9786     -4824.3187      39.340189      2560.2106      302.23331      8211.3331      1.2241047      0.75576979   
      6000  -4784.2901     -4825.0116      40.721531      1986.7429      312.84555      8210.6098      1.2242126      0.69867875   
      6100  -4785.3794     -4825.7109      40.331469      1451.6681      309.84888      8182.8839      1.2283605      0.69867875   
      6200  -4785.3298     -4824.0079      38.678101      1082.6602      297.14678      8133.1282      1.2358752      0.69867875   
      6300  -4785.1737     -4826.1936      41.019868      3877.8994      315.13755      8074.9627      1.2447775      0.69867875   
      6400  -4785.5581     -4826.1485      40.590368      3609.1781      311.83789      8015.0049      1.2540893      0.69867875   
      6500  -4785.2405     -4824.0978      38.857296      9273.3303      298.52346      7964.101       1.262105       0.69867875   
      6600  -4786.355      -4826.9928      40.637765      6890.7472      312.20201      7930.9099      1.2673869      0.69867875   
      6700  -4786.7061     -4827.8292      41.123117      6624.32        315.93077      7919.9137      1.2691466      0.69867875   
      6800  -4787.2439     -4825.5832      38.339289      6933.8123      294.54384      7929.9946      1.2675332      0.69867875   
      6900  -4787.0184     -4826.9768      39.958435      3173.1844      306.98302      7959.3546      1.2628576      0.69867875   
      7000  -4786.7907     -4826.1687      39.37802       3695.6367      302.52395      7999.7641      1.2564785      0.72160316   
      7100  -4788.7249     -4826.6918      37.966927      4016.8112      291.68315      8046.8217      1.2491307      0.72160316   
      7200  -4787.651      -4826.502       38.850998      1833.3973      298.47507      8092.6679      1.2420541      0.72160316   
      7300  -4786.4309     -4825.7654      39.334525      2077.3457      302.1898       8130.0414      1.2363445      0.72160316   
      7400  -4787.6767     -4825.7963      38.119622      3846.7024      292.85623      8156.9378      1.2322678      0.72160316   
      7500  -4787.1878     -4826.4516      39.263783      4949.8636      301.64632      8167.7628      1.2306346      0.72160316   
      7600  -4787.2763     -4825.4611      38.184756      588.57311      293.35663      8159.0945      1.2319421      0.72160316   
      7700  -4787.3886     -4826.162       38.77341       7102.459       297.879        8130.6862      1.2362464      0.72160316   
      7800  -4787.0497     -4827.0626      40.012969      4649.6488      307.40199      8090.3059      1.2424168      0.72160316   
      7900  -4787.9006     -4827.1794      39.278791      4723.3292      301.76162      8045.1985      1.2493827      0.72160316   
      8000  -4788.2577     -4828.4725      40.214777      5238.1472      308.95239      8003.2882      1.2559252      0.69755342   
      8100  -4789.1671     -4829.464       40.296928      8814.8569      309.58352      7969.3042      1.261281       0.69755342   
      8200  -4790.1281     -4830.3149      40.186727      7904.8081      308.73689      7950.6484      1.2642405      0.69755342   
      8300  -4788.741      -4828.1073      39.366284      3849.1497      302.43379      7944.078       1.2652861      0.69755342   
      8400  -4789.7837     -4828.0155      38.231857      4163.5585      293.71849      7954.1055      1.263691       0.69755342   
      8500  -4790.1298     -4828.4077      38.277989      3149.6361      294.0729       7979.1289      1.2597279      0.69755342   
      8600  -4791.1934     -4828.1419      36.948542      6485.2211      283.85935      8009.249       1.2549905      0.69755342   
      8700  -4790.3673     -4827.8668      37.499471      3381.1552      288.09189      8039.1918      1.2503162      0.69755342   
      8800  -4789.9746     -4828.062       38.087388      2802.3118      292.60859      8064.5861      1.2463791      0.69755342   
      8900  -4789.6316     -4827.8085      38.176884      6377.0489      293.29615      8081.1593      1.243823       0.69755342   
      9000  -4790.9671     -4827.7765      36.809436      4904.6025      282.79066      8088.2779      1.2427283      0.75938933   
      9100  -4789.7017     -4827.4477      37.746005      2717.5125      289.9859       8085.6776      1.2431279      0.75938933   
      9200  -4789.0651     -4828.2268      39.161703      1010.9057      300.86209      8076.2305      1.2445821      0.75938933   
      9300  -4787.2308     -4826.1345      38.903722      3200.5404      298.88013      8058.607       1.2473039      0.75938933   
      9400  -4787.6487     -4825.963       38.314295      2779.1013      294.35182      8037.1027      1.2506412      0.75938933   
      9500  -4787.4954     -4825.9344      38.43908       2819.5267      295.31049      8017.7451      1.2536607      0.75938933   
      9600  -4786.5554     -4826.3948      39.839404      7933.6202      306.06857      8010.841       1.2547411      0.75938933   
      9700  -4787.5162     -4825.7884      38.272243      5854.4491      294.02875      8016.7088      1.2538227      0.75938933   
      9800  -4788.0472     -4827.284       39.236737      1307.9123      301.43854      8030.2915      1.251702       0.75938933   
      9900  -4788.3022     -4827.4601      39.157905      4068.98        300.8329       8050.103       1.2486215      0.75938933   
     10000  -4786.6677     -4826.7572      40.089496      6901.314       307.98991      8070.1972      1.2455125      0.79534552   
     10100  -4786.3663     -4825.519       39.152658      3197.1937      300.7926       8088.2762      1.2427285      0.79534552   
     10200  -4787.1811     -4826.0252      38.84411       4461.8763      298.42216      8102.1613      1.2405988      0.79534552   
     10300  -4787.3159     -4826.36        39.044059      5909.8371      299.95828      8108.076       1.2396938      0.79534552   
     10400  -4788.445      -4826.8746      38.429632      2317.0209      295.23791      8103.7361      1.2403577      0.79534552   
     10500  -4789.3323     -4829.723       40.390642      6528.9909      310.30348      8090.3466      1.2424105      0.79534552   
     10600  -4788.1522     -4826.8319      38.679703      6621.9235      297.15909      8066.5651      1.2460733      0.79534552   
     10700  -4786.1818     -4825.1156      38.933852      1725.9301      299.1116       8041.9142      1.2498929      0.79534552   
     10800  -4785.7788     -4825.2882      39.509448      2422.6091      303.53365      8019.115       1.2534465      0.79534552   
     10900  -4784.9877     -4825.7297      40.742067      5168.7696      313.00332      8005.4159      1.2555914      0.79534552   
     11000  -4785.0164     -4824.9655      39.949064      7677.4452      306.91103      8001.7068      1.2561735      0.716337     
     11100  -4786.4425     -4825.2984      38.855897      2857.5574      298.51271      8010.0589      1.2548636      0.716337     
     11200  -4785.7184     -4825.2177      39.499263      3299.3735      303.45541      8030.1232      1.2517282      0.716337     
     11300  -4786.6595     -4826.6681      40.008597      3973.1447      307.3684       8062.8407      1.2466489      0.716337     
     11400  -4786.9922     -4826.2632      39.270973      2021.1042      301.70155      8105.4635      1.2400934      0.716337     
     11500  -4786.9437     -4826.4946      39.550937      3668.5527      303.85239      8147.4964      1.2336957      0.716337     
     11600  -4787.5581     -4826.3044      38.74624       4042.177       297.67027      8180.5591      1.2287096      0.716337     
     11700  -4787.3861     -4826.5065      39.120366      3543.2403      300.54451      8198.4403      1.2260297      0.716337     
     11800  -4786.5072     -4825.9225      39.415278     -373.5115       302.81019      8192.4766      1.2269222      0.716337     
     11900  -4787.343      -4827.6676      40.324596      3597.9238      309.79608      8169.3535      1.230395       0.716337     
     12000  -4788.1515     -4827.3334      39.1819        2810.5367      301.01725      8132.3293      1.2359966      0.69795684   
     12100  -4788.1248     -4827.0079      38.883137      4768.3879      298.72199      8087.9973      1.2427714      0.69795684   
     12200  -4788.0597     -4828.0794      40.019683      3014.0403      307.45357      8043.3462      1.2496704      0.69795684   
     12300  -4789.6183     -4829.4177      39.7994        4554.8038      305.76123      8007.7018      1.255233       0.69795684   
     12400  -4788.2107     -4827.3161      39.105395      6329.7362      300.42949      7984.1108      1.2589419      0.69795684   
     12500  -4788.2953     -4826.7319      38.436602      6394.3936      295.29145      7972.7557      1.2607349      0.69795684   
     12600  -4787.4646     -4826.8723      39.407638      4285.398       302.75149      7978.4757      1.2598311      0.69795684   
     12700  -4788.351      -4826.31        37.959013      8426.9995      291.62235      7999.7652      1.2564783      0.69795684   
     12800  -4788.7369     -4827.0437      38.306836      4594.2491      294.29452      8030.1731      1.2517204      0.69795684   
     12900  -4789.8138     -4827.7888      37.974972     -406.59258      291.74495      8068.8345      1.2457229      0.69795684   
     13000  -4789.1119     -4828.1299      39.018018      1708.1574      299.75821      8108.8575      1.2395743      0.71596241   
     13100  -4789.6044     -4827.3572      37.752786      2076.9529      290.03799      8138.6867      1.2350312      0.71596241   
     13200  -4787.8675     -4826.0341      38.166599      3356.6426      293.21714      8154.3109      1.2326648      0.71596241   
     13300  -4787.8077     -4826.6727      38.865009      2399.7751      298.58271      8154.7673      1.2325958      0.71596241   
     13400  -4787.3958     -4826.6712      39.275385      3256.6904      301.73545      8141.696       1.2345747      0.71596241   
     13500  -4787.8217     -4826.6116      38.789911      3116.5699      298.00577      8118.8781      1.2380444      0.71596241   
     13600  -4787.7452     -4826.6541      38.908937      4164.6033      298.9202       8089.8224      1.242491       0.71596241   
     13700  -4787.9143     -4826.7374      38.823132      1868.4645      298.26099      8056.7379      1.2475932      0.71596241   
     13800  -4788.0839     -4827.9639      39.879926      5766.5476      306.37987      8024.9167      1.2525403      0.71596241   
     13900  -4788.0206     -4827.5206      39.500092      3267.1573      303.46178      8001.6087      1.2561889      0.71596241   
     14000  -4788.8557     -4827.8119      38.956168      5005.926       299.28305      7994.001       1.2573843      0.71527149   
     14100  -4787.2921     -4826.913       39.620897      4415.5196      304.38987      7999.0658      1.2565882      0.71527149   
     14200  -4788.6186     -4827.5792      38.96054       4658.2907      299.31664      8016.5711      1.2538443      0.71527149   
     14300  -4788.8847     -4827.7296      38.844906      888.63259      298.42827      8040.7313      1.2500768      0.71527149   
     14400  -4788.9306     -4826.3159      37.385313     -868.12025      287.21487      8067.0463      1.245999       0.71527149   
     14500  -4786.5299     -4827.4039      40.873995      3951.4076      314.01687      8091.3145      1.2422619      0.71527149   
     14600  -4786.0891     -4826.0573      39.968165      6211.4007      307.05778      8110.8102      1.2392759      0.71527149   
     14700  -4786.0155     -4827.1707      41.155212      3612.4052      316.17733      8127.3168      1.2367589      0.71527149   
     14800  -4786.8368     -4826.1265      39.28963       3720.5902      301.84489      8136.2386      1.2354028      0.71527149   
     14900  -4785.2376     -4826.4056      41.167976      8577.6136      316.27539      8136.687       1.2353347      0.71527149   
     15000  -4783.2564     -4824.7885      41.532135      5354.8534      319.07307      8132.6539      1.2359473      0.74836734   
     15100  -4783.2205     -4824.2843      41.063856      4597.8675      315.47549      8125.9389      1.2369687      0.74836734   
     15200  -4785.5803     -4824.9872      39.406875      758.08854      302.74564      8117.9192      1.2381906      0.74836734   
     15300  -4784.5449     -4824.2058      39.660939      3872.4214      304.6975       8103.6934      1.2403643      0.74836734   
     15400  -4783.9168     -4824.2425      40.325615      4887.9056      309.80391      8089.9321      1.2424742      0.74836734   
     15500  -4782.4304     -4825.6943      43.263866      1180.9532      332.3772       8079.7063      1.2440467      0.74836734   
     15600  -4783.5202     -4824.5895      41.069309      6009.4715      315.51738      8078.3542      1.2442549      0.74836734   
     15700  -4786.5051     -4826.3583      39.85325       2225.5916      306.17493      8091.3941      1.2422497      0.74836734   
     15800  -4786.9337     -4826.4294      39.49566       1491.2724      303.42773      8112.5289      1.2390134      0.74836734   
     15900  -4787.832      -4826.3949      38.562866      1869.8896      296.26148      8133.5149      1.2358165      0.74836734   
     16000  -4785.9713     -4825.4084      39.43717       1053.2997      302.97838      8148.6684      1.2335183      0.72722042   
     16100  -4787.0747     -4826.3707      39.296065      4215.6929      301.89433      8157.4007      1.2321979      0.72722042   
     16200  -4787.4852     -4826.1013      38.616064      6133.7978      296.67018      8155.7676      1.2324446      0.72722042   
     16300  -4784.9962     -4824.4256      39.429422      1077.6149      302.91885      8142.638       1.2344318      0.72722042   
     16400  -4784.6086     -4824.748       40.139462      3262.9982      308.37378      8126.1193      1.2369412      0.72722042   
     16500  -4786.0208     -4825.1537      39.132885      2517.8561      300.64069      8110.7471      1.2392856      0.72722042   
     16600  -4786.8599     -4825.6437      38.783823      3276.9719      297.959        8098.6079      1.2411431      0.72722042   
     16700  -4785.3452     -4825.4784      40.13324      -945.87261      308.32597      8085.0254      1.2432282      0.72722042   
     16800  -4785.9136     -4824.7994      38.885744      144.66776      298.74201      8070.8059      1.2454186      0.72722042   
     16900  -4787.4393     -4826.5453      39.106042      4134.6309      300.43447      8057.2759      1.2475099      0.72722042   
     17000  -4785.977      -4827.0825      41.105473      830.55292      315.79521      8049.7683      1.2486734      0.71376941   
     17100  -4786.0004     -4825.9563      39.955878      4783.9417      306.96338      8045.3484      1.2493594      0.71376941   
     17200  -4786.9642     -4826.5408      39.576654      4785.7292      304.04997      8052.6989      1.248219       0.71376941   
     17300  -4787.3307     -4826.4421      39.111398      4761.8788      300.47561      8069.7174      1.2455866      0.71376941   
     17400  -4787.5156     -4825.6931      38.177469      1563.1464      293.30065      8093.0501      1.2419955      0.71376941   
     17500  -4788.1957     -4826.1341      37.938432      759.6536       291.46423      8116.6177      1.2383892      0.71376941   
     17600  -4787.9247     -4827.035       39.110266      5399.5837      300.46692      8130.5931      1.2362606      0.71376941   
     17700  -4785.9886     -4826.1811      40.192537      3074.474       308.78153      8136.3995      1.2353783      0.71376941   
     17800  -4786.2397     -4826.4275      40.187861      1069.346       308.7456       8131.1858      1.2361705      0.71376941   
     17900  -4786.2584     -4825.4702      39.211721      4768.8468      301.24635      8114.5178      1.2387097      0.71376941   
     18000  -4787.0714     -4826.2822      39.210815      4344.9935      301.23939      8096.4271      1.2414774      0.71080465   
     18100  -4786.9182     -4826.251       39.332741      2585.4598      302.17609      8078.171       1.2442831      0.71080465   
     18200  -4785.8        -4825.2398      39.439867      3645.0642      302.99909      8063.6189      1.2465286      0.71080465   
     18300  -4787.0593     -4825.5547      38.495356      3453.9187      295.74284      8056.7049      1.2475983      0.71080465   
     18400  -4788.4828     -4826.7264      38.243631      2780.76        293.80894      8057.8094      1.2474273      0.71080465   
     18500  -4787.668      -4826.744       39.076056      3881.7683      300.2041       8063.3909      1.2465639      0.71080465   
     18600  -4787.9052     -4826.8269      38.92172       1317.4923      299.0184       8070.9887      1.2453904      0.71080465   
     18700  -4788.8244     -4827.8589      39.034521      4223.6494      299.885        8081.2449      1.2438098      0.71080465   
     18800  -4788.2174     -4827.203       38.98562       3565.8946      299.50931      8089.142       1.2425955      0.71080465   
     18900  -4787.4719     -4827.4408      39.968946      6152.1823      307.06377      8096.052       1.241535       0.71080465   
     19000  -4786.8776     -4825.8368      38.959191      5154.6161      299.30627      8103.6282      1.2403742      0.70310253   
     19100  -4784.3751     -4825.6949      41.319806      2991.6791      317.44183      8112.7677      1.2389769      0.70310253   
     19200  -4785.1475     -4825.0915      39.943991      3617.2395      306.87206      8123.0994      1.237401       0.70310253   
     19300  -4785.1556     -4825.098       39.942443      7208.3465      306.86016      8132.234       1.2360111      0.70310253   
     19400  -4785.9156     -4825.9657      40.050092      4518.9103      307.68719      8141.4729      1.2346085      0.70310253   
     19500  -4785.3982     -4824.8406      39.44236       5198.4436      303.01825      8147.2182      1.2337379      0.70310253   
     19600  -4785.7275     -4826.069       40.341509      4774.9639      309.92601      8147.302       1.2337252      0.70310253   
     19700  -4786.8056     -4826.2495      39.443918      4435.6549      303.03022      8143.483       1.2343038      0.70310253   
     19800  -4786.9106     -4826.7591      39.848551      3322.9616      306.13883      8135.0361      1.2355854      0.70310253   
     19900  -4788.4617     -4826.6755      38.213848      6232.4035      293.58013      8121.0807      1.2377086      0.70310253   
     20000  -4788.0427     -4826.4903      38.447557      1270.4229      295.37562      8098.291       1.2411917      0.75131814   
     20100  -4787.4068     -4827.1343      39.727483      1065.6942      305.20872      8070.6098      1.2454489      0.75131814   
     20200  -4787.4038     -4825.7525      38.348726      226.18623      294.61634      8045.7349      1.2492994      0.75131814   
     20300  -4784.6811     -4826.6812      42.000081      3302.7936      322.66809      8028.7752      1.2519384      0.75131814   
     20400  -4787.4259     -4825.9583      38.532427      8935.5349      296.02763      8026.8357      1.2522409      0.75131814   
     20500  -4787.9782     -4826.6261      38.647847      6294.5547      296.91436      8041.9283      1.2498907      0.75131814   
     20600  -4788.1181     -4827.7545      39.636418      5684.5266      304.50911      8069.3137      1.2456489      0.75131814   
     20700  -4786.9927     -4826.8714      39.87868       4758.628       306.37031      8099.9094      1.2409437      0.75131814   
     20800  -4787.6533     -4824.6033      36.950005      213.47539      283.87058      8132.3361      1.2359956      0.75131814   
     20900  -4788.9537     -4828.8355      39.881838     -275.94402      306.39457      8158.5668      1.2320217      0.75131814   
     21000  -4788.7047     -4827.848       39.143254      2471.9354      300.72035      8164.2108      1.23117        0.7376903    
     21100  -4789.0698     -4827.4521      38.382325      450.92896      294.87446      8151.4222      1.2331016      0.7376903    
     21200  -4787.9321     -4827.0851      39.153054      1402.5848      300.79564      8119.573       1.2379385      0.7376903    
     21300  -4786.9186     -4826.8358      39.917262      1346.1942      306.66671      8080.1081      1.2439848      0.7376903    
     21400  -4787.0446     -4826.2281      39.183544      4408.0845      301.02988      8042.6581      1.2497773      0.7376903    
     21500  -4786.6577     -4826.8325      40.174785      5673.8363      308.64515      8012.8019      1.2544341      0.7376903    
     21600  -4786.1811     -4826.0294      39.848234      5690.9217      306.1364       7992.8514      1.2575652      0.7376903    
     21700  -4786.7533     -4825.6522      38.898895      8498.304       298.84304      7986.2443      1.2586056      0.7376903    
     21800  -4787.3499     -4826.3924      39.042543      6812.1151      299.94663      7995.0649      1.257217       0.7376903    
     21900  -4786.7286     -4825.2017      38.473179      6131.5499      295.57246      8017.774       1.2536561      0.7376903    
     22000  -4787.8137     -4826.8533      39.039626      4861.8623      299.92422      8047.9287      1.2489588      0.69394035   
     22100  -4789.4558     -4827.156       37.700232      5230.2825      289.63425      8078.5524      1.2442244      0.69394035   
     22200  -4788.5838     -4827.6865      39.102653      1979.5039      300.40843      8103.0318      1.2404655      0.69394035   
     22300  -4787.6663     -4827.138       39.471614      2946.9668      303.24299      8118.4028      1.2381169      0.69394035   
     22400  -4788.0753     -4826.9667      38.891357      1425.4076      298.78514      8122.9987      1.2374164      0.69394035   
     22500  -4789.3918     -4827.3876      37.995718      2549.5865      291.90433      8119.0386      1.2380199      0.69394035   
     22600  -4788.8964     -4826.3465      37.450116      6944.8579      287.71271      8109.6613      1.2394515      0.69394035   
     22700  -4787.7223     -4827.606       39.883693      5944.1842      306.40881      8095.6729      1.2415931      0.69394035   
     22800  -4784.9965     -4825.8353      40.838773      1054.5652      313.74627      8081.3072      1.2438002      0.69394035   
     22900  -4785.0291     -4825.3929      40.363757      3259.5638      310.09693      8071.2192      1.2453548      0.69394035   
     23000  -4785.1157     -4825.1262      40.010429      7345.1867      307.38247      8062.1656      1.2467533      0.72241906   
     23100  -4786.2192     -4826.0908      39.87164       5395.8284      306.31622      8058.3955      1.2473366      0.72241906   
     23200  -4785.9355     -4826.0975      40.162033      3513.7593      308.54718      8060.0473      1.247081       0.72241906   
     23300  -4787.3226     -4826.6631      39.340563      8017.0918      302.23618      8066.6799      1.2460556      0.72241906   
     23400  -4787.503      -4827.2195      39.716501      4114.5078      305.12435      8074.9809      1.2447747      0.72241906   
     23500  -4787.5468     -4826.6452      39.098493      2694.5208      300.37647      8083.1425      1.2435178      0.72241906   
     23600  -4787.7982     -4827.08        39.281813      5817.5805      301.78484      8093.858       1.2418715      0.72241906   
     23700  -4787.6573     -4827.7675      40.11018       3523.1564      308.14882      8100.7483      1.2408152      0.72241906   
     23800  -4788.6667     -4827.1611      38.49441       3420.7425      295.73556      8099.3191      1.2410342      0.72241906   
     23900  -4789.1214     -4827.9711      38.849703      3227.3686      298.46512      8089.3643      1.2425614      0.72241906   
     24000  -4789.0778     -4827.26        38.182166      2723.4951      293.33674      8072.6128      1.2451398      0.72450601   
     24100  -4788.4722     -4826.8714      38.399176      6073.7446      295.00393      8054.4706      1.2479444      0.72450601   
     24200  -4787.6991     -4826.8336      39.134522      8953.472       300.65326      8039.3927      1.250285       0.72450601   
     24300  -4787.8923     -4826.9883      39.096078      4983.7268      300.35791      8031.3069      1.2515437      0.72450601   
     24400  -4786.9858     -4826.1371      39.151275      2781.6867      300.78197      8031.325       1.2515409      0.72450601   
     24500  -4786.6808     -4825.5264      38.8456        2372.5402      298.43361      8038.5116      1.250422       0.72450601   
     24600  -4786.7207     -4824.9767      38.25596       4982.4309      293.90366      8050.5384      1.248554       0.72450601   
     24700  -4786.7672     -4828.003       41.235843      6371.5253      316.79679      8067.2227      1.2459718      0.72450601   
     24800  -4787.1398     -4827.1906      40.050822      3169.4117      307.69279      8085.2402      1.2431952      0.72450601   
     24900  -4785.7451     -4825.8074      40.062284      3456.8562      307.78085      8104.0249      1.2403135      0.72450601   
     25000  -4785.4421     -4825.9524      40.510324      5149.8315      311.22295      8118.2411      1.2381416      0.75342481   
     25100  -4786.4184     -4825.7968      39.378362      2794.528       302.52658      8126.0478      1.2369521      0.75342481   
     25200  -4786.2042     -4824.7932      38.588953      2713.788       296.4619       8127.283       1.2367641      0.75342481   
     25300  -4784.941      -4824.0678      39.126814      2746.9379      300.59405      8121.425       1.2376562      0.75342481   
     25400  -4785.923      -4826.1736      40.250585      1882.3813      309.22749      8112.4005      1.239033       0.75342481   
     25500  -4786.3649     -4825.1128      38.747867      4492.5036      297.68276      8093.4743      1.2419304      0.75342481   
     25600  -4787.295      -4826.1874      38.892467      5816.3579      298.79366      8067.3593      1.2459507      0.75342481   
     25700  -4786.7707     -4825.5588      38.788103      6071.2369      297.99188      8041.9133      1.2498931      0.75342481   
     25800  -4786.2429     -4827.1124      40.869485      4747.2907      313.98222      8022.7544      1.2528779      0.75342481   
     25900  -4786.4851     -4825.8337      39.348628      5847.465       302.29815      8015.8149      1.2539626      0.75342481   
     26000  -4785.4734     -4824.7926      39.319204      3993.8146      302.07209      8024.4888      1.2526071      0.74809266   
     26100  -4784.3166     -4824.5426      40.225981      4238.0035      309.03846      8048.8159      1.2488212      0.74809266   
     26200  -4786.3343     -4825.1008      38.766473      7930.8791      297.82571      8083.7835      1.2434192      0.74809266   
     26300  -4787.6328     -4827.0034      39.370563      3818.7646      302.46666      8121.6571      1.2376208      0.74809266   
     26400  -4788.788      -4826.7363      37.948245      3227.9656      291.53962      8150.1069      1.2333006      0.74809266   
     26500  -4787.8401     -4826.4672      38.627051      4116.7271      296.75459      8163.9856      1.231204       0.74809266   
     26600  -4786.9156     -4825.1373      38.221662      1890.0518      293.64017      8162.9257      1.2313639      0.74809266   
     26700  -4787.1584     -4826.6847      39.526289      1783.4293      303.66304      8153.6056      1.2327714      0.74809266   
     26800  -4787.1438     -4828.0194      40.875641      383.08081      314.02951      8133.6429      1.235797       0.74809266   
     26900  -4785.9339     -4825.545       39.611029      2838.6808      304.31406      8103.7286      1.2403589      0.74809266   
     27000  -4786.3233     -4825.6341      39.310757      4232.2057      302.0072       8075.0238      1.2447681      0.76738777   
     27100  -4785.4744     -4826.3834      40.908936      7240.4425      314.28531      8054.7552      1.2479003      0.76738777   
     27200  -4785.5054     -4826.4378      40.932434      4150.5911      314.46583      8045.4721      1.2493402      0.76738777   
     27300  -4785.9866     -4825.5032      39.516623      4590.2845      303.58878      8043.2982      1.2496779      0.76738777   
     27400  -4786.3494     -4826.3035      39.954113      5755.9673      306.94982      8048.8056      1.2488228      0.76738777   
     27500  -4787.539      -4827.0457      39.506743      5222.283       303.51288      8059.6955      1.2471354      0.76738777   
     27600  -4787.1747     -4826.3564      39.181739      5143.2027      301.01601      8071.5337      1.2453063      0.76738777   
     27700  -4787.9637     -4827.2548      39.291102      6094.494       301.8562       8083.7997      1.2434167      0.76738777   
     27800  -4788.9363     -4827.7634      38.827154      5479.1919      298.29189      8092.7001      1.2420492      0.76738777   
     27900  -4789.1221     -4827.9026      38.780517      4767.7345      297.9336       8094.7345      1.241737       0.76738777   
     28000  -4789.4801     -4828.2479      38.767814      661.45004      297.83601      8088.0582      1.242762       0.72041114   
     28100  -4787.9438     -4827.2847      39.340887      1466.4038      302.23867      8077.6323      1.2443661      0.72041114   
     28200  -4788.4721     -4826.8461      38.374086      2956.1572      294.81117      8066.8948      1.2460224      0.72041114   
     28300  -4787.6283     -4826.1575      38.529239      4530.9347      296.00314      8058.9261      1.2472545      0.72041114   
     28400  -4787.9521     -4826.7854      38.833343      4121.1856      298.33944      8051.2087      1.24845        0.72041114   
     28500  -4787.2224     -4826.7624      39.539928     -314.22833      303.76782      8046.3682      1.2492011      0.72041114   
     28600  -4788.6195     -4828.0018      39.382293      4324.6638      302.55678      8041.3105      1.2499868      0.72041114   
     28700  -4790.8438     -4828.4754      37.631523      4370.3686      289.10638      8037.4842      1.2505818      0.72041114   
     28800  -4790.3119     -4829.869       39.55709       3252.7001      303.89967      8032.3012      1.2513888      0.72041114   
     28900  -4789.7108     -4827.7702      38.059393      4657.329       292.39353      8026.7476      1.2522546      0.72041114   
     29000  -4788.6521     -4827.4991      38.847024      4857.0107      298.44455      8024.934       1.2525376      0.72057842   
     29100  -4788.5319     -4826.7812      38.249291      6160.738       293.85242      8030.0983      1.2517321      0.72057842   
     29200  -4787.3372     -4827.7243      40.387042      1346.0538      310.27582      8043.8499      1.2495922      0.72057842   
     29300  -4786.6037     -4825.4183      38.814634      5907.7318      298.19571      8060.6292      1.246991       0.72057842   
     29400  -4786.8925     -4826.7738      39.881306      4024.2731      306.39048      8082.2659      1.2436527      0.72057842   
     29500  -4785.9721     -4824.9108      38.938744      5007.711       299.14919      8101.4075      1.2407142      0.72057842   
     29600  -4787.0529     -4825.5792      38.526348      2498.3082      295.98093      8120.0844      1.2378605      0.72057842   
     29700  -4785.7575     -4824.1239      38.366399      3368.8613      294.75211      8132.6761      1.2359439      0.72057842   
     29800  -4786.6481     -4826.3154      39.667381      830.0064       304.74699      8142.3107      1.2344815      0.72057842   
     29900  -4786.1532     -4825.0634      38.910237      2594.3914      298.93018      8142.19        1.2344998      0.72057842   
     30000  -4786.9362     -4827.6635      40.727339      3178.1316      312.89018      8133.0938      1.2358805      0.83406854   
     30100  -4787.9487     -4827.1394      39.190744      3618.4742      301.08519      8110.8943      1.2392631      0.83406854   
     30200  -4789.0707     -4827.509       38.43829       2381.61        295.30443      8071.2669      1.2453475      0.83406854   
     30300  -4788.7485     -4827.6592      38.910701      5085.4058      298.93375      8018.3944      1.2535592      0.83406854   
     30400  -4788.3327     -4827.7626      39.429844      5592.582       302.9221       7963.7169      1.2621659      0.83406854   
     30500  -4787.9245     -4826.7554      38.830836      4351.0657      298.32018      7917.2116      1.2695798      0.83406854   
     30600  -4788.3979     -4827.4747      39.076784      6464.4887      300.20969      7890.2057      1.2739252      0.83406854   
     30700  -4790.3784     -4827.5644      37.186026      4747.5866      285.68383      7889.741       1.2740002      0.83406854   
     30800  -4789.276      -4826.9203      37.644317      4276.5362      289.20468      7916.2268      1.2697377      0.83406854   
     30900  -4789.3796     -4828.4773      39.097666      8838.3918      300.37012      7964.7991      1.2619944      0.83406854   
     31000  -4788.726      -4827.1473      38.42133       3417.9643      295.17413      8027.8341      1.2520851      0.71652831   
     31100  -4787.8868     -4827.3777      39.490925      5878.898       303.39135      8095.2776      1.2416537      0.71652831   
     31200  -4788.3668     -4827.3694      39.002561      1971.9471      299.63947      8153.3894      1.2328041      0.71652831   
     31300  -4785.5308     -4825.7387      40.207829      2038.6977      308.89901      8189.1023      1.2274278      0.71652831   
     31400  -4786.6754     -4825.117       38.441523      1025.858       295.32926      8200.4947      1.2257226      0.71652831   
     31500  -4786.7118     -4825.0235      38.311719      3421.4858      294.33204      8192.2958      1.2269493      0.71652831   
     31600  -4786.7881     -4826.4433      39.655219      3814.3272      304.65355      8167.4965      1.2306747      0.71652831   
     31700  -4786.6954     -4825.8334      39.137939      3190.9467      300.67952      8128.9149      1.2365158      0.71652831   
     31800  -4786.631      -4828.1468      41.515816      4128.8375      318.94769      8078.6475      1.2442097      0.71652831   
     31900  -4785.2834     -4825.3899      40.106468      4078.7859      308.1203       8029.2798      1.2518597      0.71652831   
     32000  -4785.3674     -4826.4824      41.11501       5445.3733      315.86848      7990.2294      1.2579779      0.67122157   
     32100  -4786.5953     -4826.4786      39.883351      7709.5539      306.40619      7967.1712      1.2616186      0.67122157   
     32200  -4787.1108     -4826.7633      39.65243       6885.6999      304.63212      7966.4637      1.2617307      0.67122157   
     32300  -4786.827      -4825.77        38.942951      4879.6467      299.18151      7984.763       1.2588391      0.67122157   
     32400  -4787.7462     -4827.0195      39.273219      3049.6339      301.71882      8016.8922      1.2537941      0.67122157   
     32500  -4788.0228     -4827.0574      39.034606      2750.882       299.88565      8053.1648      1.2481468      0.67122157   
     32600  -4788.5995     -4827.6162      39.016684      3862.074       299.74797      8087.1393      1.2429033      0.67122157   
     32700  -4788.8242     -4827.1923      38.368116      2580.9385      294.7653       8113.5741      1.2388538      0.67122157   
     32800  -4788.7142     -4825.3431      36.628817      2134.7391      281.40304      8128.2818      1.2366121      0.67122157   
     32900  -4788.7682     -4827.5939      38.825686     -1473.2495      298.28061      8131.6995      1.2360924      0.67122157   
     33000  -4788.1437     -4826.9009      38.75716       2441.4824      297.75416      8122.6947      1.2374627      0.76541142   
     33100  -4788.1524     -4828.3115      40.159114      544.26854      308.52475      8102.9138      1.2404836      0.76541142   
     33200  -4788.5309     -4826.671       38.140071      2328.9095      293.01334      8074.4821      1.2448516      0.76541142   
     33300  -4787.5444     -4826.5103      38.965917      4826.4394      299.35795      8041.6761      1.2499299      0.76541142   
     33400  -4786.5276     -4827.5208      40.99327       6827.6572      314.9332       8012.865       1.2544242      0.76541142   
     33500  -4786.9538     -4827.2165      40.262744      5946.678       309.3209       7994.9644      1.2572328      0.76541142   
     33600  -4786.9837     -4827.5665      40.582834      6365.7862      311.78001      7991.8006      1.2577305      0.76541142   
     33700  -4787.0976     -4827.7647      40.667153      5230.9563      312.42779      8006.3434      1.255446       0.76541142   
     33800  -4785.7052     -4825.8663      40.161157      6266.9648      308.54045      8032.1338      1.2514149      0.76541142   
     33900  -4786.386      -4825.6188      39.232841      7458.0641      301.4086       8063.7785      1.2465039      0.76541142   
     34000  -4786.3256     -4826.7944      40.46877       4898.379       310.9037       8095.8989      1.2415584      0.75042046   
     34100  -4786.6278     -4825.998       39.370111      1510.886       302.46319      8129.4495      1.2364345      0.75042046   
     34200  -4786.9486     -4826.3193      39.370706      2707.0217      302.46776      8156.8058      1.2322877      0.75042046   
     34300  -4785.7327     -4824.989       39.256291     -2232.8908      301.58876      8173.7826      1.2297283      0.75042046   
     34400  -4785.4899     -4824.2442      38.754306      1037.2981      297.73224      8176.6227      1.2293011      0.75042046   
     34500  -4784.347      -4824.2693      39.922294      1487.6983      306.70537      8162.3272      1.2314541      0.75042046   
     34600  -4784.8169     -4823.8716      39.054677      3050.1909      300.03985      8132.2214      1.236013       0.75042046   
     34700  -4784.9798     -4824.4883      39.508471      2562.8093      303.52615      8092.3909      1.2420967      0.75042046   
     34800  -4785.691      -4826.0422      40.35119       2157.6638      310.00039      8053.3523      1.2481177      0.75042046   
     34900  -4782.6637     -4824.0029      41.339209      7727.1688      317.5909       8021.1013      1.2531361      0.75042046   
     35000  -4784.3255     -4825.1263      40.800796      5662.1364      313.45451      8004.2456      1.255775       0.70235344   
     35100  -4783.342      -4824.4965      41.154516      6016.873       316.17199      8005.5372      1.2555724      0.70235344   
     35200  -4781.7268     -4824.113       42.386162      2966.7666      325.63418      8026.7876      1.2522484      0.70235344   
     35300  -4781.518      -4821.7628      40.244828      3043.5236      309.18326      8069.5513      1.2456122      0.70235344   
     35400  -4783.788      -4822.8291      39.041131      2492.49        299.93578      8127.0156      1.2368048      0.70235344   
     35500  -4784.0387     -4824.5022      40.463492      2197.2098      310.86316      8185.6962      1.2279385      0.70235344   
     35600  -4783.9573     -4824.6823      40.724958      2929.7156      312.87188      8234.8492      1.2206091      0.70235344   
     35700  -4783.9299     -4824.5073      40.577395      824.82706      311.73822      8267.0923      1.2158485      0.70235344   
     35800  -4784.2127     -4824.658       40.445265      84.060884      310.72313      8279.0287      1.2140955      0.70235344   
     35900  -4784.8278     -4823.642       38.814196      2931.1663      298.19234      8267.8755      1.2157333      0.70235344   
     36000  -4785.8466     -4824.6928      38.846282      2094.9012      298.43885      8237.493       1.2202173      0.74433203   
     36100  -4785.7763     -4825.6551      39.878814      3269.2261      306.37133      8185.3879      1.2279848      0.74433203   
     36200  -4786.95       -4826.5504      39.600371      3582.1681      304.23218      8121.6706      1.2376187      0.74433203   
     36300  -4785.2567     -4826.2738      41.01702       3670.103       315.11567      8063.4711      1.2465515      0.74433203   
     36400  -4785.657      -4827.2705      41.613463      2016.3934      319.69788      8020.9809      1.2531549      0.74433203   
     36500  -4786.3853     -4826.1694      39.784095      4860.7257      305.64365      7997.1274      1.2568928      0.74433203   
     36600  -4786.0151     -4825.7875      39.772423      5636.5785      305.55398      7994.5599      1.2572964      0.74433203   
     36700  -4786.1757     -4826.4713      40.295517      7395.8156      309.57268      8006.0753      1.255488       0.74433203   
     36800  -4785.5147     -4825.6689      40.154249      6190.852       308.48737      8030.2132      1.2517142      0.74433203   
     36900  -4786.2249     -4827.2593      41.034377      3955.3296      315.24901      8066.8374      1.2460313      0.74433203   
     37000  -4785.2706     -4825.924       40.653344      5374.8381      312.32171      8106.3921      1.2399513      0.77071952   
     37100  -4783.9979     -4824.5292      40.531324      2161.5115      311.38428      8145.8497      1.2339451      0.77071952   
     37200  -4784.0098     -4824.1169      40.107035      4358.3556      308.12465      8183.1582      1.2283194      0.77071952   
     37300  -4784.614      -4824.9869      40.372851      333.83008      310.1668       8208.0498      1.2245944      0.77071952   
     37400  -4784.8403     -4825.9329      41.092629      2368.587       315.69654      8213.1094      1.22384        0.77071952   
     37500  -4784.736      -4826.323       41.587071      4777.2912      319.49512      8202.1322      1.2254779      0.77071952   
     37600  -4783.5851     -4824.3756      40.79053       2383.2826      313.37564      8177.0086      1.2292431      0.77071952   
     37700  -4784.2        -4823.6191      39.419058      3156.3059      302.83923      8143.2971      1.2343319      0.77071952   
     37800  -4784.4861     -4825.2004      40.714268      4547.419       312.78975      8107.6391      1.2397606      0.77071952   
     37900  -4784.7881     -4825.509       40.720902      2575.917       312.84072      8072.5229      1.2451537      0.77071952   
     38000  -4785.087      -4825.7965      40.709482      5439.923       312.75299      8043.8742      1.2495884      0.80068895   
     38100  -4784.5936     -4824.7289      40.13523       1701.7197      308.34126      8028.8523      1.2519263      0.80068895   
     38200  -4784.1957     -4823.9285      39.732745      1947.4759      305.24915      8028.8677      1.2519239      0.80068895   
     38300  -4784.7833     -4826.4028      41.619478      6853.0798      319.74409      8044.3877      1.2495086      0.80068895   
     38400  -4786.3725     -4826.4065      40.033963      8006.2604      307.56328      8073.436       1.2450129      0.80068895   
     38500  -4786.1432     -4826.0387      39.895548      1985.7261      306.49989      8107.5993      1.2397667      0.80068895   
     38600  -4787.1591     -4826.1351      38.975997      3030.842       299.43539      8138.5051      1.2350587      0.80068895   
     38700  -4787.9537     -4827.4095      39.45583      -699.80923      303.12173      8163.637       1.2312566      0.80068895   
     38800  -4788.1155     -4826.0189      37.903432      2409.9219      291.19534      8176.1227      1.2293763      0.80068895   
     38900  -4788.3522     -4828.6977      40.345521      4313.1023      309.95684      8174.1466      1.2296735      0.80068895   
     39000  -4789.4249     -4826.6547      37.229787      8347.7944      286.02002      8153.1913      1.232834       0.71443588   
     39100  -4788.5076     -4826.7502      38.242564      1447.4408      293.80074      8119.5867      1.2379364      0.71443588   
     39200  -4788.9488     -4827.3969      38.448116      2739.8111      295.37991      8075.735       1.2446584      0.71443588   
     39300  -4789.5855     -4826.9162      37.330694      4554.5935      286.79525      8031.6475      1.2514906      0.71443588   
     39400  -4789.1076     -4828.3986      39.291035      4985.6903      301.85569      7996.2939      1.2570238      0.71443588   
     39500  -4787.2147     -4827.5066      40.29189       6555.9009      309.54481      7972.9797      1.2606995      0.71443588   
     39600  -4788.1759     -4827.1317      38.955763      9888.3851      299.27994      7971.207       1.2609799      0.71443588   
     39700  -4787.7631     -4827.2145      39.451442      7043.9473      303.08802      7988.969       1.2581763      0.71443588   
     39800  -4788.0637     -4826.4933      38.429563      4396.0551      295.23738      8016.5742      1.2538438      0.71443588   
     39900  -4788.3904     -4827.7361      39.345652      5821.5565      302.27528      8050.2229      1.2486029      0.71443588   
     40000  -4788.182      -4826.4699      38.287981      2904.9263      294.14967      8089.4976      1.2425409      0.72595727   
     40100  -4787.3162     -4827.3411      40.024889      5518.57        307.49356      8125.9198      1.2369716      0.72595727   
     40200  -4787.3367     -4825.3324      37.995695      6338.3502      291.90416      8155.873       1.2324287      0.72595727   
     40300  -4787.9006     -4825.8705      37.969912      1750.105       291.70608      8173.4548      1.2297776      0.72595727   
     40400  -4788.0486     -4826.8317      38.783133      4323.8363      297.9537       8174.4446      1.2296287      0.72595727   
     40500  -4786.3874     -4825.9593      39.571915      4765.3375      304.01357      8160.5308      1.2317252      0.72595727   
     40600  -4785.4877     -4825.9759      40.488124      2566.849       311.05239      8133.6685      1.2357931      0.72595727   
     40700  -4785.8027     -4825.0179      39.215137      2981.0168      301.27259      8097.1397      1.2413682      0.72595727   
     40800  -4786.1572     -4826.5461      40.388934      5231.5504      310.29036      8059.9549      1.2470953      0.72595727   
     40900  -4785.7317     -4826.4047      40.67295       9673.1704      312.47233      8033.7913      1.2511567      0.72595727   
     41000  -4786.5354     -4826.1983      39.662978      7586.9389      304.71316      8022.7304      1.2528816      0.80179662   
     41100  -4787.7317     -4827.3707      39.639038      4969.2749      304.52924      8026.8496      1.2522387      0.80179662   
     41200  -4786.5875     -4826.0098      39.422324      6905.2083      302.86432      8039.8746      1.25021        0.80179662   
     41300  -4786.6829     -4826.2394      39.556414      4700.0607      303.89448      8061.2308      1.2468979      0.80179662   
     41400  -4784.2575     -4824.4203      40.16274       4094.5456      308.55261      8085.405       1.2431698      0.80179662   
     41500  -4785.1563     -4823.8685      38.712294      4694.0554      297.40947      8115.2366      1.2386         0.80179662   
     41600  -4784.8144     -4824.0617      39.24728       5920.732       301.51953      8141.6942      1.2345749      0.80179662   
     41700  -4784.5809     -4826.316       41.735129      3738.9217      320.63258      8163.5416      1.231271       0.80179662   
     41800  -4785.1646     -4825.3879      40.223346      2211.6611      309.01822      8176.445       1.2293279      0.80179662   
     41900  -4786.169      -4825.9901      39.82107       6045.8755      305.92771      8182.7552      1.2283799      0.80179662   
     42000  -4785.7992     -4825.4991      39.699938      2819.1815      304.9971       8179.751       1.228831       0.79443608   
     42100  -4786.1163     -4826.7127      40.596463      2572.0512      311.88471      8164.3145      1.2311544      0.79443608   
     42200  -4786.5214     -4825.9214      39.400054      5396.9201      302.69323      8139.2234      1.2349497      0.79443608   
     42300  -4785.2373     -4826.9064      41.669051      3733.5065      320.12494      8108.0879      1.239692       0.79443608   
     42400  -4784.4199     -4824.4373      40.017425      3712.0597      307.43622      8069.5427      1.2456135      0.79443608   
     42500  -4784.1141     -4823.9684      39.854294      3834.4526      306.18296      8038.894       1.2503625      0.79443608   
     42600  -4784.0926     -4824.2298      40.13717       6921.7243      308.35617      8023.4175      1.2527743      0.79443608   
     42700  -4784.2622     -4825.6628      41.400641      4785.968       318.06286      8024.7464      1.2525669      0.79443608   
     42800  -4785.2288     -4825.8277      40.598945      6406.2316      311.90378      8041.3676      1.2499779      0.79443608   
     42900  -4785.7087     -4825.1587      39.450024      4315.6427      303.07713      8071.4852      1.2453138      0.79443608   
     43000  -4784.9425     -4826.4629      41.520446      2705.9448      318.98326      8109.915       1.2394127      0.77914288   
     43100  -4786.7035     -4826.5922      39.888677      3985.0371      306.44711      8149.1615      1.2334437      0.77914288   
     43200  -4785.9613     -4826.1131      40.151782      3429.3286      308.46842      8182.1128      1.2284763      0.77914288   
     43300  -4786.817      -4825.5074      38.690407     -597.78799      297.24132      8201.3122      1.2256004      0.77914288   
     43400  -4788.0971     -4827.3058      39.208664      1630.9255      301.22287      8203.8024      1.2252284      0.77914288   
     43500  -4787.8618     -4826.8464      38.984645      3863.9717      299.50183      8184.7991      1.2280731      0.77914288   
     43600  -4787.4564     -4826.085       38.628585      1933.0566      296.76637      8146.0972      1.2339077      0.77914288   
     43700  -4787.5941     -4826.5279      38.933804     -1017.9868      299.11124      8094.7835      1.2417295      0.77914288   
     43800  -4788.7633     -4826.5036      37.740297      4162.2845      289.94205      8040.6463      1.25009        0.77914288   
     43900  -4788.952      -4827.8224      38.870376      3844.6938      298.62395      7997.8044      1.2567864      0.77914288   
     44000  -4789.0416     -4828.3921      39.350507      7022.9385      302.31258      7970.0085      1.2611695      0.69204046   
     44100  -4787.4045     -4827.518       40.113464      6429.1331      308.17404      7961.0244      1.2625927      0.69204046   
     44200  -4787.4989     -4825.5393      38.040457      4085.5027      292.24804      7972.1385      1.2608325      0.69204046   
     44300  -4787.7868     -4826.7947      39.007909      3720.8001      299.68055      8004.6726      1.255708       0.69204046   
     44400  -4788.3525     -4828.459       40.106489      4732.3807      308.12046      8047.6674      1.2489994      0.69204046   
     44500  -4788.7817     -4827.463       38.681297      3585.2866      297.17134      8094.1114      1.2418326      0.69204046   
     44600  -4788.3948     -4826.6417      38.246864      4566.4057      293.83378      8134.8043      1.2356206      0.69204046   
     44700  -4786.3878     -4826.0472      39.659367      1587.6411      304.68542      8162.7195      1.231395       0.69204046   
     44800  -4786.9125     -4825.5972      38.684673      666.89584      297.19728      8173.1635      1.2298214      0.69204046   
     44900  -4785.6706     -4825.3861      39.715502      4390.0955      305.11668      8171.2513      1.2301092      0.69204046   
     45000  -4785.057      -4826.6177      41.560638      3907.7483      319.29204      8160.6722      1.2317039      0.73352575   
     45100  -4786.561      -4825.4829      38.921962      2755.572       299.02026      8142.4172      1.2344653      0.73352575   
     45200  -4786.929      -4826.1499      39.220856      3790.2895      301.31653      8116.22        1.2384499      0.73352575   
     45300  -4787.4702     -4825.5644      38.094195      4373.9305      292.66089      8082.3671      1.2436371      0.73352575   
     45400  -4787.9948     -4827.2856      39.290775      6480.9675      301.85369      8050.7746      1.2485173      0.73352575   
     45500  -4789.1301     -4828.06        38.92988       3961.6304      299.08109      8029.8825      1.2517657      0.73352575   
     45600  -4788.0623     -4828.2992      40.236819      3109.1716      309.12173      8016.7351      1.2538186      0.73352575   
     45700  -4787.9259     -4827.5599      39.633994      4353.1569      304.49049      8009.1225      1.2550104      0.73352575   
     45800  -4789.9478     -4827.8324      37.884632      3913.3926      291.05091      8008.1157      1.2551681      0.73352575   
     45900  -4789.0225     -4828.226       39.203436      4963.2509      301.1827       8014.1183      1.254228       0.73352575   
     46000  -4790.4587     -4828.0189      37.560185      6037.8308      288.55833      8028.4112      1.2519951      0.6923943    
     46100  -4788.6852     -4827.516       38.830841      5076.2448      298.32022      8043.7214      1.2496121      0.6923943    
     46200  -4789.7369     -4827.8272      38.090389      4171.1149      292.63165      8059.3094      1.2471952      0.6923943    
     46300  -4789.9884     -4827.7035      37.715144      2494.3282      289.74881      8073.972       1.2449302      0.6923943    
     46400  -4789.9569     -4827.3257      37.368739      1795.2995      287.08754      8087.0368      1.242919       0.6923943    
     46500  -4790.9029     -4829.0898      38.186885      5144.9129      293.37299      8094.7974      1.2417274      0.6923943    
     46600  -4790.7205     -4828.4132      37.692679      3901.4966      289.57622      8091.4946      1.2422342      0.6923943    
     46700  -4789.0699     -4828.433       39.363113      4043.5864      302.40943      8077.1509      1.2444403      0.6923943    
     46800  -4788.7309     -4827.5598      38.8289        5151.6495      298.3053       8055.8299      1.2477338      0.6923943    
     46900  -4789.3935     -4826.2565      36.863        -35.906482      283.20216      8029.7907      1.25178        0.6923943    
     47000  -4788.9036     -4827.3442      38.440619      3462.5517      295.32231      8006.5148      1.2554191      0.75860142   
     47100  -4789.1963     -4827.8159      38.619573      1563.6         296.69714      7993.0083      1.2575405      0.75860142   
     47200  -4788.6427     -4828.0887      39.445933      1277.2649      303.0457       7985.3269      1.2587502      0.75860142   
     47300  -4787.5061     -4826.6475      39.141399      6272.6144      300.70609      7984.6428      1.258858       0.75860142   
     47400  -4787.2025     -4825.9756      38.773131      4000.7082      297.87686      7994.5046      1.2573051      0.75860142   
     47500  -4786.7805     -4825.2797      38.499192      2755.7338      295.77231      8014.6977      1.2541373      0.75860142   
     47600  -4788.3435     -4826.6598      38.316336      5227.2087      294.3675       8046.2371      1.2492214      0.75860142   
     47700  -4787.7967     -4827.3985      39.601806      503.06124      304.2432       8082.9712      1.2435442      0.75860142   
     47800  -4788.7414     -4828.3528      39.611409      3440.1692      304.31698      8113.3057      1.2388947      0.75860142   
     47900  -4789.0576     -4827.6649      38.607362      1480.7774      296.60332      8129.3444      1.2364505      0.75860142   
     48000  -4788.4383     -4827.0662      38.62794       3688.6016      296.76142      8128.2423      1.2366181      0.73261149   
     48100  -4787.8847     -4826.3869      38.502222      4217.3435      295.79559      8110.4928      1.2393244      0.73261149   
     48200  -4787.1425     -4827.3085      40.166086      958.10196      308.57831      8078.9533      1.2441626      0.73261149   
     48300  -4786.4303     -4826.0617      39.631406      4654.0384      304.4706       8040.6577      1.2500882      0.73261149   
     48400  -4785.6394     -4825.4346      39.795209      3221.9792      305.72903      8004.7615      1.2556941      0.73261149   
     48500  -4787.2475     -4827.4827      40.235228      6869.4184      309.10951      7976.8683      1.260085       0.73261149   
     48600  -4788.1736     -4827.7625      39.588926      7091.5958      304.14425      7962.3832      1.2623773      0.73261149   
     48700  -4788.3283     -4827.4351      39.106762      7598.4393      300.44         7959.4699      1.2628393      0.73261149   
     48800  -4788.5358     -4826.9116      38.375792      4634.769       294.82427      7966.8505      1.2616694      0.73261149   
     48900  -4788.1469     -4826.7361      38.589154      5595.1797      296.46344      7982.2386      1.2592372      0.73261149   
     49000  -4788.5885     -4827.0079      38.419344      2926.5119      295.15887      8006.0959      1.2554848      0.76229658   
     49100  -4789.3736     -4829.1722      39.798582      3223.2768      305.75494      8034.3438      1.2510706      0.76229658   
     49200  -4787.6958     -4828.8575      41.161686      4078.4318      316.22707      8062.2586      1.2467389      0.76229658   
     49300  -4787.2492     -4828.0526      40.803367      2988.2648      313.47427      8086.1689      1.2430524      0.76229658   
     49400  -4787.546      -4826.1712      38.625271      2306.6567      296.74092      8106.6667      1.2399093      0.76229658   
     49500  -4787.5104     -4825.8263      38.315883      5580.0934      294.36402      8119.5547      1.2379412      0.76229658   
     49600  -4787.0625     -4825.4091      38.346582      4116.3706      294.59987      8117.4339      1.2382647      0.76229658   
     49700  -4788.0161     -4826.8426      38.826488      2178.58        298.28678      8101.9868      1.2406255      0.76229658   
     49800  -4788.5495     -4826.9668      38.417279      2408.3457      295.143        8072.3551      1.2451796      0.76229658   
     49900  -4788.3512     -4828.1628      39.811566      4753.5279      305.8547       8034.4327      1.2510568      0.76229658   
     50000  -4786.7331     -4827.3541      40.620962      2987.2551      312.07293      7999.8617      1.2564632      0.72169292   
     50100  -4786.0408     -4826.6903      40.649534      8001.2976      312.29243      7980.1638      1.2595646      0.72169292   
     50200  -4785.4451     -4824.4514      39.006361      8828.4518      299.66866      7979.3169      1.2596983      0.72169292   
     50300  -4786.3567     -4825.6826      39.325927      3935.4543      302.12375      7994.142       1.2573622      0.72169292   
     50400  -4785.5359     -4826.8262      41.290314      2545.7889      317.21527      8017.02        1.2537741      0.72169292   
     50500  -4784.7189     -4824.882       40.163066      3281.5585      308.55511      8040.2562      1.2501507      0.72169292   
     50600  -4784.1304     -4824.8345      40.70405       68.830441      312.71126      8064.416       1.2464054      0.72169292   
     50700  -4786.0258     -4824.5146      38.488827      4043.9929      295.69268      8090.4605      1.242393       0.72169292   
     50800  -4785.9562     -4826.2816      40.325368      3760.462       309.80201      8112.6661      1.2389924      0.72169292   
     50900  -4786.6029     -4825.8314      39.228476      4364.2474      301.37507      8124.2309      1.2372287      0.72169292   
     51000  -4787.7612     -4826.1111      38.349952      1394.253       294.62576      8128.9579      1.2365093      0.73896128   
     51100  -4788.7969     -4827.5327      38.735818      2723.4439      297.5902       8121.6608      1.2376202      0.73896128   
     51200  -4788.3775     -4827.6146      39.237133      3173.1336      301.44158      8102.9785      1.2404737      0.73896128   
     51300  -4786.7812     -4826.3272      39.546086      4237.4022      303.81513      8076.9115      1.2444771      0.73896128   
     51400  -4787.4906     -4827.1388      39.648291      1450.4456      304.60033      8047.8753      1.2489671      0.73896128   
     51500  -4786.7427     -4827.0222      40.279458      1427.1103      309.4493       8018.585       1.2535294      0.73896128   
     51600  -4787.7863     -4826.9706      39.184318      4391.6861      301.03582      7995.1348      1.257206       0.73896128   
     51700  -4787.7047     -4828.1692      40.464472      3935.5636      310.87068      7978.8321      1.2597748      0.73896128   
     51800  -4787.9402     -4827.9267      39.986444      6007.4313      307.19821      7976.7119      1.2601097      0.73896128   
     51900  -4786.9608     -4825.8913      38.930505      10087.05       299.08589      7987.0141      1.2584843      0.73896128   
     52000  -4786.7804     -4825.6552      38.87482       5729.0107      298.65809      8007.8824      1.2552047      0.71714901   
     52100  -4787.68       -4827.9054      40.225413      3151.6351      309.0341       8033.6078      1.2511853      0.71714901   
     52200  -4787.2967     -4826.8838      39.587087      2042.9652      304.13012      8059.4658      1.247171       0.71714901   
     52300  -4787.7844     -4825.6931      37.908737      632.57426      291.2361       8083.5717      1.2434518      0.71714901   
     52400  -4786.3019     -4825.5216      39.219675      2036.9653      301.30746      8105.9012      1.2400264      0.71714901   
     52500  -4786.6196     -4825.9719      39.352327      3598.4497      302.32656      8125.258       1.2370723      0.71714901   
     52600  -4786.6968     -4826.528       39.831166      1991.7944      306.00527      8137.3629      1.2352321      0.71714901   
     52700  -4787.2186     -4825.7176      38.499078      1722.8992      295.77143      8135.3416      1.235539       0.71714901   
     52800  -4786.0403     -4825.1294      39.089099      1324.1293      300.3043       8120.5041      1.2377965      0.71714901   
     52900  -4786.1116     -4825.867       39.755354      4492.2013      305.42285      8097.1487      1.2413668      0.71714901   
     53000  -4785.675      -4825.118       39.442975      4880.0429      303.02297      8066.1472      1.2461379      0.7121389    
     53100  -4784.4823     -4825.1346      40.652295      3591.5217      312.31365      8031.7411      1.2514761      0.7121389    
     53200  -4784.7469     -4825.5924      40.845534      2526.8811      313.79822      8002.7789      1.2560052      0.7121389    
     53300  -4784.2055     -4825.3757      41.170218      5998.53        316.29262      7989.4763      1.2580964      0.7121389    
     53400  -4786.9122     -4826.9542      40.041984      3589.1755      307.62489      7993.6048      1.2574467      0.7121389    
     53500  -4786.9053     -4826.018       39.112711      1901.9925      300.4857       8011.7933      1.254592       0.7121389    
     53600  -4786.7368     -4826.3982      39.66134       4345.4925      304.70057      8042.0521      1.2498715      0.7121389    
     53700  -4787.1863     -4825.3353      38.14898       1223.4133      293.08178      8076.9716      1.2444679      0.7121389    
     53800  -4788.8855     -4826.494       37.608479      1328.1404      288.92935      8105.9793      1.2400145      0.7121389    
     53900  -4789.3825     -4828.0868      38.704262      1838.85        297.34776      8127.0236      1.2368036      0.7121389    
     54000  -4787.0603     -4826.7203      39.659981     -643.51365      304.69014      8134.6571      1.235643       0.75004996   
     54100  -4786.7696     -4827.1141      40.344526      1283.5925      309.94919      8133.5078      1.2358176      0.75004996   
     54200  -4786.4238     -4825.9018      39.477979      5791.2838      303.29189      8120.6306      1.2377772      0.75004996   
     54300  -4786.4504     -4826.5029      40.052489      1599.5703      307.7056       8100.7461      1.2408155      0.75004996   
     54400  -4785.9964     -4824.9617      38.965345      4293.2732      299.35355      8074.8183      1.2447997      0.75004996   
     54500  -4785.3245     -4824.9255      39.600983      3842.5909      304.23688      8047.1458      1.2490804      0.75004996   
     54600  -4785.5084     -4825.7413      40.232989      5641.3452      309.0923       8023.7834      1.2527172      0.75004996   
     54700  -4786.9873     -4827.0695      40.082209      6441.8526      307.93392      8008.0967      1.2551711      0.75004996   
     54800  -4788.1201     -4827.4489      39.328853      6548.1759      302.14623      8005.1304      1.2556362      0.75004996   
     54900  -4786.7187     -4827.089       40.370258      5202.5929      310.14688      8013.6658      1.2542988      0.75004996   
     55000  -4785.8243     -4825.7762      39.951897      2416.2517      306.93279      8028.188       1.2520299      0.70782873   
     55100  -4786.2878     -4826.3377      40.049927      3383.455       307.68592      8047.3257      1.2490524      0.70782873   
     55200  -4786.3564     -4825.861       39.504606      586.45229      303.49645      8070.3476      1.2454893      0.70782873   
     55300  -4785.9858     -4826.9745      40.988635      4654.3255      314.89759      8093.1913      1.2419738      0.70782873   
     55400  -4785.9023     -4825.7287      39.82638       3000.8314      305.9685       8106.4623      1.2399406      0.70782873   
     55500  -4786.1807     -4825.4637      39.28298       7109.2496      301.7938       8109.7927      1.2394314      0.70782873   
     55600  -4785.211      -4826.1811      40.970066      5925.06        314.75494      8106.9742      1.2398623      0.70782873   
     55700  -4785.8868     -4825.8873      40.00047       5038.5181      307.30596      8101.1373      1.2407556      0.70782873   
     55800  -4786.5987     -4826.0743      39.475535      5384.5486      303.27312      8091.6199      1.242215       0.70782873   
     55900  -4787.8599     -4827.0158      39.155855      5984.0451      300.81716      8080.8951      1.2438637      0.70782873   
     56000  -4786.8904     -4825.6517      38.761276      3200.845       297.78578      8066.0071      1.2461595      0.75511498   
     56100  -4787.4173     -4826.868       39.450684      1380.1175      303.0822       8050.4993      1.24856        0.75511498   
     56200  -4787.4456     -4825.9137      38.468126      5403.7052      295.53364      8036.8992      1.2506729      0.75511498   
     56300  -4787.6822     -4827.1754      39.493224      3768.6794      303.40902      8031.5351      1.2515082      0.75511498   
     56400  -4789.4718     -4828.1836      38.71174       5449.6783      297.40522      8031.2275      1.2515561      0.75511498   
     56500  -4788.4995     -4828.013       39.51342       3579.3122      303.56417      8031.2451      1.2515533      0.75511498   
     56600  -4789.1588     -4827.7005      38.541685      4752.6257      296.09876      8035.7117      1.2508577      0.75511498   
     56700  -4786.8434     -4827.0727      40.229232      3708.1581      309.06344      8038.2506      1.2504626      0.75511498   
     56800  -4787.0503     -4827.7899      40.739621      3675.0169      312.98453      8039.5475      1.2502609      0.75511498   
     56900  -4786.566      -4825.9189      39.352895      5199.6564      302.33093      8040.255       1.2501509      0.75511498   
     57000  -4787.0759     -4827.0022      39.926288      3452.9909      306.73605      8045.6759      1.2493085      0.72499623   
     57100  -4786.7404     -4826.5684      39.827941      3897.8458      305.9805       8052.7313      1.248214       0.72499623   
     57200  -4786.2463     -4827.0359      40.78959       4808.3711      313.36842      8059.0053      1.2472422      0.72499623   
[...]
    386300  -4785.2735     -4825.3599      40.086365      6756.0421      307.96585      8069.0423      1.2456908      0.78615929   
    386400  -4785.452      -4826.7417      41.289754      8538.6101      317.21096      8060.3797      1.2470296      0.78615929   
    386500  -4786.8888     -4824.4486      37.559728      4439.9844      288.55481      8055.289       1.2478176      0.78615929   
    386600  -4787.5558     -4827.1697      39.613912      2458.9746      304.3362       8056.1396      1.2476859      0.78615929   
    386700  -4786.7796     -4825.8639      39.084342      5685.2413      300.26775      8062.7234      1.2466671      0.78615929   
    386800  -4786.2576     -4826.015       39.757318      2718.943       305.43793      8075.6881      1.2446657      0.78615929   
    386900  -4785.6793     -4825.3873      39.707936      2864.1352      305.05855      8088.0073      1.2427699      0.78615929   
    387000  -4785.7822     -4824.3787      38.59646       6924.2614      296.51957      8100.9903      1.2407781      0.71151031   
    387100  -4786.8161     -4825.7643      38.948193      3389.0205      299.22178      8114.3861      1.2387298      0.71151031   
    387200  -4787.0107     -4825.2186      38.207826      4200.095       293.53387      8125.8297      1.2369853      0.71151031   
    387300  -4787.1568     -4825.7058      38.549002      1714.119       296.15497      8132.0911      1.2360328      0.71151031   
    387400  -4786.0836     -4825.8909      39.807281      6520.902       305.82178      8127.7803      1.2366884      0.71151031   
    387500  -4785.3838     -4824.8154      39.431553      8789.2128      302.93522      8115.8189      1.2385111      0.71151031   
    387600  -4785.9135     -4825.7191      39.805597      4778.8138      305.80884      8100.31        1.2408824      0.71151031   
    387700  -4784.4211     -4825.5274      41.106236      10627.005      315.80107      8085.8272      1.2431049      0.71151031   
    387800  -4784.8986     -4825.3392      40.440583      6776.7284      310.68715      8070.6958      1.2454356      0.71151031   
    387900  -4784.4358     -4823.4292      38.993409      5456.2729      299.56916      8063.4261      1.2465584      0.71151031   
    388000  -4786.3826     -4825.4368      39.05415       3513.3804      300.0358       8062.4608      1.2467077      0.76644424   
    388100  -4785.521      -4826.2708      40.74984       8511.3043      313.06304      8066.8602      1.2460277      0.76644424   
    388200  -4785.9983     -4825.5012      39.502823      7475.974       303.48276      8078.9873      1.2441574      0.76644424   
    388300  -4785.8134     -4824.8358      39.022448      5874.487       299.79225      8097.5061      1.241312       0.76644424   
    388400  -4785.7625     -4825.4596      39.697126      2497.6094      304.9755       8120.4376      1.2378067      0.76644424   
    388500  -4786.9783     -4825.212       38.23365       1484.6334      293.73226      8139.4304      1.2349183      0.76644424   
    388600  -4787.8494     -4826.1107      38.261349      3576.896       293.94506      8146.4519      1.2338539      0.76644424   
    388700  -4788.885      -4826.863       37.977987      927.71415      291.76811      8138.9244      1.2349951      0.76644424   
    388800  -4788.57       -4827.7353      39.165232      2424.373       300.88919      8123.2634      1.2373761      0.76644424   
    388900  -4787.3227     -4828.9153      41.59264       3483.961       319.5379       8103.1476      1.2404478      0.76644424   
    389000  -4788.0338     -4825.45        37.416289      5310.1953      287.45284      8079.5676      1.244068       0.77178011   
    389100  -4787.0306     -4826.7294      39.698802      7570.9403      304.98838      8063.7984      1.2465009      0.77178011   
    389200  -4788.76       -4828.3736      39.613604      7913.6622      304.33384      8055.5658      1.2477748      0.77178011   
    389300  -4788.2465     -4826.6364      38.389884      3065.5035      294.93254      8056.3045      1.2476603      0.77178011   
    389400  -4787.7488     -4826.5646      38.815822      2048.1856      298.20483      8067.2117      1.2459735      0.77178011   
    389500  -4788.6113     -4829.2495      40.63817       1436.6365      312.20513      8083.3402      1.2434874      0.77178011   
    389600  -4787.9723     -4826.2212      38.248903      5432.892       293.84945      8096.6803      1.2414386      0.77178011   
    389700  -4786.7236     -4825.3638      38.640291      3608.2821      296.85631      8108.171       1.2396793      0.77178011   
    389800  -4787.973      -4825.9842      38.01116       4569.9212      292.02297      8111.7953      1.2391254      0.77178011   
    389900  -4787.495      -4828.4869      40.991896      2260.94        314.92265      8107.126       1.2398391      0.77178011   
    390000  -4786.4485     -4826.6986      40.250136      3881.1517      309.22404      8098.8334      1.2411086      0.72259261   
    390100  -4787.1238     -4825.8792      38.755413      3683.6474      297.74074      8087.5933      1.2428335      0.72259261   
    390200  -4788.8405     -4826.0047      37.164158      3909.844       285.51583      8073.3574      1.245025       0.72259261   
    390300  -4786.1177     -4825.6968      39.579053      5969.0904      304.0684       8058.5613      1.2473109      0.72259261   
    390400  -4786.6559     -4826.9496      40.293664      5676.0111      309.55844      8047.7779      1.2489822      0.72259261   
    390500  -4786.1169     -4824.5318      38.414852      6576.8305      295.12435      8042.1815      1.2498514      0.72259261   
    390600  -4786.2637     -4826.2744      40.01072       3161.4304      307.3847       8044.0662      1.2495586      0.72259261   
    390700  -4786.3237     -4826.1425      39.818741      2881.1697      305.90981      8048.6744      1.2488431      0.72259261   
    390800  -4786.4999     -4826.1552      39.655324      6767.1908      304.65435      8054.7291      1.2479044      0.72259261   
    390900  -4786.3233     -4824.842       38.518742      4728.8842      295.9225       8067.7538      1.2458897      0.72259261   
    391000  -4785.2151     -4824.9209      39.705766      3849.3867      305.04188      8088.5446      1.2426873      0.78381445   
    391100  -4785.9628     -4824.9327      38.969907      2476.9747      299.3886       8107.8056      1.2397352      0.78381445   
    391200  -4785.0409     -4824.2593      39.218393      6630.7455      301.29761      8119.3152      1.2379778      0.78381445   
    391300  -4785.2525     -4825.6311      40.37861       4902.0709      310.21104      8122.3518      1.2375149      0.78381445   
    391400  -4784.2789     -4824.7685      40.489573      4673.2953      311.06352      8121.9406      1.2375776      0.78381445   
    391500  -4785.5895     -4824.9181      39.328617      9332.7811      302.14441      8122.1743      1.237542       0.78381445   
    391600  -4785.4605     -4826.0038      40.543322      6782.996       311.47645      8118.441       1.2381111      0.78381445   
    391700  -4786.4139     -4825.5759      39.16197       4392.8234      300.86413      8108.7753      1.2395869      0.78381445   
    391800  -4786.2042     -4825.6758      39.471573      1605.42        303.24268      8100.5478      1.2408459      0.78381445   
    391900  -4786.2353     -4825.2749      39.039662      4155.5446      299.92449      8093.2009      1.2419723      0.78381445   
    392000  -4785.0517     -4825.425       40.37333       4794.7815      310.17048      8084.637       1.2432879      0.77788      
    392100  -4784.2447     -4824.0154      39.770656      7757.8177      305.5404       8078.9451      1.2441639      0.77788      
    392200  -4783.1971     -4823.9833      40.786243      48.599125      313.34271      8084.3754      1.2433282      0.77788      
    392300  -4785.1783     -4824.0252      38.846909      2893.3344      298.44366      8101.7773      1.2406576      0.77788      
    392400  -4784.2496     -4824.7594      40.509858      4723.0058      311.21936      8126.1673      1.2369339      0.77788      
    392500  -4785.9541     -4825.1178      39.163711      3320.669       300.87751      8152.6286      1.2329191      0.77788      
    392600  -4787.0512     -4826.4925      39.441285      1817.7739      303.00999      8174.4371      1.2296298      0.77788      
    392700  -4786.5381     -4826.1973      39.659184      441.83465      304.68401      8185.5215      1.2279647      0.77788      
    392800  -4787.4871     -4825.5959      38.108818      1174.0101      292.77323      8176.8323      1.2292696      0.77788      
    392900  -4786.5009     -4825.5224      39.021542      5019.8107      299.78529      8151.5452      1.233083       0.77788      
    393000  -4784.7469     -4826.1995      41.4526        4918.8832      318.46204      8116.3366      1.2384321      0.77881007   
    393100  -4784.4774     -4823.6149      39.137479      2664.1722      300.67598      8076.8712      1.2444833      0.77881007   
    393200  -4785.2662     -4825.0724      39.806163      5247.9829      305.81319      8045.9324      1.2492687      0.77881007   
    393300  -4786.4808     -4826.3377      39.856866      3325.1621      306.20272      8025.5031      1.2524488      0.77881007   
    393400  -4787.9867     -4826.6844      38.69775       5445.4932      297.29774      8019.0553      1.2534558      0.77881007   
    393500  -4787.7816     -4828.247       40.465405      5423.9599      310.87785      8029.4569      1.2518321      0.77881007   
    393600  -4788.1878     -4826.105       37.917259      6307.0255      291.30157      8054.0884      1.2480036      0.77881007   
    393700  -4786.2737     -4826.2407      39.96697       1394.4171      307.0486       8086.9649      1.24293        0.77881007   
    393800  -4788.0912     -4826.6328      38.54153       108.08403      296.09757      8123.2108      1.2373841      0.77881007   
    393900  -4786.6729     -4825.9295      39.256688      2050.9288      301.59182      8153.2075      1.2328316      0.77881007   
    394000  -4787.9097     -4825.8431      37.933431      1572.1473      291.42581      8175.2322      1.2295102      0.79648716   
    394100  -4788.01       -4826.0434      38.033373      3491.7861      292.19362      8184.9162      1.2280555      0.79648716   
    394200  -4787.1125     -4826.8126      39.700075      2714.4103      304.99816      8181.3212      1.2285952      0.79648716   
    394300  -4786.8824     -4825.1838      38.301371      5952.4156      294.25254      8161.1667      1.2316293      0.79648716   
    394400  -4786.3616     -4824.9384      38.576784      3995.5507      296.36841      8134.2279      1.2357081      0.79648716   
    394500  -4786.1336     -4825.5233      39.389698      6621.1952      302.61367      8103.6558      1.24037        0.79648716   
    394600  -4786.0701     -4825.3736      39.303541      6401.4095      301.95177      8075.5423      1.2446881      0.79648716   
    394700  -4785.7569     -4824.0504      38.293492      5483.9193      294.192        8058.6814      1.2472924      0.79648716   
    394800  -4786.1733     -4825.8992      39.72587       2654.8111      305.19633      8057.9718      1.2474022      0.79648716   
    394900  -4785.2687     -4823.7922      38.523432      2786.634       295.95853      8068.4039      1.2457894      0.79648716   
    395000  -4785.3586     -4826.842       41.483397      3048.1193      318.69864      8089.7343      1.2425046      0.85398392   
    395100  -4784.8944     -4824.1747      39.280296      6888.0037      301.77318      8113.612       1.238848       0.85398392   
    395200  -4784.6643     -4825.8373      41.173008      5759.8793      316.31405      8134.2622      1.2357029      0.85398392   
    395300  -4784.3085     -4824.8206      40.512115      2219.638       311.2367       8150.1451      1.2332948      0.85398392   
    395400  -4784.1752     -4824.5928      40.417659      3284.1609      310.51104      8161.0682      1.2316441      0.85398392   
    395500  -4785.3426     -4824.8683      39.525734      1979.3602      303.65877      8165.6193      1.2309577      0.85398392   
    395600  -4785.114      -4825.073       39.958991      2897.4447      306.98729      8163.6354      1.2312568      0.85398392   
    395700  -4785.519      -4824.2158      38.696854      3788.3859      297.29085      8154.4216      1.232648       0.85398392   
    395800  -4786.6392     -4825.0481      38.408817      2876.7389      295.07799      8138.3292      1.2350854      0.85398392   
    395900  -4785.2348     -4824.7002      39.465373      2874.5845      303.19505      8114.836       1.2386611      0.85398392   
    396000  -4784.6877     -4825.8302      41.142445      4140.2889      316.07925      8089.7133      1.2425078      0.73767845   
    396100  -4785.1352     -4825.7403      40.605064      5449.9339      311.95079      8073.4529      1.2450103      0.73767845   
    396200  -4785.0072     -4825.3038      40.296616      5130.2288      309.58112      8069.1716      1.2456708      0.73767845   
    396300  -4785.1877     -4824.1554      38.967751      5298.3931      299.37204      8075.7599      1.2446546      0.73767845   
    396400  -4784.6583     -4823.8047      39.14645       6309.5835      300.7449       8089.3163      1.2425688      0.73767845   
    396500  -4784.3582     -4824.7021      40.343964      2750.7567      309.94488      8111.1884      1.2392181      0.73767845   
    396600  -4785.1728     -4825.7639      40.591072      4803.6436      311.84329      8138.8816      1.2350016      0.73767845   
    396700  -4785.0513     -4825.8787      40.827392      3429.7996      313.65884      8165.7252      1.2309417      0.73767845   
    396800  -4784.165      -4825.3288      41.163813      1159.553       316.24342      8188.1664      1.2275681      0.73767845   
    396900  -4784.6443     -4824.6233      39.978933      5664.8747      307.1405       8200.4642      1.2257272      0.73767845   
    397000  -4785.5692     -4824.6592      39.089983      580.61443      300.31109      8202.098       1.225483       0.7671066    
    397100  -4784.5943     -4824.1513      39.556946      5565.4985      303.89856      8191.8291      1.2270192      0.7671066    
    397200  -4783.8824     -4825.5055      41.623141      2857.4229      319.77223      8174.9313      1.2295555      0.7671066    
    397300  -4783.9562     -4823.5185      39.562289      4234.8608      303.93961      8150.7274      1.2332067      0.7671066    
    397400  -4783.99       -4824.4441      40.454033      4317.7704      310.79048      8127.5584      1.2367222      0.7671066    
    397500  -4783.3063     -4824.9352      41.62884       3283.0857      319.81601      8110.7858      1.2392796      0.7671066    
    397600  -4782.6334     -4824.6289      41.995509      3081.4436      322.63297      8106.623       1.239916       0.7671066    
    397700  -4783.499      -4821.7893      38.290268      4170.9017      294.16724      8110.7837      1.23928        0.7671066    
    397800  -4783.4423     -4824.243       40.800702      577.13385      313.45379      8122.7286      1.2374575      0.7671066    
    397900  -4784.3796     -4825.6524      41.272817      2874.2891      317.08084      8138.8818      1.2350016      0.7671066    
    398000  -4786.0944     -4826.4755      40.381074      2961.4289      310.22998      8153.7916      1.2327433      0.75030278   
    398100  -4785.2778     -4824.2697      38.991973      2632.275       299.55812      8162.2529      1.2314654      0.75030278   
    398200  -4786.1061     -4826.4708      40.364656      4292.4459      310.10384      8167.4117      1.2306875      0.75030278   
    398300  -4784.6375     -4824.4063      39.768824      3748.1735      305.52632      8169.1159      1.2304308      0.75030278   
    398400  -4785.3016     -4824.6546      39.353078      1598.9884      302.33233      8165.4097      1.2309893      0.75030278   
    398500  -4786.6371     -4825.0464      38.409282      742.80615      295.08157      8153.7099      1.2327556      0.75030278   
    398600  -4786.2908     -4824.065       37.774278      3179.8273      290.20311      8129.5855      1.2364138      0.75030278   
    398700  -4785.8717     -4825.0764      39.204711      2941.5374      301.19249      8099.1157      1.2410653      0.75030278   
    398800  -4785.0512     -4825.4524      40.401173      3785.1142      310.38439      8069.6622      1.2455951      0.75030278   
    398900  -4785.4993     -4825.1262      39.626913      4107.0194      304.43609      8047.409       1.2490395      0.75030278   
    399000  -4785.6368     -4826.6553      41.018525      5395.9516      315.12722      8037.1969      1.2506265      0.68565681   
    399100  -4786.4134     -4827.2434      40.829951      650.1564       313.6785       8041.0489      1.2500274      0.68565681   
    399200  -4786.3781     -4825.4995      39.12136       3394.5204      300.55214      8059.9553      1.2470952      0.68565681   
    399300  -4787.2098     -4828.0029      40.793049      4812.7834      313.39499      8090.2787      1.2424209      0.68565681   
    399400  -4786.2424     -4826.8535      40.611058      8568.6483      311.99684      8118.6624      1.2380773      0.68565681   
    399500  -4784.919      -4824.956       40.037003      7552.6055      307.58662      8145.4575      1.2340046      0.68565681   
    399600  -4783.5563     -4823.721       40.164732      6032.592       308.56792      8167.0258      1.2307457      0.68565681   
    399700  -4784.1557     -4825.5882      41.432517      6931.4733      318.30775      8183.2991      1.2282982      0.68565681   
    399800  -4783.3341     -4823.802       40.467928      362.45667      310.89723      8192.3465      1.2269417      0.68565681   
    399900  -4784.3532     -4823.0122      38.65896       3420.5697      296.99973      8192.9442      1.2268522      0.68565681   
    400000  -4781.6753     -4822.3339      40.658548      1694.3327      312.36168      8182.6357      1.2283978      0.69891776   
    400100  -4782.7304     -4823.6109      40.880468      3072.206       314.0666       8165.8425      1.230924       0.69891776   
    400200  -4784.3902     -4823.5691      39.178816      2483.3058      300.99356      8149.3133      1.2334207      0.69891776   
    400300  -4785.8033     -4825.4203      39.617011      1073.3677      304.36001      8132.6776      1.2359437      0.69891776   
    400303  -4785.4481     -4824.616       39.167894      2184.704       300.90965      8132.1047      1.2360308      0.69891776   
Loop time of 539.669 on 2 procs for 200000 steps with 1008 atoms

Performance: 16.010 ns/day, 1.499 hours/ns, 370.598 timesteps/s, 373.562 katom-step/s
99.5% CPU use with 2 MPI tasks x 1 OpenMP threads

MPI task timing breakdown:
Section |  min time  |  avg time  |  max time  |%varavg| %total
---------------------------------------------------------------
Pair    | 297.21     | 297.72     | 298.22     |   2.9 | 55.17
Neigh   | 7.7635     | 7.8648     | 7.966      |   3.6 |  1.46
Comm    | 42.043     | 43.356     | 44.669     |  19.9 |  8.03
Output  | 0.29771    | 0.30059    | 0.30346    |   0.5 |  0.06
Modify  | 187.38     | 188.1      | 188.82     |   5.3 | 34.85
Other   |            | 2.332      |            |       |  0.43

Nlocal:            504 ave         506 max         502 min
Histogram: 1 0 0 0 0 0 0 0 0 1
Nghost:         2644.5 ave        2646 max        2643 min
Histogram: 1 0 0 0 0 0 0 0 0 1
Neighs:              0 ave           0 max           0 min
Histogram: 2 0 0 0 0 0 0 0 0 0
FullNghs:        72335 ave       72493 max       72177 min
Histogram: 1 0 0 0 0 0 0 0 0 1

Total # of neighbors = 144670
Ave neighs/atom = 143.52183
Neighbor list builds = 19988
Dangerous builds = 19930
Total wall time: 0:18:05
