LAMMPS (27 Jun 2024)
KOKKOS mode with Kokkos version 4.3.1 is enabled (src/KOKKOS/kokkos.cpp:72)
  will use up to 1 GPU(s) per node
WARNING: When using a single thread, the Kokkos Serial backend (i.e. Makefile.kokkos_mpi_only) gives better performance than the OpenMP backend (src/KOKKOS/kokkos.cpp:202)
  using 1 OpenMP thread(s) per MPI task
Reading data file ...
  orthogonal box = (0 0 0) to (20.13213 20.132272 35.107669)
  1 by 1 by 1 MPI processor grid
  reading atoms ...
  2160 atoms
  read_data CPU = 0.009 seconds
ACE/AL version: 2023.11.25
Loading /pc2/users/a/acepdw01/work/phase_diagram/pot_dir/interim_potential_ladder_step_1.yaml
Total number of basis functions
	H: 23 (r=1) 664 (r>1)
	O: 23 (r=1) 664 (r>1)
Mapping LAMMPS atom type #1(H) -> ACE species type #0
Mapping LAMMPS atom type #2(O) -> ACE species type #1
Loading ASI /pc2/users/a/acepdw01/work/phase_diagram/pot_dir/interim_potential_ladder_step_1.asi
LINEAR ASI is loaded

CITE-CITE-CITE-CITE-CITE-CITE-CITE-CITE-CITE-CITE-CITE-CITE-CITE

Your simulation uses code contributions which should be cited:
- Type Label Framework: https://doi.org/10.1021/acs.jpcb.3c08419
The log file lists these citations in BibTeX format.

CITE-CITE-CITE-CITE-CITE-CITE-CITE-CITE-CITE-CITE-CITE-CITE-CITE

Switching to 'neigh_modify every 1 delay 0 check yes' setting during minimization
Neighbor list info ...
  update: every = 1 steps, delay = 0 steps, check = yes
  max neighbors/atom: 2000, page size: 100000
  master list distance cutoff = 6.5
  ghost atom cutoff = 6.5
  binsize = 6.5, bins = 4 4 6
  1 neighbor lists, perpetual/occasional/extra = 1 0 0
  (1) pair pace/extrapolation/kk, perpetual
      attributes: full, newton on, kokkos_device
      pair build: full/bin/kk/device
      stencil: full/bin/3d
      bin: kk/device
Setting up cg/kk style minimization ...
  Unit style    : metal
  Current step  : 0
WARNING: Fix with atom-based arrays not compatible with sending data in Kokkos communication, switching to classic exchange/border communication (src/KOKKOS/comm_kokkos.cpp:754)
WARNING: Fix with atom-based arrays not compatible with Kokkos sorting on device, switching to classic host sorting (src/KOKKOS/atom_kokkos.cpp:216)
Per MPI rank memory allocation (min/avg/max) = 1808 | 1808 | 1808 Mbytes
   Step         TotEng         PotEng         KinEng         Press           Temp          Volume        Density     c_max_pace_gamma
         0  -10394.812     -10394.812      0              10356.492      0              14229.332      1.513704       0.94301683   
       100  -10405.399     -10405.399      0              6153.7788      0              14229.332      1.513704       0.94301683   
       200  -10407.585     -10407.585      0              6517.8061      0              14229.332      1.513704       0.94301683   
       300  -10408.546     -10408.546      0              6308.0674      0              14229.332      1.513704       0.94301683   
       400  -10408.808     -10408.808      0              6401.031       0              14229.332      1.513704       0.94301683   
       500  -10408.847     -10408.847      0              6350.0892      0              14229.332      1.513704       0.94301683   
       600  -10408.847     -10408.847      0              6348.1737      0              14229.332      1.513704       0.94301683   
       700  -10408.848     -10408.848      0              6349.9252      0              14229.332      1.513704       0.94301683   
       800  -10408.849     -10408.849      0              6350.431       0              14229.332      1.513704       0.94301683   
       900  -10408.849     -10408.849      0              6350.8131      0              14229.332      1.513704       0.94301683   
       920  -10408.849     -10408.849      0              6350.8973      0              14229.332      1.513704       0.94301683   
Loop time of 8.89978 on 1 procs for 920 steps with 2160 atoms

99.8% CPU use with 1 MPI tasks x 1 OpenMP threads

Minimization stats:
  Stopping criterion = force tolerance
  Energy initial, next-to-last, final = 
     -10394.8116753497  -10408.8486802775  -10408.8486802839
  Force two-norm initial, final = 17.431636 0.00046848144
  Force max component initial, final = 3.1552255 0.00018628963
  Final line search alpha, max atom move = 1 0.00018628963
  Iterations, force evaluations = 920 1836

MPI task timing breakdown:
Section |  min time  |  avg time  |  max time  |%varavg| %total
---------------------------------------------------------------
Pair    | 8.2112     | 8.2112     | 8.2112     |   0.0 | 92.26
Neigh   | 0.022217   | 0.022217   | 0.022217   |   0.0 |  0.25
Comm    | 0.053915   | 0.053915   | 0.053915   |   0.0 |  0.61
Output  | 0.0012319  | 0.0012319  | 0.0012319  |   0.0 |  0.01
Modify  | 0.37927    | 0.37927    | 0.37927    |   0.0 |  4.26
Other   |            | 0.232      |            |       |  2.61

Nlocal:           2160 ave        2160 max        2160 min
Histogram: 1 0 0 0 0 0 0 0 0 0
Nghost:           5979 ave        5979 max        5979 min
Histogram: 1 0 0 0 0 0 0 0 0 0
Neighs:              0 ave           0 max           0 min
Histogram: 1 0 0 0 0 0 0 0 0 0
FullNghs:       373378 ave      373378 max      373378 min
Histogram: 1 0 0 0 0 0 0 0 0 0

Total # of neighbors = 373378
Ave neighs/atom = 172.86019
Neighbor list builds = 51
Dangerous builds = 0
Setting up Verlet run ...
  Unit style    : metal
  Current step  : 920
  Time step     : 0.0005
WARNING: Fix with atom-based arrays not compatible with Kokkos sorting on device, switching to classic host sorting (src/KOKKOS/atom_kokkos.cpp:216)
Per MPI rank memory allocation (min/avg/max) = 1810 | 1810 | 1810 Mbytes
   Step         TotEng         PotEng         KinEng         Press           Temp          Volume        Density     c_max_pace_gamma
       920  -10263.731     -10408.849      145.11778      17244.091      520            14229.332      1.513704       0.94301683   
      1000  -10238.241     -10317.788      79.547317      38623.566      285.04161      14194.292      1.5174408      0.81194081   
      1100  -10207.299     -10307.985      100.68566      31117.977      360.78656      14117.454      1.5256997      0.81194081   
      1200  -10184.633     -10291.183      106.55075      32784.855      381.80289      14032.627      1.5349226      0.81194081   
      1300  -10165.439     -10283.535      118.09543      34502.508      423.17093      13970.221      1.5417792      0.81194081   
      1400  -10152.56      -10275.15       122.58992      36854.323      439.27601      13952.439      1.5437442      0.81194081   
      1500  -10146.829     -10269.557      122.7281       30045.752      439.77116      13992.084      1.5393702      0.81194081   
      1600  -10140.239     -10266.716      126.47715      35119.544      453.2051       14086.113      1.5290944      0.81194081   
      1700  -10134.628     -10266.02       131.39127      33780.225      470.81386      14218.116      1.514898       0.81194081   
      1800  -10137.332     -10265.556      128.22396      28684.494      459.46444      14362.504      1.4996686      0.81194081   
      1900  -10132.663     -10266.176      133.51377      26816.007      478.41941      14490.664      1.4864051      0.81194081   
      2000  -10125.605     -10262.186      136.58111      28719.519      489.41059      14584.888      1.4768023      0.84616802   
      2100  -10127.303     -10259.472      132.16957      29376.483      473.60273      14642.966      1.4709449      0.84616802   
      2200  -10119.661     -10257.522      137.86108      30375.149      493.99711      14663.71       1.468864       0.84616802   
      2300  -10115.405     -10254.968      139.56305      25821.844      500.09575      14657.505      1.4694859      0.84616802   
      2400  -10114.302     -10255.896      141.59323      29434.054      507.3705       14633.627      1.4718837      0.84616802   
      2500  -10111.785     -10252.003      140.21792      29245.366      502.44237      14603.062      1.4749644      0.84616802   
      2600  -10110.301     -10254.679      144.37766      27771.129      517.34794      14569.226      1.4783899      0.84616802   
      2700  -10110.852     -10255.666      144.81355      26611.284      518.90984      14538.715      1.4814924      0.84616802   
      2800  -10107.328     -10251.51       144.18157      29661.759      516.6453       14513.8        1.4840356      0.84616802   
      2900  -10104.093     -10246.277      142.18392      33246.539      509.48712      14503.417      1.4850981      0.84616802   
      3000  -10103.512     -10247.998      144.48509      31094.93       517.73289      14516.916      1.4837171      0.86771818   
      3100  -10102.051     -10247.947      145.89599      31070.093      522.78857      14550.376      1.4803051      0.86771818   
      3200  -10104.274     -10244.776      140.50192      29431.656      503.46002      14594.609      1.4758187      0.86771818   
      3300  -10101.638     -10246.599      144.96088      32103.578      519.43777      14647.45       1.4704946      0.86771818   
      3400  -10099.721     -10247.671      147.94998      30728.162      530.1486       14705.188      1.4647209      0.86771818   
      3500  -10104.66      -10246.11       141.45004      29976.644      506.85741      14758.846      1.4593957      0.86771818   
      3600  -10101.566     -10247.972      146.40674      24571.351      524.61873      14795.939      1.4557371      0.86771818   
      3700  -10099.842     -10244.884      145.04282      29992.539      519.73139      14814.186      1.4539439      0.86771818   
      3800  -10093.801     -10238.208      144.40721      26110.434      517.45381      14815.758      1.4537897      0.86771818   
      3900  -10093.755     -10239.208      145.45365      27822.336      521.20354      14807.396      1.4546107      0.86771818   
      4000  -10092.801     -10238.473      145.67121      32302.366      521.98312      14792.415      1.4560838      0.81584972   
      4100  -10093.065     -10242.128      149.06317      31815.246      534.13751      14776.056      1.4576959      0.81584972   
      4200  -10095.802     -10243.1        147.2985       34227.031      527.81417      14757.906      1.4594886      0.81584972   
      4300  -10097.829     -10243.055      145.22575      30612.543      520.38689      14740.003      1.4612613      0.81584972   
      4400  -10095.996     -10244.318      148.32136      33366.159      531.47937      14726.19       1.462632       0.81584972   
      4500  -10098.573     -10246.595      148.02187      30888.279      530.4062       14715.928      1.4636519      0.81584972   
      4600  -10096.535     -10244.656      148.12041      30092.005      530.7593       14705.918      1.4646482      0.81584972   
      4700  -10099.526     -10245.361      145.83533      30805.037      522.57121      14700.994      1.4651388      0.81584972   
      4800  -10101.021     -10248.408      147.38695      34395.377      528.1311       14695.43       1.4656935      0.81584972   
      4900  -10103.736     -10243.358      139.62157      31443.83       500.30546      14686.61       1.4665738      0.81584972   
      5000  -10099.1       -10240.884      141.78393      33174.759      508.05382      14683.259      1.4669084      0.77784609   
      5100  -10099.017     -10242.141      143.12384      30349.568      512.85513      14693.865      1.4658496      0.77784609   
      5200  -10098.812     -10241.991      143.17972      28084.559      513.05537      14713.146      1.4639286      0.77784609   
      5300  -10100.367     -10242.523      142.15599      28191.103      509.38702      14743.503      1.4609144      0.77784609   
      5400  -10100.771     -10246.473      145.70246      29454.998      522.09509      14785.794      1.4567359      0.77784609   
      5500  -10100.213     -10246.938      146.7253       30410.502      525.76021      14829.861      1.4524071      0.77784609   
      5600  -10102.247     -10242.596      140.34929      32419.9        502.91309      14874.509      1.4480475      0.77784609   
      5700  -10100.832     -10243.818      142.98598      28911.598      512.36113      14912.44       1.4443643      0.77784609   
      5800  -10101.674     -10245.726      144.0517       29346.421      516.17992      14936.665      1.4420218      0.77784609   
      5900  -10102.559     -10240.688      138.12959      26684.937      494.95923      14942.116      1.4414958      0.77784609   
      6000  -10100.547     -10242.894      142.34675      25504.271      510.07059      14925.122      1.443137       0.86581873   
      6100  -10101.366     -10241.052      139.6861       29054.049      500.53669      14889.297      1.4466094      0.86581873   
      6200  -10098.619     -10242.308      143.68899      30194.803      514.88022      14843.188      1.4511032      0.86581873   
      6300  -10097.575     -10239.961      142.38584      30916.761      510.21067      14798.323      1.4555026      0.86581873   
      6400  -10096.961     -10240.383      143.42212      31703.669      513.92393      14761.683      1.4591153      0.86581873   
      6500  -10091.837     -10237.554      145.71658      31685.585      522.14569      14740.166      1.4612452      0.86581873   
      6600  -10091.821     -10240.976      149.15498      31935.736      534.46648      14741.753      1.4610878      0.86581873   
      6700  -10091.459     -10238.425      146.96643      29934.969      526.62425      14770.09       1.4582847      0.86581873   
      6800  -10091.994     -10237.043      145.04851      34752.361      519.75179      14825.373      1.4528468      0.86581873   
      6900  -10095.719     -10235.218      139.49827      33402.696      499.86364      14894.263      1.4461271      0.86581873   
      7000  -10098.143     -10239.726      141.58297      31447.783      507.33373      14966.193      1.4391767      0.82889049   
      7100  -10095.526     -10243.169      147.64331      28974.648      529.04974      15032.145      1.4328624      0.82889049   
      7200  -10096.896     -10238.043      141.14691      29046.964      505.7712       15075.864      1.4287073      0.82889049   
      7300  -10096.451     -10241.231      144.77962      30549.693      518.78828      15088.456      1.427515       0.82889049   
      7400  -10093.637     -10236.417      142.78048      23418.768      511.62478      15073.998      1.4288841      0.82889049   
      7500  -10094.353     -10241.453      147.09998      28054.705      527.10283      15038.124      1.4322928      0.82889049   
      7600  -10090.083     -10236.479      146.39637      31618.534      524.58156      14988.292      1.4370548      0.82889049   
      7700  -10091.779     -10237.6        145.82091      31499.409      522.51954      14936.322      1.4420549      0.82889049   
      7800  -10089.25      -10234.595      145.34533      32558.019      520.81537      14891.371      1.4464079      0.82889049   
      7900  -10087.657     -10233.33       145.67299      32693.526      521.98949      14866.865      1.448792       0.82889049   
      8000  -10087.076     -10233.47       146.39413      31638.511      524.57355      14866.689      1.4488093      0.69107089   
      8100  -10088.207     -10235.744      147.53674      30441.038      528.66784      14890.683      1.4464748      0.69107089   
      8200  -10084.625     -10233.323      148.69766      29912.772      532.82778      14934.596      1.4422216      0.69107089   
      8300  -10082.638     -10230.862      148.22381      32084.639      531.12982      14996.891      1.4362308      0.69107089   
      8400  -10086.988     -10230.516      143.52771      31236.618      514.30232      15073.895      1.4288939      0.69107089   
      8500  -10088.685     -10230.216      141.53042      29516.221      507.14541      15151.8        1.4215471      0.69107089   
      8600  -10086.998     -10233.311      146.31336      30039.988      524.28413      15217.198      1.4154377      0.69107089   
      8700  -10089.799     -10232.025      142.22638      27639.261      509.63927      15257.617      1.4116881      0.69107089   
      8800  -10088.468     -10232.322      143.8548       30036.064      515.47439      15271.323      1.4104211      0.69107089   
      8900  -10088.36      -10234.056      145.69619      26210.146      522.07263      15262.081      1.4112752      0.69107089   
      9000  -10089.104     -10233.486      144.38175      29623.017      517.36259      15233.671      1.4139072      0.74748834   
      9100  -10092.753     -10234.919      142.16623      27767.865      509.42372      15192.302      1.4177572      0.74748834   
      9200  -10088.529     -10234.128      145.59905      30117.827      521.72453      15134.777      1.4231459      0.74748834   
      9300  -10085.422     -10231.519      146.09704      30872.065      523.50899      15073.355      1.4289451      0.74748834   
      9400  -10082.58      -10227.108      144.52829      31387.127      517.88769      15027.722      1.4332842      0.74748834   
      9500  -10082.41      -10226.083      143.67237      33418.108      514.82066      15004.903      1.4354639      0.74748834   
      9600  -10090.12      -10233.446      143.3263       27309.424      513.5806       15007.548      1.4352109      0.74748834   
      9700  -10090.569     -10234.929      144.36002      29295.272      517.28473      15025.884      1.4334595      0.74748834   
      9800  -10090.578     -10232.388      141.8093       32934.999      508.14475      15052.973      1.4308799      0.74748834   
      9900  -10090.803     -10238.105      147.30174      29369.956      527.82577      15087.719      1.4275847      0.74748834   
     10000  -10088.326     -10231.937      143.61135      28572.747      514.60202      15120.386      1.4245005      0.78859485   
     10100  -10086.957     -10231.587      144.63026      27127.815      518.25307      15153.715      1.4213674      0.78859485   
     10200  -10088.088     -10231.437      143.34873      30445.27       513.66096      15184.325      1.4185021      0.78859485   
     10300  -10086.191     -10229.357      143.16644      30039.952      513.00777      15214.105      1.4157255      0.78859485   
     10400  -10083.312     -10227.911      144.5989       29358.09       518.14069      15242.634      1.4130758      0.78859485   
     10500  -10081.28      -10226.394      145.1138       29387.688      519.98575      15269.216      1.4106157      0.78859485   
     10600  -10080.245     -10228.14       147.89488      25630.215      529.95119      15295.797      1.4081644      0.78859485   
     10700  -10083.976     -10224.478      140.50223      30741.824      503.46111      15318.93       1.4060379      0.78859485   
     10800  -10082.097     -10229.583      147.48619      33874.554      528.48673      15342.919      1.4038395      0.78859485   
     10900  -10082.028     -10229.615      147.5871       28754.507      528.84829      15365.139      1.4018094      0.78859485   
     11000  -10085.177     -10231.648      146.47131      28976.691      524.85009      15380.744      1.4003871      0.74808273   
     11100  -10090.191     -10230.594      140.40353      27609.083      503.10745      15385.78       1.3999288      0.74808273   
     11200  -10087.991     -10231.371      143.38054      31453.499      513.77494      15374.065      1.4009955      0.74808273   
     11300  -10087.754     -10234.038      146.28423      29336.229      524.17974      15348.215      1.4033551      0.74808273   
     11400  -10085.65      -10231.778      146.12813      34027.731      523.62039      15309.627      1.4068923      0.74808273   
     11500  -10090.498     -10231.48       140.98235      30413.62       505.18152      15267.934      1.4107342      0.74808273   
     11600  -10090.36      -10234.505      144.14464      31275.623      516.51297      15231.497      1.414109       0.74808273   
     11700  -10091.108     -10236.581      145.47287      31555.47       521.27239      15199.182      1.4171155      0.74808273   
     11800  -10088.398     -10231.549      143.15148      30588.329      512.95415      15179.73       1.4189314      0.74808273   
     11900  -10088.445     -10229.771      141.32589      32402.043      506.41255      15180.043      1.4189022      0.74808273   
     12000  -10081.422     -10228.716      147.29472      31209.707      527.80063      15202.18       1.4168361      0.83896307   
     12100  -10087.031     -10232.341      145.30987      29972.239      520.68833      15245.636      1.4127975      0.83896307   
     12200  -10090.107     -10231.943      141.83622      29872.373      508.24121      15291.268      1.4085814      0.83896307   
     12300  -10089.107     -10233.564      144.45717      32825.54       517.63282      15331.188      1.4049137      0.83896307   
     12400  -10084.825     -10229.484      144.65932      32049.139      518.35721      15367.536      1.4015907      0.83896307   
     12500  -10079.629     -10227.475      147.8456       29440.08       529.7746       15403.134      1.3983515      0.83896307   
     12600  -10080.898     -10227.348      146.45018      29282.13       524.7744       15432.415      1.3956984      0.83896307   
     12700  -10082.502     -10228.573      146.07139      32934.849      523.41706      15455.301      1.3936316      0.83896307   
     12800  -10078.947     -10225.548      146.60156      26489.896      525.31684      15473.23       1.3920168      0.83896307   
     12900  -10080.498     -10229.843      149.34532      30238.44       535.14854      15481.542      1.3912694      0.83896307   
     13000  -10083.776     -10226.032      142.25606      27886.475      509.74563      15479.475      1.3914553      0.75200118   
     13100  -10077.668     -10224.271      146.60276      30296.256      525.32111      15465.956      1.3926715      0.75200118   
     13200  -10072.73      -10219.729      146.99925      31514.445      526.74187      15443.865      1.3946636      0.75200118   
     13300  -10069.651     -10222.261      152.61059      33087.235      546.84895      15420.519      1.3967751      0.75200118   
     13400  -10071.7       -10220.547      148.84739      27616.71       533.36431      15400.376      1.398602       0.75200118   
     13500  -10075.634     -10223.378      147.74446      33459.305      529.41218      15388.335      1.3996963      0.75200118   
     13600  -10075.429     -10224.674      149.24495      32469.483      534.78887      15388.013      1.3997256      0.75200118   
     13700  -10073.119     -10219.015      145.89624      30734.967      522.78945      15399.472      1.3986841      0.75200118   
     13800  -10075.764     -10224.207      148.44343      28823.052      531.91679      15429.626      1.3959506      0.75200118   
     13900  -10078.278     -10223.224      144.94628      29807.009      519.38548      15463.429      1.3928991      0.75200118   
     14000  -10076.004     -10224.089      148.08452      30274.544      530.6307       15492.567      1.3902794      0.71123336   
     14100  -10079.917     -10222.447      142.53042      28944.763      510.72873      15511.929      1.388544       0.71123336   
     14200  -10079.092     -10223.356      144.26397      31840.271      516.94056      15521.733      1.387667       0.71123336   
     14300  -10077.797     -10223.259      145.46245      29036.531      521.23504      15524.742      1.387398       0.71123336   
     14400  -10080.142     -10224.923      144.78114      31739.207      518.79373      15526.687      1.3872243      0.71123336   
     14500  -10078.386     -10225.689      147.30324      32841.144      527.83117      15530.978      1.3868409      0.71123336   
     14600  -10077.43      -10223.228      145.79756      29348.328      522.43585      15535.961      1.3863961      0.71123336   
     14700  -10079.55      -10220.976      141.42631      29674.031      506.77238      15539.878      1.3860467      0.71123336   
     14800  -10078.49      -10222.816      144.326        31042.337      517.16282      15546.039      1.3854974      0.71123336   
     14900  -10080.817     -10226.085      145.26776      31170.365      520.53743      15555.75       1.3846324      0.71123336   
     15000  -10083.797     -10224.479      140.68273      30742.235      504.10791      15565.716      1.3837459      0.8046493    
     15100  -10084.2       -10227.938      143.73784      31805.196      515.05527      15574.223      1.3829901      0.8046493    
     15200  -10080.085     -10221.022      140.93634      31819.544      505.01666      15579.11       1.3825562      0.8046493    
     15300  -10074.823     -10219.46       144.63623      29812.001      518.27445      15589.255      1.3816566      0.8046493    
     15400  -10073.818     -10221.401      147.58357      31347.673      528.83566      15611.232      1.3797115      0.8046493    
     15500  -10076.483     -10221.894      145.41119      32445.749      521.05138      15645.645      1.3766768      0.8046493    
     15600  -10079.674     -10222.539      142.8649       31363.548      511.92727      15686.137      1.373123       0.8046493    
     15700  -10080.941     -10220.981      140.04051      28348.609      501.80663      15723.389      1.3698699      0.8046493    
     15800  -10081.745     -10222.2        140.45561      28999.73       503.29406      15752.995      1.3672954      0.8046493    
     15900  -10079.709     -10220.756      141.04676      25730.774      505.41234      15771.102      1.3657255      0.8046493    
     16000  -10080.143     -10220.541      140.3985       29715.063      503.08941      15773.089      1.3655535      0.76011947   
     16100  -10077.367     -10223.1        145.73314      26963.211      522.20503      15759.087      1.3667668      0.76011947   
     16200  -10074.577     -10220.626      146.04906      29835.558      523.33705      15731.397      1.3691725      0.76011947   
     16300  -10076.211     -10218.344      142.13255      29273.749      509.30303      15697.468      1.3721319      0.76011947   
     16400  -10075.727     -10216.919      141.19149      34614.563      505.93092      15667.627      1.3747453      0.76011947   
     16500  -10075.482     -10219.262      143.78045      29129.902      515.20794      15644.5        1.3767776      0.76011947   
     16600  -10074.642     -10217.63       142.98841      32285.973      512.36984      15628.98       1.3781447      0.76011947   
     16700  -10074.602     -10220.393      145.79075      32914.078      522.41145      15627.802      1.3782486      0.76011947   
     16800  -10074.152     -10221.092      146.93997      28998.465      526.52946      15643.121      1.376899       0.76011947   
     16900  -10074.295     -10223.7        149.40528      27883.837      535.36339      15672.996      1.3742743      0.76011947   
     17000  -10068.566     -10213.35       144.78376      27697.364      518.80312      15716.661      1.3704563      0.75400378   
     17100  -10072.455     -10219.766      147.31132      30225.902      527.86009      15771.275      1.3657105      0.75400378   
     17200  -10072.198     -10217.508      145.31083      25072.123      520.69175      15819.884      1.3615142      0.75400378   
     17300  -10077.748     -10217.562      139.81389      29217.739      500.99458      15851.878      1.3587662      0.75400378   
     17400  -10076.684     -10223.62       146.93595      28418.414      526.51506      15869.376      1.357268       0.75400378   
     17500  -10078.699     -10222.125      143.4252       33204.803      513.93498      15872.843      1.3569716      0.75400378   
     17600  -10079.411     -10223.098      143.68741      28486.602      514.87455      15866.52       1.3575124      0.75400378   
     17700  -10073.175     -10217.491      144.31567      28141.436      517.1258       15851.975      1.358758       0.75400378   
     17800  -10076.101     -10219.172      143.0714       32419.562      512.66722      15834.081      1.3602934      0.75400378   
     17900  -10072.681     -10215.808      143.12717      29639.176      512.86706      15821.253      1.3613964      0.75400378   
     18000  -10069.619     -10207.367      137.74783      29514.021      493.5913       15826.97       1.3609046      0.7258574    
     18100  -10068.646     -10211.49       142.84448      30577.025      511.85409      15853.044      1.3586663      0.7258574    
     18200  -10067.253     -10212.961      145.70787      32995.538      522.11448      15892.846      1.3552637      0.7258574    
     18300  -10066.603     -10209.513      142.90965      31254.945      512.08763      15944.862      1.3508425      0.7258574    
     18400  -10067.655     -10211.681      144.02559      31217.846      516.08637      16008.198      1.3454979      0.7258574    
     18500  -10071.365     -10214.411      143.04612      28756.325      512.57662      16067.242      1.3405534      0.7258574    
     18600  -10071.222     -10218.086      146.86458      27734.15       526.25929      16108.418      1.3371268      0.7258574    
     18700  -10067.678     -10210.068      142.39013      28410.065      510.22601      16127.487      1.3355457      0.7258574    
     18800  -10067.072     -10214.351      147.27832      28346.548      527.74185      16128.561      1.3354568      0.7258574    
     18900  -10068.28      -10211.551      143.27108      27042.194      513.38272      16114.851      1.3365929      0.7258574    
     19000  -10071.152     -10217.555      146.40345      27662.77       524.60695      16087.322      1.3388802      0.7927408    
     19100  -10070.259     -10217.192      146.93267      29112.557      526.5033       16049.627      1.3420247      0.7927408    
     19200  -10071.213     -10215.083      143.87029      31149.129      515.52989      16008.023      1.3455126      0.7927408    
     19300  -10067.484     -10210.897      143.41285      29110.143      513.89074      15972.517      1.3485036      0.7927408    
     19400  -10066.267     -10206.083      139.81657      33386.211      501.0042       15948.801      1.3505088      0.7927408    
     19500  -10068.683     -10211.551      142.86822      31153.767      511.93917      15940.21       1.3512367      0.7927408    
     19600  -10070.166     -10212.287      142.12172      27965.516      509.26425      15946.007      1.3507455      0.7927408    
     19700  -10065.848     -10212.626      146.77783      27848.625      525.94847      15967.041      1.3489661      0.7927408    
     19800  -10069.147     -10216.853      147.70613      30437.263      529.27482      16000.798      1.3461202      0.7927408    
     19900  -10071.945     -10217.694      145.74922      31655.168      522.26263      16041.55       1.3427005      0.7927408    
     20000  -10067.793     -10209.853      142.06003      32368.115      509.04318      16077.328      1.3397125      0.87383475   
     20100  -10065.533     -10211.097      145.56361      29943.318      521.59753      16114.99       1.3365814      0.87383475   
     20200  -10065.191     -10210.922      145.73018      28989.37       522.19441      16144.066      1.3341742      0.87383475   
     20300  -10066.313     -10212.036      145.72283      27385.303      522.16809      16168.453      1.3321618      0.87383475   
     20400  -10064.139     -10209.203      145.06368      28811.378      519.80613      16191.091      1.3302993      0.87383475   
     20500  -10065.356     -10211.526      146.17061      29901.99       523.77261      16210.314      1.3287217      0.87383475   
     20600  -10065.76      -10212.23       146.47058      30546.372      524.8475       16221.8        1.327781       0.87383475   
     20700  -10064.944     -10212.012      147.06882      27841.098      526.99115      16217.599      1.3281249      0.87383475   
     20800  -10062.088     -10207.525      145.43688      32742.1        521.14344      16191.181      1.3302919      0.87383475   
     20900  -10062.361     -10210.922      148.56123      30113.749      532.3389       16156.875      1.3331165      0.87383475   
     21000  -10061.885     -10207.364      145.479        32187.291      521.29436      16122.478      1.3359606      0.69134248   
     21100  -10058.911     -10208.143      149.2326       33611.342      534.74461      16100.254      1.3378048      0.69134248   
     21200  -10060.3       -10204.476      144.17586      29806.587      516.62481      16095.338      1.3382134      0.69134248   
     21300  -10063.637     -10210.456      146.81954      29843.051      526.09792      16109.471      1.3370394      0.69134248   
     21400  -10065.188     -10209.709      144.52164      26727.838      517.86385      16133.363      1.3350593      0.69134248   
     21500  -10064.884     -10208.271      143.38721      32361.015      513.79884      16162.72       1.3326344      0.69134248   
     21600  -10066.423     -10212.126      145.70281      29020.903      522.09633      16197.076      1.3298077      0.69134248   
     21700  -10063.447     -10210.156      146.70889      29500.664      525.70143      16229.065      1.3271865      0.69134248   
     21800  -10062.714     -10210.608      147.8939       32121.421      529.94767      16253.011      1.3252311      0.69134248   
     21900  -10064.208     -10209.451      145.24297      27189.233      520.44858      16267.455      1.3240545      0.69134248   
     22000  -10064.105     -10208.075      143.96976      28169.882      515.88632      16266.354      1.3241441      0.77780754   
     22100  -10063.239     -10207.143      143.90395      30436.81       515.65048      16254.556      1.3251052      0.77780754   
     22200  -10063.813     -10208.983      145.16938      29899.878      520.1849       16233.06       1.3268599      0.77780754   
     22300  -10069.366     -10208.532      139.16673      29851.117      498.67564      16206.464      1.3290374      0.77780754   
     22400  -10069.928     -10211.482      141.55458      29172.596      507.23199      16180.952      1.3311329      0.77780754   
     22500  -10069.038     -10210.069      141.03085      31288.154      505.35533      16157.912      1.3330309      0.77780754   
     22600  -10066.051     -10208.676      142.62556      28977.931      511.06963      16144.872      1.3341076      0.77780754   
     22700  -10062.227     -10210.958      148.73197      28569.006      532.95073      16141.721      1.3343681      0.77780754   
     22800  -10066.411     -10209.726      143.31515      31761.215      513.54065      16150.454      1.3336465      0.77780754   
     22900  -10068.008     -10213.823      145.81579      33695.403      522.50119      16171.466      1.3319137      0.77780754   
     23000  -10067.24      -10210.489      143.24981      34234.062      513.3065       16205.507      1.3291158      0.80411522   
     23100  -10070.046     -10207.19       137.14485      29617.059      491.43064      16250.093      1.3254691      0.80411522   
     23200  -10070.19      -10213.964      143.77353      29729.726      515.18315      16293.224      1.3219604      0.80411522   
     23300  -10072.914     -10217.605      144.6906       28433.49       518.46927      16316.879      1.3200439      0.80411522   
     23400  -10073.342     -10212.618      139.27628      32773.239      499.06819      16314.474      1.3202385      0.80411522   
     23500  -10070.801     -10214.759      143.95827      30567.994      515.84512      16293.098      1.3219706      0.80411522   
     23600  -10069.325     -10214.313      144.98775      32886.815      519.53408      16255.566      1.3250229      0.80411522   
     23700  -10069.056     -10216.524      147.46835      31472.801      528.42279      16209.699      1.3287722      0.80411522   
     23800  -10063.128     -10211.131      148.00337      29735.412      530.33993      16157.764      1.3330432      0.80411522   
     23900  -10062.37      -10207.51       145.13986      31619.059      520.07911      16113.941      1.3366685      0.80411522   
     24000  -10062.997     -10211.157      148.15978      33407.242      530.90039      16084.693      1.339099       0.79777971   
     24100  -10065.312     -10208.818      143.50638      29323.152      514.22588      16072.019      1.340155       0.79777971   
     24200  -10066.439     -10207.838      141.39881      26411.044      506.67382      16070.948      1.3402443      0.79777971   
     24300  -10065.396     -10210.831      145.43503      30980.526      521.13681      16078.845      1.3395861      0.79777971   
     24400  -10064.264     -10209.252      144.9878       29313.12       519.53425      16095.813      1.3381739      0.79777971   
     24500  -10066.842     -10210.786      143.94376      29993.644      515.79315      16128.882      1.3354302      0.79777971   
     24600  -10067.579     -10211.133      143.55419      31232.536      514.39718      16170.622      1.3319832      0.79777971   
     24700  -10067.56      -10209.205      141.64525      29147.042      507.55689      16211.387      1.3286338      0.79777971   
     24800  -10070.775     -10215.325      144.55004      28426.544      517.96563      16250.345      1.3254486      0.79777971   
     24900  -10069.013     -10212.507      143.49405      28462.264      514.18171      16280.279      1.3230115      0.79777971   
     25000  -10069.502     -10213.663      144.16119      29544.529      516.57227      16298.194      1.3215573      0.7446252    
     25100  -10069.264     -10215.586      146.32271      28794.713      524.31761      16301.118      1.3213202      0.7446252    
     25200  -10069.74      -10213.042      143.30182      29696.845      513.49286      16284.337      1.3226818      0.7446252    
     25300  -10069.251     -10213.422      144.17068      31303.333      516.60627      16246.164      1.3257896      0.7446252    
     25400  -10067.377     -10211.871      144.49462      30013.786      517.76703      16190.66       1.3303347      0.7446252    
     25500  -10067.822     -10210.082      142.2605       30006.466      509.7615       16128.675      1.3354473      0.7446252    
     25600  -10067.115     -10209.528      142.41342      28764.693      510.30948      16072.848      1.3400859      0.7446252    
     25700  -10065.678     -10211.606      145.92872      31502.773      522.90584      16032.63       1.3434475      0.7446252    
     25800  -10064.986     -10209.992      145.00539      27875.195      519.59729      16011.826      1.345193       0.7446252    
     25900  -10063.688     -10204.541      140.85255      33474.993      504.71642      16010.311      1.3453203      0.7446252    
     26000  -10064.993     -10206.688      141.69502      28116.536      507.73523      16035.545      1.3432032      0.73907336   
     26100  -10064.972     -10207.695      142.72256      32151.174      511.41722      16083.121      1.3392299      0.73907336   
     26200  -10066.316     -10209.906      143.58997      30800.164      514.5254       16146.004      1.3340141      0.73907336   
     26300  -10066.237     -10210.463      144.2254       26548.146      516.80233      16215.333      1.3283105      0.73907336   
     26400  -10064.062     -10206.23       142.16738      29270.256      509.42786      16276.202      1.3233429      0.73907336   
     26500  -10065.824     -10214.63       148.80578      25801.63       533.2152       16317.982      1.3199547      0.73907336   
     26600  -10066.243     -10210.731      144.4884       30172.69       517.74476      16331.702      1.3188458      0.73907336   
     26700  -10070.448     -10216.769      146.32043      27433.073      524.30947      16322.208      1.3196129      0.73907336   
     26800  -10071.888     -10212.741      140.85319      28411.077      504.71872      16288.33       1.3223576      0.73907336   
     26900  -10069.315     -10215.745      146.43038      29763.426      524.70344      16234.653      1.3267297      0.73907336   
     27000  -10068.836     -10210.474      141.63821      29256.096      507.53166      16167.843      1.3322121      0.72041611   
     27100  -10067.527     -10211.639      144.11143      29703.22       516.39396      16106.651      1.3372734      0.72041611   
     27200  -10064.249     -10206.452      142.20338      32500.316      509.55683      16060.783      1.3410926      0.72041611   
     27300  -10060.811     -10208.643      147.83194      33115.586      529.72562      16041.545      1.3427008      0.72041611   
     27400  -10066.481     -10214.415      147.9342       32926.372      530.09208      16051.72       1.3418497      0.72041611   
     27500  -10066.698     -10210.473      143.77416      31896.111      515.18542      16083.448      1.3392027      0.72041611   
     27600  -10066.577     -10210.132      143.55462      28578.391      514.39873      16129.963      1.3353407      0.72041611   
     27700  -10065.908     -10209.831      143.92257      26523.305      515.7172       16170.51       1.3319924      0.72041611   
     27800  -10063.744     -10210.854      147.11039      31333.313      527.1401       16196.523      1.3298531      0.72041611   
     27900  -10065.496     -10210.846      145.35053      28733.588      520.83401      16217.903      1.3281         0.72041611   
     28000  -10066.307     -10211.84       145.53296      29582.521      521.48771      16235.429      1.3266663      0.76969935   
     28100  -10063.813     -10211.056      147.24313      29241.514      527.61577      16247.695      1.3256648      0.76969935   
     28200  -10064.774     -10209.76       144.98638      30183.348      519.52917      16252.871      1.3252426      0.76969935   
     28300  -10062.15      -10205.224      143.07442      31243.143      512.67804      16254.267      1.3251287      0.76969935   
     28400  -10061.248     -10206.924      145.67632      32828.032      522.00142      16264.634      1.3242841      0.76969935   
     28500  -10065.907     -10209.997      144.09033      28626.559      516.31835      16282.126      1.3228614      0.76969935   
     28600  -10068.103     -10213.528      145.42531      29275.891      521.10197      16293.851      1.3219095      0.76969935   
     28700  -10073.063     -10214.466      141.40374      30000.297      506.69148      16293.673      1.321924       0.76969935   
     28800  -10073.683     -10216.603      142.92012      27660.458      512.12513      16281.145      1.3229412      0.76969935   
     28900  -10068.85      -10212.994      144.14433      29364.321      516.51183      16254.32       1.3251244      0.76969935   
     29000  -10067.439     -10213.372      145.93241      32935.596      522.91905      16222.773      1.3277012      0.75243921   
     29100  -10065.708     -10209.335      143.62637      32758.962      514.65585      16199.622      1.3295987      0.75243921   
     29200  -10063.976     -10213.617      149.64084      29855.165      536.20746      16188.845      1.3304839      0.75243921   
     29300  -10063.435     -10205.899      142.46453      34410.709      510.49262      16187.755      1.3305734      0.75243921   
     29400  -10067.615     -10211.159      143.54426      32128.153      514.36161      16199.116      1.3296402      0.75243921   
     29500  -10066.117     -10208.749      142.63156      29918.357      511.09114      16214.004      1.3284194      0.75243921   
     29600  -10067.277     -10212.696      145.41938      27095.747      521.08071      16230.353      1.3270812      0.75243921   
     29700  -10065.139     -10211.995      146.85606      30086.465      526.22876      16245.468      1.3258465      0.75243921   
     29800  -10061.673     -10205.478      143.80478      29932.5        515.29514      16253.326      1.3252055      0.75243921   
     29900  -10057.172     -10208.381      151.2089       27635.532      541.82628      16259.588      1.3246951      0.75243921   
     30000  -10062.683     -10207.997      145.31386      29635.094      520.70262      16261.825      1.3245128      0.75592109   
     30100  -10067.693     -10211.674      143.98091      28275.372      515.92625      16257.345      1.3248778      0.75592109   
     30200  -10061.827     -10207.131      145.30354      28783.373      520.66565      16239.47       1.3263361      0.75592109   
     30300  -10062.027     -10207.892      145.86432      30725.852      522.67509      16216.75       1.3281944      0.75592109   
     30400  -10063.434     -10206.253      142.81879      31491.339      511.76205      16190.466      1.3303506      0.75592109   
     30500  -10062.984     -10214.176      151.19224      28252.877      541.7666       16161.626      1.3327246      0.75592109   
     30600  -10062.667     -10212.864      150.19691      30295.461      538.20002      16134.597      1.3349572      0.75592109   
     30700  -10059.569     -10206.87       147.3019       30636.472      527.82634      16110.099      1.3369872      0.75592109   
     30800  -10059.91      -10205.733      145.82329      32121.93       522.52806      16102.147      1.3376475      0.75592109   
     30900  -10059.05      -10208.122      149.07136      34101.888      534.16684      16115.508      1.3365385      0.75592109   
     31000  -10065.051     -10212.954      147.90251      29778.853      529.97851      16140.986      1.3344288      0.79227905   
     31100  -10067.249     -10213.657      146.40839      29399.63       524.62464      16171.968      1.3318723      0.79227905   
     31200  -10071.789     -10211.672      139.88295      31075.105      501.24206      16202.497      1.3293628      0.79227905   
     31300  -10070.872     -10212.978      142.10611      27624.867      509.20829      16225.065      1.3275137      0.79227905   
     31400  -10072.258     -10213.722      141.46362      30681.945      506.90606      16238.88       1.3263844      0.79227905   
     31500  -10070.132     -10214.458      144.32658      27342.711      517.1649       16243.446      1.3260115      0.79227905   
     31600  -10072.406     -10214.706      142.30077      32538.239      509.90581      16238.454      1.3264192      0.79227905   
     31700  -10071.228     -10213.176      141.94826      28644.919      508.64268      16223.894      1.3276095      0.79227905   
     31800  -10067.599     -10215.208      147.60896      30158.751      528.92665      16199.878      1.3295777      0.79227905   
     31900  -10068.876     -10215.575      146.69882      28984.907      525.66533      16171.512      1.3319099      0.79227905   
     32000  -10068.574     -10212.086      143.5122       28327.466      514.24672      16138.692      1.3346185      0.67926738   
     32100  -10066.032     -10213.711      147.67877      29951.803      529.17677      16104.614      1.3374426      0.67926738   
     32200  -10068.081     -10211.455      143.3735       29451.537      513.74973      16080.188      1.3394742      0.67926738   
     32300  -10068.648     -10210.021      141.37265      33777.596      506.58009      16070.473      1.3402839      0.67926738   
     32400  -10069.591     -10214.796      145.20456      30121.058      520.31096      16079.366      1.3395426      0.67926738   
     32500  -10068.923     -10212.176      143.25352      31161.977      513.31981      16101.39       1.3377104      0.67926738   
     32600  -10068.815     -10211.338      142.52305      29231.049      510.70231      16134.894      1.3349326      0.67926738   
     32700  -10064.842     -10210.926      146.08377      32433.382      523.46144      16175.302      1.3315978      0.67926738   
     32800  -10065.307     -10210.828      145.52112      29951.248      521.4453       16225.045      1.3275153      0.67926738   
     32900  -10065.19      -10212.565      147.37576      27918.394      528.09103      16277.67       1.3232235      0.67926738   
     33000  -10069.242     -10213.422      144.18061      30369.921      516.64183      16325.047      1.3193834      0.75106855   
     33100  -10072.361     -10214.388      142.02737      25598.349      508.92614      16351.914      1.3172156      0.75106855   
     33200  -10077.194     -10213.337      136.14355      28004.848      487.84266      16349.45       1.3174142      0.75106855   
     33300  -10074.587     -10211.553      136.96644      30280.616      490.79133      16320.753      1.3197305      0.75106855   
     33400  -10071.727     -10216.958      145.23165      26077.917      520.40803      16275.036      1.3234377      0.75106855   
     33500  -10069.131     -10214.906      145.77465      28675.139      522.35375      16223.043      1.3276791      0.75106855   
     33600  -10067.722     -10210.511      142.78901      28118.245      511.65532      16172.907      1.3317949      0.75106855   
     33700  -10068.342     -10212.357      144.01539      29308.982      516.04982      16130.084      1.3353307      0.75106855   
     33800  -10067.696     -10212.144      144.44729      34524.253      517.59742      16096.645      1.3381047      0.75106855   
     33900  -10066.946     -10209.572      142.62649      30122.856      511.07297      16079.459      1.3395349      0.75106855   
     34000  -10068.625     -10215.664      147.03928      30807.341      526.8853       16080.862      1.339418       0.8615215    
     34100  -10063.275     -10210.235      146.96066      28353.755      526.6036       16093.028      1.3384054      0.8615215    
     34200  -10065.326     -10210.901      145.57566      34046.028      521.64073      16120.287      1.3361422      0.8615215    
     34300  -10063.748     -10211.551      147.80256      31935.11       529.62037      16160.105      1.3328501      0.8615215    
     34400  -10064.471     -10210.182      145.71018      35782.776      522.12274      16206.592      1.3290269      0.8615215    
     34500  -10066.906     -10209.981      143.07526      30751.118      512.68105      16254.363      1.3251209      0.8615215    
     34600  -10071.964     -10213.886      141.92127      26675.124      508.54597      16297.766      1.321592       0.8615215    
     34700  -10072.91      -10213.764      140.85351      26876.003      504.71985      16316.476      1.3200765      0.8615215    
     34800  -10071.914     -10213.653      141.73958      31852.529      507.8949       16312.355      1.32041        0.8615215    
     34900  -10069.996     -10211.315      141.31882      27662.368      506.3872       16290.369      1.3221921      0.8615215    
     35000  -10067.479     -10213.799      146.31945      28241.639      524.30592      16250.166      1.3254631      0.7163995    
     35100  -10066.162     -10211.503      145.34165      31839.087      520.8022       16195.597      1.3299292      0.7163995    
     35200  -10066.543     -10207.725      141.18132      30812.536      505.89449      16140.775      1.3344463      0.7163995    
     35300  -10069.915     -10209.215      139.30012      31449.538      499.15362      16102.957      1.3375802      0.7163995    
     35400  -10067.706     -10211.693      143.98663      34951.629      515.94674      16087.199      1.3388904      0.7163995    
     35500  -10065.553     -10210.692      145.13899      32789.056      520.07599      16090.072      1.3386513      0.7163995    
     35600  -10065.521     -10207.476      141.95545      32137.764      508.66845      16107.15       1.337232       0.7163995    
     35700  -10064.861     -10209.443      144.58188      30557.654      518.07971      16141.702      1.3343696      0.7163995    
     35800  -10066.203     -10207.631      141.42779      28646.491      506.77769      16187.423      1.3306007      0.7163995    
     35900  -10061.847     -10211.415      149.56757      30789.6        535.9449       16233.321      1.3268386      0.7163995    
     36000  -10061.014     -10208.721      147.70746      30969.259      529.27958      16278.277      1.3231743      0.77384663   
     36100  -10061.601     -10211.43       149.82831      27050.862      536.87923      16314.182      1.3202621      0.77384663   
     36200  -10061.755     -10212.024      150.26862      27767.066      538.45698      16327.72       1.3191675      0.77384663   
     36300  -10062.529     -10209.56       147.03143      31371.369      526.85717      16321.959      1.3196331      0.77384663   
     36400  -10062.956     -10208.482      145.52602      28017.812      521.46285      16299.484      1.3214527      0.77384663   
     36500  -10065.495     -10209.219      143.72361      26568.736      515.00426      16264.483      1.3242964      0.77384663   
     36600  -10061.053     -10209.129      148.07564      30112.656      530.59888      16220.85       1.3278587      0.77384663   
     36700  -10061.457     -10211.361      149.90392      29628.33       537.15016      16177.795      1.3313926      0.77384663   
     36800  -10060.688     -10208.798      148.11005      29945.264      530.72219      16138.333      1.3346481      0.77384663   
     36900  -10064.253     -10208.585      144.33181      31783.518      517.18365      16109.611      1.3370277      0.77384663   
     37000  -10064.516     -10207.365      142.84895      33501.089      511.87012      16094.149      1.3383122      0.82070312   
     37100  -10065.133     -10207.53       142.39733      31264.433      510.25181      16090.199      1.3386408      0.82070312   
     37200  -10066.246     -10212.369      146.12308      30141.762      523.6023       16104.453      1.337456       0.82070312   
     37300  -10067.097     -10211.011      143.91375      26684.926      515.68561      16133.083      1.3350825      0.82070312   
     37400  -10069.31      -10209.226      139.91636      29157.303      501.36178      16164.663      1.3324742      0.82070312   
     37500  -10066.475     -10205.932      139.45695      31356.312      499.71559      16198.493      1.3296914      0.82070312   
     37600  -10066.777     -10214.849      148.07226      26665.929      530.58679      16235.661      1.3266473      0.82070312   
     37700  -10065.708     -10210.988      145.28072      31234.73       520.58386      16270.852      1.323778       0.82070312   
     37800  -10067.1       -10214.4        147.3          28572.116      527.81954      16300.85       1.3213419      0.82070312   
     37900  -10068.383     -10213.82       145.43692      29916.607      521.14357      16323.804      1.3194839      0.82070312   
     38000  -10069.149     -10214.064      144.91502      28491.966      519.27344      16341.91       1.318022       0.86807503   
     38100  -10067.197     -10212.906      145.70866      27223.702      522.1173       16343.191      1.3179186      0.86807503   
     38200  -10069.057     -10213.841      144.78442      26512.189      518.80546      16319.508      1.3198313      0.86807503   
     38300  -10066.486     -10215.995      149.5089       31705.996      535.73467      16274.308      1.3234969      0.86807503   
     38400  -10066.842     -10212.413      145.57124      32035.214      521.62489      16214.064      1.3284144      0.86807503   
     38500  -10068.363     -10213.213      144.84965      30158.633      519.03921      16142.344      1.3343165      0.86807503   
     38600  -10067.7       -10211.5        143.79966      30294.606      515.27679      16074.967      1.3399092      0.86807503   
     38700  -10067.493     -10209.96       142.46718      34310.077      510.50211      16026.617      1.3439515      0.86807503   
     38800  -10065.555     -10209.404      143.84915      29995.843      515.45414      16004.541      1.3458053      0.86807503   
     38900  -10065.981     -10208.436      142.455        32165.451      510.45847      16010.624      1.345294       0.86807503   
     39000  -10067.438     -10208.647      141.2093       32797.383      505.99474      16047.027      1.3422422      0.69426164   
     39100  -10072.004     -10213.66       141.6564       30809.608      507.59687      16116.196      1.3364814      0.69426164   
     39200  -10077.801     -10220.718      142.91674      26702.578      512.11304      16200.332      1.3295404      0.69426164   
     39300  -10072.885     -10219.278      146.39307      29871.595      524.56976      16275.692      1.3233844      0.69426164   
     39400  -10068.339     -10215.498      147.15911      26684.43       527.31468      16332.926      1.3187469      0.69426164   
     39500  -10066.294     -10210.196      143.9013       28239.045      515.64098      16361.538      1.3164408      0.69426164   
     39600  -10069.079     -10209.255      140.17635      25503.962      502.2934       16360.195      1.3165489      0.69426164   
     39700  -10069.163     -10214.808      145.6451       27186.953      521.88953      16332.436      1.3187865      0.69426164   
     39800  -10059.699     -10211.918      152.21836      28969.997      545.44348      16284.387      1.3226778      0.69426164   
     39900  -10062.009     -10211.232      149.22366      32439.231      534.71258      16233.756      1.326803       0.69426164   
     40000  -10063.054     -10209.193      146.13913      32448.115      523.65979      16191.95       1.3302287      0.85202613   
     40100  -10064.457     -10212.54       148.0837       31865.695      530.62776      16164.175      1.3325145      0.85202613   
     40200  -10064.382     -10210.236      145.85435      32044.557      522.63935      16152.73       1.3334586      0.85202613   
     40300  -10063.35      -10207.466      144.11624      32174.912      516.41119      16156.475      1.3331495      0.85202613   
     40400  -10062.218     -10210.518      148.30012      28692.016      531.40327      16175.063      1.3316175      0.85202613   
     40500  -10061.535     -10210.66       149.12567      29346.567      534.36147      16200.766      1.3295048      0.85202613   
     40600  -10062.252     -10207.252      145.00018      29417.124      519.5786       16227.972      1.3272759      0.85202613   
     40700  -10061.779     -10208.332      146.55312      30598.349      525.14324      16256.169      1.3249737      0.85202613   
     40800  -10063.433     -10208.357      144.92387      28266.517      519.30517      16278.883      1.3231249      0.85202613   
     40900  -10063.204     -10208.364      145.1602       31389.961      520.152        16293.952      1.3219013      0.85202613   
     41000  -10061.576     -10208.811      147.2357       29384.585      527.58914      16304.417      1.3210529      0.73255347   
     41100  -10062.641     -10208.772      146.13038      28656.116      523.62843      16303.978      1.3210884      0.73255347   
     41200  -10065.441     -10212.652      147.21037      27451.853      527.49836      16292.871      1.321989       0.73255347   
     41300  -10060.207     -10209.048      148.84098      31118.256      533.34132      16271.577      1.3237191      0.73255347   
     41400  -10060.412     -10206.916      146.5045       28439.219      524.96902      16250.882      1.3254048      0.73255347   
     41500  -10061.867     -10206.416      144.54865      32767.897      517.96064      16230.1        1.3271019      0.73255347   
     41600  -10061.949     -10209.712      147.76351      30827.935      529.48042      16212.397      1.328551       0.73255347   
     41700  -10061.502     -10209.43       147.92771      27955.052      530.0688       16199.559      1.3296039      0.73255347   
     41800  -10062.371     -10205.07       142.69829      31568.984      511.33025      16197.914      1.3297389      0.73255347   
     41900  -10063.727     -10207.711      143.98425      31508.251      515.93822      16209.905      1.3287552      0.73255347   
     42000  -10060.187     -10207.542      147.35443      30259.466      528.0146       16230.835      1.3270418      0.79370238   
     42100  -10062.406     -10209.978      147.57187      29104.827      528.79373      16252.609      1.3252639      0.79370238   
     42200  -10062.164     -10208.398      146.23428      32228.008      524.00077      16271.46       1.3237286      0.79370238   
     42300  -10063.556     -10212.914      149.35823      30101.443      535.19478      16285.516      1.3225861      0.79370238   
     42400  -10063.489     -10210.115      146.62589      28076.002      525.40402      16292.705      1.3220025      0.79370238   
     42500  -10068.353     -10211.227      142.87382      27965.891      511.95922      16281.787      1.322889       0.79370238   
     42600  -10062.585     -10209.614      147.02928      26748.726      526.84947      16246.139      1.3257917      0.79370238   
     42700  -10063.279     -10208.487      145.20757      29304.334      520.32175      16195.906      1.3299038      0.79370238   
     42800  -10061.873     -10208.523      146.65001      33271.145      525.49042      16138.154      1.3346629      0.79370238   
     42900  -10062.378     -10204.265      141.88735      31656.245      508.42441      16092.041      1.3384875      0.79370238   
     43000  -10063.381     -10207.632      144.25039      33496.01       516.89188      16076.884      1.3397494      0.85877714   
     43100  -10063.509     -10209.548      146.0384       30549.02       523.29887      16093.411      1.3383736      0.85877714   
     43200  -10066.159     -10210.881      144.72171      29660.953      518.58075      16133.103      1.3350808      0.85877714   
     43300  -10069.341     -10212.282      142.94099      31783.8        512.19993      16190.455      1.3303515      0.85877714   
     43400  -10070.439     -10212.492      142.05224      28936.85       509.01528      16253.674      1.3251771      0.85877714   
     43500  -10071.835     -10215.778      143.94245      28261.392      515.78845      16306.639      1.3208728      0.85877714   
     43600  -10070.885     -10209.477      138.59251      28102.865      496.61804      16337.9        1.3183455      0.85877714   
     43700  -10071.564     -10212.664      141.09945      25074.876      505.60114      16346.525      1.3176499      0.85877714   
     43800  -10069.152     -10214.071      144.91812      24661.403      519.28457      16327.489      1.3191861      0.85877714   
     43900  -10063.341     -10207.091      143.75019      27807.226      515.09951      16285.148      1.322616       0.85877714   
     44000  -10064.128     -10209.286      145.15789      28440.425      520.14373      16236.268      1.3265977      0.71479848   
     44100  -10063.612     -10210.785      147.17391      29946.443      527.36774      16185.618      1.3307491      0.71479848   
     44200  -10060.749     -10209.594      148.84506      30460.496      533.35597      16140.134      1.3344992      0.71479848   
     44300  -10060.159     -10206.475      146.31632      31458.071      524.29473      16108.691      1.3371041      0.71479848   
     44400  -10062.495     -10210.087      147.5922       32301.965      528.86657      16096.339      1.3381302      0.71479848   
     44500  -10063.523     -10208.588      145.06501      31448.83       519.81091      16107.156      1.3372315      0.71479848   
     44600  -10058.95      -10206.023      147.07291      31735.178      527.00582      16138          1.3346757      0.71479848   
     44700  -10061.496     -10206.493      144.99656      31036.028      519.56563      16189.014      1.3304699      0.71479848   
     44800  -10063.493     -10209.313      145.82009      29182.113      522.51659      16256.308      1.3249623      0.71479848   
     44900  -10065.017     -10213.799      148.78195      27202.547      533.12981      16325.804      1.3193223      0.71479848   
     45000  -10066.432     -10209.74       143.30824      26434.153      513.5159       16376.704      1.3152217      0.79995462   
     45100  -10069.094     -10213.189      144.09534      28960.664      516.3363       16395.518      1.3137125      0.79995462   
     45200  -10065.399     -10214.341      148.94194      29615.593      533.7031       16379.219      1.3150197      0.79995462   
     45300  -10062.945     -10210.272      147.32752      30837.894      527.91814      16338.704      1.3182806      0.79995462   
     45400  -10067.189     -10212.864      145.67561      32549.884      521.99888      16284.873      1.3226382      0.79995462   
     45500  -10067.101     -10210.614      143.51297      29592.657      514.24949      16225.743      1.3274583      0.79995462   
     45600  -10067.283     -10209.16       141.87691      27775.959      508.38699      16163.495      1.3325705      0.79995462   
     45700  -10065.792     -10206.196      140.40414      30493.268      503.10963      16103.492      1.3375358      0.79995462   
     45800  -10064.859     -10208.81       143.95155      32052.387      515.82105      16059.065      1.341236       0.79995462   
     45900  -10066.857     -10209.119      142.26147      32974.873      509.765        16038.168      1.3429836      0.79995462   
     46000  -10062.981     -10209.34       146.35906      30711.923      524.44788      16038.109      1.3429885      0.78214828   
     46100  -10060.782     -10204.99       144.20785      32091.057      516.73945      16055.456      1.3415375      0.78214828   
     46200  -10066.81      -10207.955      141.14583      29494.285      505.76734      16086.349      1.3389612      0.78214828   
     46300  -10066.571     -10207.448      140.87751      30951.002      504.80586      16126.366      1.3356386      0.78214828   
     46400  -10064.416     -10209.778      145.3623       30979.6        520.87619      16170.464      1.3319962      0.78214828   
     46500  -10066.481     -10212.543      146.06126      30719.558      523.38076      16209.405      1.3287962      0.78214828   
     46600  -10066.262     -10210.736      144.47388      30263.326      517.69273      16238.821      1.3263892      0.78214828   
     46700  -10066.447     -10211.095      144.64844      27969.926      518.31821      16257.277      1.3248834      0.78214828   
     46800  -10065.247     -10208.484      143.23658      27518.441      513.25912      16256.246      1.3249674      0.78214828   
     46900  -10066.128     -10209.128      142.99939      28683.885      512.40919      16234.703      1.3267256      0.78214828   
     47000  -10064.291     -10208.655      144.3639       28398.542      517.29862      16197.83       1.3297458      0.71523192   
     47100  -10061.459     -10210.56       149.10117      29442.994      534.27368      16160.973      1.3327784      0.71523192   
     47200  -10062.518     -10212.258      149.73903      29605.594      536.55932      16131.395      1.3352222      0.71523192   
     47300  -10064.379     -10207.701      143.32254      27568.108      513.56714      16115.299      1.3365558      0.71523192   
     47400  -10065.311     -10210.987      145.67545      30579.571      521.9983       16115.508      1.3365385      0.71523192   
     47500  -10061.277     -10206.529      145.25152      31270.346      520.47923      16130.364      1.3353076      0.71523192   
     47600  -10065.406     -10210.265      144.85831      33018.851      519.07024      16157.882      1.3330334      0.71523192   
     47700  -10066.645     -10211.559      144.91408      28917.222      519.27009      16186.357      1.3306883      0.71523192   
     47800  -10069.016     -10209.811      140.79508      27811.648      504.51048      16205.721      1.3290983      0.71523192   
     47900  -10065.944     -10209.591      143.64679      30945.241      514.729        16210.297      1.3287232      0.71523192   
     48000  -10063.982     -10208.698      144.71657      30289.392      518.56235      16207.471      1.3289548      1.0508602    
     48100  -10063.321     -10212.002      148.68153      31436.575      532.76997      16207.34       1.3289656      1.0508602    
     48200  -10066.465     -10208.419      141.95417      33067.644      508.66386      16210.705      1.3286897      1.0508602    
     48300  -10066.055     -10210.775      144.71979      30904.955      518.57387      16213.544      1.3284571      1.0508602    
     48400  -10067.346     -10213.085      145.73934      30977.48       522.22722      16204.72       1.3291804      1.0508602    
     48500  -10068.601     -10212.883      144.28206      29258.276      517.00537      16185.825      1.3307321      1.0508602    
     48600  -10068.983     -10213.092      144.10865      29327.351      516.38397      16158.733      1.3329632      1.0508602    
     48700  -10065.507     -10214.035      148.52769      31464.066      532.21873      16130.006      1.3353371      1.0508602    
     48800  -10063.054     -10212.427      149.37375      31780.203      535.25042      16115.468      1.3365418      1.0508602    
     48900  -10059.005     -10209.314      150.30893      30853.73       538.60143      16118.122      1.3363217      1.0508602    
     49000  -10057.923     -10205.75       147.82689      30799.329      529.70755      16137.078      1.334752       0.8947724    
     49100  -10057.628     -10206.191      148.56342      32631.715      532.34674      16173.245      1.3317672      0.8947724    
     49200  -10060.329     -10209.091      148.76125      30742.613      533.05563      16223.171      1.3276687      0.8947724    
     49300  -10059.761     -10208.955      149.19333      29546.461      534.6039       16269.389      1.3238971      0.8947724    
     49400  -10060.113     -10204.757      144.64417      24524.878      518.30292      16300.042      1.3214074      0.8947724    
     49500  -10058.899     -10205.875      146.97621      26999.213      526.65932      16309.53       1.3206387      0.8947724    
     49600  -10062.642     -10210.117      147.47496      32246.469      528.44648      16298.074      1.321567       0.8947724    
     49700  -10060.034     -10206.476      146.44201      28554.872      524.7451       16262.037      1.3244956      0.8947724    
     49800  -10059.7       -10206.69       146.98983      30304.82       526.70811      16209.791      1.3287646      0.8947724    
     49900  -10058.749     -10206.069      147.31958      31227.591      527.8897       16154.105      1.3333451      0.8947724    
     50000  -10060.154     -10208.412      148.25857      27934.867      531.25439      16104.862      1.337422       0.80714388   
     50100  -10057.966     -10205.005      147.03963      30919.954      526.88657      16067.015      1.3405724      0.80714388   
     50200  -10057.336     -10206          148.6644       32293.861      532.70857      16057.76       1.341345       0.80714388   
     50300  -10062.383     -10213.172      150.78973      33345.889      540.32427      16083.876      1.339167       0.80714388   
     50400  -10064.54      -10212.618      148.07882      28291.408      530.61028      16136.007      1.3348406      0.80714388   
     50500  -10066.301     -10210.729      144.42806      26397.559      517.52854      16198.185      1.3297167      0.80714388   
     50600  -10063.345     -10207.641      144.29571      25892.303      517.05428      16259.47       1.3247047      0.80714388   
     50700  -10065.774     -10210.599      144.82502      31270.523      518.95096      16314.484      1.3202377      0.80714388   
     50800  -10064.554     -10210.14       145.586        29782.497      521.67779      16352.259      1.3171878      0.80714388   
     50900  -10063.97      -10211.076      147.10543      26778.492      527.12234      16375.602      1.3153102      0.80714388   
     51000  -10061.643     -10211.912      150.26883      26073.265      538.45772      16378.767      1.3150561      0.73940372   
     51100  -10065.432     -10209.453      144.02097      27728.396      516.06981      16358.681      1.3166707      0.73940372   
     51200  -10067.891     -10211.996      144.1052       28224.988      516.37161      16315.003      1.3201957      0.73940372   
     51300  -10066.416     -10209.648      143.23246      32137.104      513.24434      16256.213      1.3249701      0.73940372   
     51400  -10066.178     -10214.127      147.94907      27506.388      530.14536      16192.575      1.3301773      0.73940372   
     51500  -10063.704     -10214.354      150.64987      30483.8        539.82313      16124.05       1.3358305      0.73940372   
     51600  -10063.947     -10211.157      147.21042      35048.292      527.49854      16063.149      1.340895       0.73940372   
     51700  -10066.18      -10212.346      146.16558      32922.548      523.75457      16029.595      1.3437019      0.73940372   
     51800  -10066.127     -10210.977      144.8492       31442.22       519.03762      16026.222      1.3439847      0.73940372   
     51900  -10065.785     -10214.531      148.74648      29931.346      533.0027       16050.297      1.3419687      0.73940372   
     52000  -10067.95      -10209.522      141.57193      28115.768      507.29417      16093.737      1.3383465      0.8224002    
     52100  -10065.91      -10212.02       146.11052      32804.239      523.55728      16151.293      1.3335772      0.8224002    
     52200  -10070.778     -10212.228      141.44942      29930.225      506.85517      16212.919      1.3285083      0.8224002    
     52300  -10068.156     -10211.94       143.78409      27678.643      515.22099      16269.666      1.3238746      0.8224002    
     52400  -10068.592     -10210.673      142.08087      28940.619      509.11785      16314.503      1.3202361      0.8224002    
     52500  -10068.459     -10210.141      141.68193      26239.087      507.68834      16334.871      1.3185899      0.8224002    
     52600  -10063.581     -10205.163      141.58157      27641.635      507.32873      16325.245      1.3193674      0.8224002    
     52700  -10063.724     -10209.748      146.02416      28751.358      523.24782      16296.422      1.3217009      0.8224002    
     52800  -10063.266     -10208.535      145.26966      27709.571      520.54424      16251.018      1.3253937      0.8224002    
     52900  -10062.762     -10212.381      149.61918      29658.704      536.12984      16205.763      1.3290948      0.8224002    
     53000  -10060.551     -10208.877      148.3254       30365.588      531.49386      16169.834      1.3320481      0.8482723    
     53100  -10062.603     -10211.055      148.45212      32647.943      531.94794      16150.509      1.333642       0.8482723    
     53200  -10059.152     -10206.484      147.33199      32889.788      527.93418      16146.77       1.3339508      0.8482723    
     53300  -10060.043     -10205.143      145.09932      32711.629      519.93385      16159.089      1.3329338      0.8482723    
     53400  -10060.922     -10206.943      146.02066      28745.108      523.2353       16179.877      1.3312213      0.8482723    
     53500  -10062.151     -10211.394      149.24284      30087.988      534.78131      16204.312      1.3292139      0.8482723    
     53600  -10062.063     -10210.636      148.57324      29394.878      532.38194      16229.777      1.3271283      0.8482723    
     53700  -10063.746     -10211.378      147.63234      31189.677      529.01042      16250.952      1.3253991      0.8482723    
     53800  -10064.958     -10208.124      143.16611      30539.662      513.00659      16267.447      1.3240551      0.8482723    
     53900  -10067.088     -10213.964      146.87599      30238.717      526.30017      16278.081      1.3231901      0.8482723    
     54000  -10063.939     -10212.369      148.42987      31033.26       531.86822      16276.473      1.3233209      0.78541644   
     54100  -10065.887     -10209.384      143.49631      29929.838      514.18981      16268.268      1.3239883      0.78541644   
     54200  -10064.59      -10209.437      144.84755      30646.181      519.03169      16256.378      1.3249567      0.78541644   
     54300  -10064.755     -10209.152      144.39618      31328.564      517.4143       16238.516      1.3264141      0.78541644   
     54400  -10066.992     -10211.609      144.61719      29455.261      518.20625      16215.683      1.3282818      0.78541644   
     54500  -10067.885     -10213.978      146.09279      28479.142      523.49374      16187.282      1.3306123      0.78541644   
     54600  -10069.183     -10213.508      144.32542      30826.97       517.16075      16151.95       1.333523       0.78541644   
     54700  -10066.64      -10213.313      146.67292      28900.849      525.57253      16113.744      1.3366848      0.78541644   
     54800  -10064.395     -10210.501      146.10675      31538.898      523.54378      16084.782      1.3390916      0.78541644   
     54900  -10061.544     -10205.332      143.78829      31588.72       515.23604      16070.87       1.3402508      0.78541644   
     55000  -10061.644     -10207.3        145.65574      30154.24       521.92766      16081.297      1.3393818      0.79799273   
     55100  -10068.034     -10211.951      143.91657      27278.206      515.69572      16112.949      1.3367507      0.79799273   
     55200  -10068.15      -10212.579      144.42873      32038.106      517.53093      16154.965      1.3332741      0.79799273   
     55300  -10066.968     -10209.96       142.99259      30403.941      512.38481      16200.165      1.3295541      0.79799273   
     55400  -10066.981     -10211.792      144.81189      29150.371      518.90392      16242.664      1.3260754      0.79799273   
     55500  -10065.472     -10211.545      146.0729       28957.128      523.42249      16272.714      1.3236266      0.79799273   
     55600  -10067.957     -10213.934      145.97726      26984.653      523.07976      16291.83       1.3220735      0.79799273   
     55700  -10067.266     -10212.576      145.3101       25592.704      520.68913      16294.417      1.3218635      0.79799273   
     55800  -10066.671     -10211.59       144.91867      29327.121      519.28654      16280.172      1.3230202      0.79799273   
     55900  -10068.184     -10213.19       145.00612      28764.569      519.59988      16254.342      1.3251226      0.79799273   
     56000  -10067.884     -10212.491      144.60744      32075.572      518.17129      16219.233      1.327991       0.82164234   
     56100  -10068.062     -10211.224      143.16205      33163.619      512.99204      16179.795      1.331228       0.82164234   
     56200  -10070.44      -10214.619      144.17932      33846.123      516.63722      16142.734      1.3342843      0.82164234   
     56300  -10066.613     -10211.5        144.88715      32693.227      519.17358      16108.602      1.3371115      0.82164234   
     56400  -10068.371     -10210.385      142.01357      29126.84       508.87671      16085.122      1.3390633      0.82164234   
     56500  -10067.804     -10212.389      144.58487      31961.082      518.09042      16086.546      1.3389448      0.82164234   
     56600  -10066.759     -10211.809      145.05004      29618.99       519.75728      16119.724      1.3361889      0.82164234   
     56700  -10065.901     -10207.852      141.95095      32131.794      508.65233      16173.992      1.3317057      0.82164234   
     56800  -10065.318     -10210.313      144.99537      32082.618      519.56136      16237.071      1.3265321      0.82164234   
     56900  -10071.023     -10213.094      142.07152      30720.778      509.08436      16291.458      1.3221037      0.82164234   
[...]
   2186900  -10064.187     -10208.616      144.42865      28527.382      517.53066      16273.25       1.323583       0.70394846   
   2187000  -10062.747     -10204.716      141.96865      31533.185      508.71572      16291.096      1.322133       0.72602424   
   2187100  -10062.378     -10210.641      148.26231      31492.106      531.26778      16305.417      1.3209719      0.72602424   
   2187200  -10066.068     -10208.235      142.16719      31240.544      509.42717      16314.049      1.3202729      0.72602424   
   2187300  -10067.609     -10211.628      144.01894      28161.738      516.06255      16317.991      1.3199539      0.72602424   
   2187400  -10067.581     -10210.118      142.53701      29017.183      510.75235      16311.325      1.3204934      0.72602424   
   2187500  -10067.106     -10213.383      146.27733      27487.608      524.155        16289.818      1.3222368      0.72602424   
   2187600  -10066.688     -10207.924      141.23651      27226.711      506.09226      16252.872      1.3252425      0.72602424   
   2187700  -10068.351     -10212.471      144.11964      31082.754      516.42337      16210.082      1.3287408      0.72602424   
   2187800  -10071.71      -10211.651      139.94074      33598.453      501.44914      16162.533      1.3326498      0.72602424   
   2187900  -10073.126     -10214.18       141.05391      31397.273      505.43796      16118.379      1.3363004      0.72602424   
   2188000  -10070.011     -10217.532      147.52139      32160.618      528.61285      16081.334      1.3393787      0.74306763   
   2188100  -10068.912     -10212.904      143.99178      28077.358      515.96523      16058.828      1.3412559      0.74306763   
   2188200  -10066.714     -10210.072      143.35756      34933.644      513.6926       16061.955      1.3409947      0.74306763   
   2188300  -10066.096     -10209.224      143.1288       30050.788      512.87288      16092.29       1.3384668      0.74306763   
   2188400  -10067.979     -10212.655      144.67621      34268.217      518.41772      16144.197      1.3341633      0.74306763   
   2188500  -10071.397     -10213.598      142.20013      30819.22       509.54521      16208.081      1.3289048      0.74306763   
   2188600  -10071.744     -10214.837      143.09254      30022.28       512.74296      16270.995      1.3237664      0.74306763   
   2188700  -10072.907     -10215.915      143.00786      26840.304      512.43953      16319.034      1.3198696      0.74306763   
   2188800  -10072.453     -10214.272      141.81869      28571.36       508.1784       16345.427      1.3177384      0.74306763   
   2188900  -10072.695     -10216.496      143.80152      25461.693      515.28346      16348.373      1.3175009      0.74306763   
   2189000  -10070.381     -10215.011      144.62958      28081.241      518.25063      16329.856      1.3189949      0.81444752   
   2189100  -10069.621     -10213.848      144.22744      32975.266      516.80964      16288.162      1.3223712      0.81444752   
   2189200  -10068.249     -10211.066      142.81734      28508.17       511.75686      16226.409      1.3274038      0.81444752   
   2189300  -10064.323     -10210.219      145.89654      28327.023      522.79052      16149.492      1.3337259      0.81444752   
   2189400  -10063.435     -10208.317      144.88217      33149.238      519.15574      16071.688      1.3401826      0.81444752   
   2189500  -10062.641     -10209.736      147.09541      33096.549      527.08643      16014.706      1.3449511      0.81444752   
   2189600  -10062.43      -10206.927      144.49718      33344.123      517.7762       15984.183      1.3475194      0.81444752   
   2189700  -10064.114     -10210.139      146.02563      30955.206      523.25309      15983.132      1.347608       0.81444752   
   2189800  -10064.118     -10211.052      146.93333      30037.893      526.50566      16011.178      1.3452475      0.81444752   
   2189900  -10065.03      -10208.137      143.10694      30044.265      512.79456      16063.864      1.3408353      0.81444752   
   2190000  -10068.193     -10207.129      138.93583      28858.066      497.84824      16136.372      1.3348103      0.82946744   
   2190100  -10068.619     -10213.219      144.60024      28520.522      518.14551      16211.223      1.3286472      0.82946744   
   2190200  -10064.787     -10212.815      148.02806      29319.169      530.4284       16275.336      1.3234133      0.82946744   
   2190300  -10067.576     -10211.136      143.56057      28392.714      514.42007      16320.227      1.3197731      0.82946744   
   2190400  -10069.186     -10213.862      144.67654      29002.019      518.4189       16343.71       1.3178768      0.82946744   
   2190500  -10069.359     -10212.367      143.00771      29675.414      512.43898      16350.873      1.3172995      0.82946744   
   2190600  -10068.031     -10211.109      143.07781      28455.37       512.69017      16340.452      1.3181396      0.82946744   
   2190700  -10068.38      -10213.458      145.07864      30676.946      519.85975      16310.542      1.3205568      0.82946744   
   2190800  -10067.352     -10211.523      144.17087      29270.376      516.60695      16272.1        1.3236765      0.82946744   
   2190900  -10066.955     -10207.603      140.6482       27066.722      503.98418      16233.909      1.3267905      0.82946744   
   2191000  -10069.397     -10215.223      145.82578      31110.916      522.53699      16198.972      1.329652       0.73244806   
   2191100  -10066.661     -10210.512      143.85158      31188.003      515.46283      16167.288      1.3322578      0.73244806   
   2191200  -10065.498     -10211.984      146.48642      31216.747      524.90424      16148.532      1.3338052      0.73244806   
   2191300  -10064.093     -10211.856      147.76351      31443.012      529.48044      16145.084      1.3340901      0.73244806   
   2191400  -10066.205     -10210.606      144.40141      33628.993      517.43303      16158.629      1.3329718      0.73244806   
   2191500  -10066.23      -10208.977      142.74716      32711.211      511.50535      16182.86       1.3309758      0.73244806   
   2191600  -10068.736     -10210.202      141.4652       27021.653      506.91173      16213.91       1.3284271      0.73244806   
   2191700  -10069.352     -10214.103      144.75081      28161.59       518.68504      16245.027      1.3258825      0.73244806   
   2191800  -10069.263     -10213.351      144.08826      29733.806      516.31091      16268.068      1.3240046      0.73244806   
   2191900  -10069.449     -10213.249      143.80041      28016.694      515.27948      16283.068      1.3227849      0.73244806   
   2192000  -10067.53      -10213.226      145.69565      29605.083      522.07066      16282.779      1.3228084      0.73768073   
   2192100  -10069.45      -10211.545      142.0957       29683.944      509.171        16266.106      1.3241643      0.73768073   
   2192200  -10066.173     -10213.537      147.36425      26861.537      528.04977      16241.943      1.3261342      0.73768073   
   2192300  -10064.188     -10209.599      145.41063      28711.093      521.04936      16213.365      1.3284717      0.73768073   
   2192400  -10064.631     -10210.629      145.99845      29292.014      523.15572      16186.234      1.3306985      0.73768073   
   2192500  -10062.56      -10209.358      146.79778      31985.064      526.01992      16160.502      1.3328173      0.73768073   
   2192600  -10063.94      -10211.673      147.73249      26246.769      529.36929      16142.005      1.3343445      0.73768073   
   2192700  -10061.505     -10208.494      146.98854      34504.151      526.70348      16128.821      1.3354353      0.73768073   
   2192800  -10063.526     -10210.002      146.47642      28697.514      524.86842      16127.477      1.3355466      0.73768073   
   2192900  -10064.008     -10209.36       145.35183      29809.298      520.83868      16134.551      1.334961       0.73768073   
   2193000  -10062.625     -10206.692      144.0664       29771.86       516.23259      16152.152      1.3335063      0.74797947   
   2193100  -10063.353     -10210.984      147.63069      30452.681      529.00452      16174.344      1.3316766      0.74797947   
   2193200  -10066.363     -10208.436      142.0725       29226.761      509.08786      16197.048      1.32981        0.74797947   
   2193300  -10066.256     -10210.028      143.77177      25647.82       515.17686      16207.221      1.3289753      0.74797947   
   2193400  -10066.457     -10212.149      145.69154      28265.669      522.05594      16196.73       1.3298361      0.74797947   
   2193500  -10067.389     -10209.592      142.20238      30182.644      509.55327      16174.123      1.3316948      0.74797947   
   2193600  -10070.887     -10212.387      141.49975      31411.373      507.03554      16146.338      1.3339865      0.74797947   
   2193700  -10070.269     -10211.348      141.07976      30185.878      505.53056      16112.637      1.3367766      0.74797947   
   2193800  -10069.951     -10213.26       143.3091       29332.287      513.51896      16083.197      1.3392236      0.74797947   
   2193900  -10066.526     -10210.823      144.29704      33160.755      517.05905      16064.682      1.3407671      0.74797947   
   2194000  -10067.275     -10210.751      143.47602      30453.121      514.11708      16058.152      1.3413122      0.81143039   
   2194100  -10063.584     -10205.996      142.41191      30389.8        510.30407      16063.856      1.340836       0.81143039   
   2194200  -10064.019     -10206.943      142.92396      28379.427      512.13888      16084.724      1.3390964      0.81143039   
   2194300  -10063.105     -10206.793      143.68815      30962.97       514.8772       16121.268      1.3360609      0.81143039   
   2194400  -10064.733     -10210.582      145.84851      27696.307      522.61841      16164.372      1.3324982      0.81143039   
   2194500  -10064.677     -10208.492      143.81493      34932.64       515.3315       16202.828      1.3293357      0.81143039   
   2194600  -10066.373     -10209.493      143.11963      29075.611      512.84002      16237.184      1.3265229      0.81143039   
   2194700  -10069.906     -10214.115      144.20894      26616.061      516.74335      16267.714      1.3240334      0.81143039   
   2194800  -10072.432     -10213.554      141.12139      27317.192      505.67975      16282.504      1.3228307      0.81143039   
   2194900  -10072.307     -10210.435      138.12782      27293.348      494.9529       16277.155      1.3232654      0.81143039   
   2195000  -10070.133     -10213.68       143.54669      28115.513      514.37031      16252.615      1.3252635      0.80200608   
   2195100  -10068.014     -10211.474      143.46028      28911.081      514.06068      16206.126      1.3290651      0.80200608   
   2195200  -10064.147     -10211.525      147.37746      33116.532      528.0971       16154.317      1.3333276      0.80200608   
   2195300  -10062.806     -10207.777      144.97055      33087.378      519.47243      16110.181      1.3369804      0.80200608   
   2195400  -10061.73      -10206.365      144.63455      30265.001      518.26845      16083.387      1.3392077      0.80200608   
   2195500  -10062.503     -10211.659      149.15599      32305.668      534.47012      16068.231      1.3404709      0.80200608   
   2195600  -10060.933     -10206.956      146.02314      26323.273      523.24418      16061.265      1.3410523      0.80200608   
   2195700  -10061.448     -10202.869      141.42134      29089.996      506.75455      16072.26       1.3401349      0.80200608   
   2195800  -10062.542     -10212.688      150.14585      31671.429      538.01707      16106.934      1.3372499      0.80200608   
   2195900  -10069.238     -10214.309      145.07144      29728.221      519.83396      16147.863      1.3338605      0.80200608   
   2196000  -10069.92      -10215.828      145.90804      29980.041      522.83172      16195.248      1.3299578      0.72246577   
   2196100  -10071.405     -10212.933      141.52816      29493.667      507.13732      16239.474      1.3263358      0.72246577   
   2196200  -10071.339     -10211.201      139.86219      30046.973      501.16768      16269.005      1.3239284      0.72246577   
   2196300  -10069.341     -10214.089      144.7482       28492.137      518.67568      16279.299      1.3230912      0.72246577   
   2196400  -10065.594     -10212.899      147.3043       31677.174      527.83494      16270.786      1.3237834      0.72246577   
   2196500  -10065.622     -10209.736      144.11386      31840.082      516.40268      16248.184      1.3256249      0.72246577   
   2196600  -10063.712     -10208.495      144.78363      28653.328      518.80263      16214.465      1.3283816      0.72246577   
   2196700  -10067.25      -10211.252      144.00195      26730.124      516.00165      16180.213      1.3311936      0.72246577   
   2196800  -10062.463     -10209.378      146.91419      30324.23       526.43707      16150.58       1.3336361      0.72246577   
   2196900  -10061.125     -10208.615      147.49061      30118.967      528.50256      16132.617      1.3351211      0.72246577   
   2197000  -10062.322     -10208.451      146.12877      33186.879      523.62268      16133.079      1.3350828      0.71066012   
   2197100  -10063.531     -10211.79       148.25827      30818.382      531.25333      16152.159      1.3335057      0.71066012   
   2197200  -10062.454     -10208.874      146.41985      28022.088      524.66571      16177.892      1.3313846      0.71066012   
   2197300  -10060.569     -10207.638      147.06936      30306.243      526.99308      16205.663      1.3291031      0.71066012   
   2197400  -10063.66      -10211.52       147.85928      28032.826      529.82359      16236.317      1.3265937      0.71066012   
   2197500  -10063.355     -10208.698      145.34281      29237.146      520.80634      16255.203      1.3250524      0.71066012   
   2197600  -10061.496     -10209.603      148.10728      28640.011      530.71226      16260.194      1.3246457      0.71066012   
   2197700  -10064.009     -10210.048      146.03827      28166.389      523.29839      16253.676      1.3251769      0.71066012   
   2197800  -10062.845     -10205.788      142.94391      29856.778      512.21038      16239.563      1.3263286      0.71066012   
   2197900  -10062.363     -10204.309      141.94574      29217.985      508.63365      16223.892      1.3276097      0.71066012   
   2198000  -10063.142     -10205.528      142.38681      31992.128      510.21414      16211.32       1.3286393      0.72092833   
   2198100  -10064.484     -10210.846      146.36211      29670.785      524.4588       16203.129      1.3293109      0.72092833   
   2198200  -10066.447     -10208.502      142.0545       29678.35       509.02336      16193.213      1.3301249      0.72092833   
   2198300  -10064.136     -10209.653      145.51639      30969.494      521.42833      16184.983      1.3308013      0.72092833   
   2198400  -10063.351     -10211.477      148.12684      29791.807      530.78234      16181.075      1.3311227      0.72092833   
   2198500  -10064.458     -10212.204      147.74596      29323.849      529.41756      16177.594      1.3314092      0.72092833   
   2198600  -10061.023     -10206.726      145.70303      33252.111      522.09711      16174.803      1.3316389      0.72092833   
   2198700  -10060.652     -10210.744      150.09194      32746.078      537.82388      16179.986      1.3312123      0.72092833   
   2198800  -10061.495     -10210.33       148.83533      31119.849      533.3211       16197.044      1.3298103      0.72092833   
   2198900  -10060.623     -10208.572      147.94841      29694.408      530.143        16223.922      1.3276073      0.72092833   
   2199000  -10062.24      -10207.608      145.36751      34526.523      520.89487      16260.253      1.324641       0.67308973   
   2199100  -10064.92      -10211.27       146.34997      29802.394      524.41529      16301.672      1.3212753      0.67308973   
   2199200  -10062.43      -10207.581      145.15091      29426.231      520.1187       16336.257      1.318478       0.67308973   
   2199300  -10062.43      -10207.542      145.11224      27814.489      519.98014      16355.398      1.316935       0.67308973   
   2199400  -10062.688     -10207.565      144.87694      27025.151      519.137        16358.613      1.3166762      0.67308973   
   2199500  -10064.896     -10208.624      143.72741      28422.65       515.0179       16341.244      1.3180757      0.67308973   
   2199600  -10064.844     -10211.844      147.0007       28567.756      526.74704      16310.733      1.3205413      0.67308973   
   2199700  -10063.906     -10210.949      147.04222      28359.221      526.89585      16271.798      1.3237011      0.67308973   
   2199800  -10061.015     -10208.38       147.36539      30473.368      528.05385      16233.946      1.3267875      0.67308973   
   2199900  -10061.45      -10207.26       145.81085      30771.954      522.48348      16204.406      1.3292061      0.67308973   
   2200000  -10060.915     -10205.978      145.0623       34370.647      519.8012       16193.811      1.3300758      0.76550588   
   2200100  -10063.532     -10208.795      145.26261      27033.949      520.51897      16210.411      1.3287138      0.76550588   
   2200200  -10067.489     -10214.706      147.21694      27906.143      527.52191      16245.963      1.325806       0.76550588   
   2200300  -10068.943     -10212.778      143.83431      30561.045      515.40094      16285.505      1.3225869      0.76550588   
   2200400  -10069.832     -10209.303      139.47078      27191.165      499.76512      16316.44       1.3200794      0.76550588   
   2200500  -10068.672     -10214.521      145.84902      28176.123      522.62025      16329.567      1.3190182      0.76550588   
   2200600  -10068.02      -10214.496      146.47606      29463.969      524.86713      16315.956      1.3201186      0.76550588   
   2200700  -10069.085     -10212.729      143.64306      31678.373      514.71563      16277.225      1.3232597      0.76550588   
   2200800  -10067.462     -10207.32       139.85858      32074.509      501.15475      16218.663      1.3280378      0.76550588   
   2200900  -10067.412     -10215.486      148.07379      29606.424      530.59225      16150.53       1.3336403      0.76550588   
   2200920  -10067.91      -10214.469      146.55946      30917.162      525.16599      16136.04       1.3348378      0.76550588   
Loop time of 10829.4 on 1 procs for 2000000 steps with 2160 atoms

Performance: 7.978 ns/day, 3.008 hours/ns, 184.683 timesteps/s, 398.915 katom-step/s
99.8% CPU use with 1 MPI tasks x 1 OpenMP threads

MPI task timing breakdown:
Section |  min time  |  avg time  |  max time  |%varavg| %total
---------------------------------------------------------------
Pair    | 8839.2     | 8839.2     | 8839.2     |   0.0 | 81.62
Neigh   | 90.239     | 90.239     | 90.239     |   0.0 |  0.83
Comm    | 90.359     | 90.359     | 90.359     |   0.0 |  0.83
Output  | 7.2221     | 7.2221     | 7.2221     |   0.0 |  0.07
Modify  | 1757.9     | 1757.9     | 1757.9     |   0.0 | 16.23
Other   |            | 44.44      |            |       |  0.41

Nlocal:           2160 ave        2160 max        2160 min
Histogram: 1 0 0 0 0 0 0 0 0 0
Nghost:           6382 ave        6382 max        6382 min
Histogram: 1 0 0 0 0 0 0 0 0 0
Neighs:              0 ave           0 max           0 min
Histogram: 1 0 0 0 0 0 0 0 0 0
FullNghs:       334146 ave      334146 max      334146 min
Histogram: 1 0 0 0 0 0 0 0 0 0

Total # of neighbors = 334146
Ave neighs/atom = 154.69722
Neighbor list builds = 200000
Dangerous builds = 200000
Total wall time: 3:18:44
