../full/ih/0_bar/2-coex/305/water.dat (written by ASE) 

1728 	 atoms 
2  atom types
0.0      18.249957498920644  xlo xhi
0.0      45.801890999999998  ylo yhi
0.0      22.304444034142861  zlo zhi


Atoms 

     1   2      1.2534209999999999      2.2931279999999998                1.971473
     2   1                0.424985      2.0045980000000001      2.3532920000000002
     3   1      1.2791429999999999      3.2353770000000002                 2.13767
     4   2      3.1469140000000002      6.4835859999999998      20.815304000000001
     5   1      3.9544990000000002      6.1976769999999997               20.389374
     6   1      2.9822449999999998                7.355639      20.456956999999999
     7   2                    7.71      9.5075769999999995      16.969311000000001
     8   1      7.8034889999999999      9.5271670000000004      17.921292999999999
     9   1      6.8397779999999999      9.8702050000000003      16.806246000000002
    10   2      3.5338029999999998      6.5947230000000001      6.3271269999999999
    11   1      2.6932589999999998                6.183103      6.1284599999999996
    12   1      3.4581390000000001      7.4796680000000002      5.9705069999999996
    13   2                0.223438               10.290941                8.855302
    14   1     0.26868500000000001      11.146805000000001      9.2812560000000008
    15   1     0.98211800000000005      9.8148280000000003      9.1917620000000007
    16   2      3.1126860000000001               14.805681                6.276605
    17   1      3.0740789999999998      14.777188000000001      7.2321650000000002
    18   1      3.8146439999999999      14.197406000000001      6.0466680000000004
    19   2      1.1159600000000001      2.0500850000000002      21.406424999999999
    20   1                1.184442      2.1476690000000001                 0.18783
    21   1      1.2302109999999999      2.9370069999999999      21.065322999999999
    22   2      9.8028530000000007      13.224780000000001      17.186502000000001
    23   1               10.557316               13.753332      16.927762999999999
    24   1      9.8458629999999996               13.196818      18.141888000000002
    25   2                0.681894      20.730233999999999      20.415614999999999
    26   1     0.71826999999999996               20.912443      19.477056999999999
    27   1     0.34406399999999998               19.836634      20.473704999999999
    28   2      5.4207669999999997                2.487476                1.595051
    29   1      4.8720100000000004      1.8911739999999999      2.1038969999999999
    30   1      5.3842109999999996      3.3153079999999999      2.0739130000000001
    31   2      7.2670339999999998               22.310419                6.597283
    32   1      8.0510120000000001               22.206215      6.0589300000000001
    33   1      6.5944929999999999      21.804646999999999                6.141858
    34   2     0.59914999999999996                2.308497      9.4636949999999995
    35   1     0.67067500000000002      3.2184200000000001      9.7517809999999994
    36   1                1.486038      1.9596229999999999      9.5478349999999992
    37   2      2.5148320000000002      22.310048999999999      8.4562229999999996
    38   1      1.7145710000000001               22.025229                8.896452
    39   1                3.214235      22.111471000000002      9.0781139999999994
    40   2      8.0163510000000002                1.195594               20.128242
    41   1                7.224399                1.634582      20.437349000000001
    42   1                7.701441      46.186217999999997      19.730008999999999
    43   2     0.67826699999999995               10.664864      1.6585319999999999
    44   1      1.4844440000000001               10.312597                2.034516
    45   1     0.55972500000000003      11.509380999999999      2.0929419999999999
    46   2               14.519394               20.841383      19.614751999999999
    47   1      15.220216000000001      21.248111999999999               20.123535
    48   1      13.725657999999999               21.297642      19.892731000000001
    49   2      7.4546749999999999               14.229675               16.095526
    50   1      7.4612210000000001      15.099424000000001      16.494904999999999
    51   1      8.2159759999999995      13.787616999999999      16.470303999999999
    52   2                0.184364               13.248965      17.448609999999999
    53   1     0.33518100000000001               13.378492      18.384495000000001
    54   1      17.617885999999999               13.827987               17.241463
    55   2               13.950422               13.570036      2.6775280000000001
    56   1                13.98677               13.390532      3.6166109999999998
    57   1      14.188497999999999               12.739753                2.265342
    58   2      9.6758229999999994               12.876956      9.6514889999999998
    59   1      8.8223520000000004               13.236013      9.4105629999999998
    60   1      9.7065490000000008      12.950621999999999                10.60492
    61   2               11.602814      21.846896999999998                1.335782
    62   1               12.443374      21.473020999999999      1.5985769999999999
    63   1      11.624413000000001      22.744001000000001      1.6686259999999999
    64   2      7.7080310000000001      9.0825859999999992      1.9070910000000001
    65   1      7.8217290000000004                8.156212      1.6949829999999999
    66   1      7.7190859999999999      9.1127739999999999      2.8633160000000002
    67   2      9.8969170000000002               13.102283      12.520782000000001
    68   1               10.064765               12.221124      12.854563000000001
    69   1      10.641914999999999      13.620172999999999      12.824574999999999
    70   2      5.8668870000000002      2.2638259999999999               16.494581
    71   1      5.7296259999999997                2.359369               15.552543
    72   1      5.1309279999999999                1.729155      16.791278999999999
    73   2      14.201223000000001      18.381996000000001      21.015284999999999
    74   1               14.430474               19.191471      20.559094999999999
    75   1      13.375011000000001               18.108376      20.617985000000001
    76   2      10.279325999999999      2.8492820000000001               13.391655
    77   1      10.386649999999999      3.6416539999999999      12.865788999999999
    78   1                10.43788      3.1351640000000001                14.29087
    79   2      2.8553980000000001               21.248434                0.149476
    80   1      2.1489859999999998               21.037571      21.707581999999999
    81   1      3.3158609999999999      21.980322000000001      21.907368000000002
    82   2      5.4116150000000003      2.4596239999999998      5.9976739999999999
    83   1      4.6929189999999998                1.831745      6.0674849999999996
    84   1      6.1623910000000004      1.9345300000000001      5.7217500000000001
    85   2                7.179754      22.152380000000001      9.3289860000000004
    86   1      7.1951470000000004               22.301088      8.3839649999999999
    87   1      8.0373870000000007               21.777269      9.5268379999999997
    88   2      4.5748920000000002      21.190280999999999      12.551600000000001
    89   1      4.6679399999999998      21.254017000000001      11.601506000000001
    90   1      4.8201809999999998               20.288176      12.756724999999999
    91   2               12.597109      9.3640500000000007      2.1775099999999998
    92   1               12.446809      9.2204390000000007      3.1114220000000001
    93   1      11.846615999999999      9.8837489999999999      1.8908130000000001
    94   2     0.20142599999999999      21.301228999999999      9.6025700000000001
    95   1      17.595669000000001      21.771494000000001      9.2898350000000001
    96   1    0.053212000000000002      21.194179999999999      10.541702000000001
    97   2      16.690598000000001      9.2700410000000009      17.108170000000001
    98   1               16.740862      8.3696169999999999      16.787600999999999
    99   1               15.828001      9.5761660000000006      16.829668000000002
   100   2                4.853294      18.367495999999999      8.9144489999999994
   101   1                5.543272      17.722010000000001      9.0658879999999993
   102   1      4.9807329999999999               18.646929      8.0082830000000005
   103   2               10.329984      10.488543999999999      13.380814000000001
   104   1      9.6112549999999999      9.9020810000000008      13.146127999999999
   105   1               10.336471               10.489065      14.337554000000001
   106   2               12.354733                1.125842      2.3435220000000001
   107   1      12.326181999999999                1.248402      3.2919770000000002
   108   1               11.504047                1.437214      2.0357280000000002
   109   2               14.650985      5.0892949999999999      2.0511469999999998
   110   1      14.042516000000001      5.6138440000000003                1.531371
   111   1               15.448521      5.6164639999999997      2.0904880000000001
   112   2      1.1245879999999999      5.2129760000000003      9.8064490000000006
   113   1     0.92465399999999998      5.3141220000000002      10.736606999999999
   114   1                1.953009      5.6766620000000003      9.6874280000000006
   115   2      9.9621910000000007               13.100099      19.905577000000001
   116   1               10.561434                13.74442      20.281649000000002
   117   1                9.090014               13.439157      20.104849000000002
   118   2               14.345497      21.416692999999999      2.0706549999999999
   119   1      14.252109000000001      21.597805000000001      3.0054810000000001
   120   1               14.970889               22.071379                1.760901
   121   2      3.2633709999999998      9.4387279999999993      2.6080899999999998
   122   1      3.4132690000000001      9.4527380000000001      3.5529329999999999
   123   1      2.9667309999999998      8.5472819999999992      2.4254639999999998
   124   2      5.0092509999999999               13.152799      16.939022000000001
   125   1      5.0787880000000003               13.321795               17.878183
   126   1      5.7950840000000001               13.550271      16.564989000000001
   127   2      9.8102260000000001      20.918901000000002      19.824587000000001
   128   1      9.1144979999999993      21.477626999999998      20.170069000000002
   129   1               10.620141      21.364111000000001      20.072123999999999
   130   2      16.113233999999999               22.935637                8.747484
   131   1               16.083765               23.840214      9.0588280000000001
   132   1               15.260871      22.571967999999998      8.9853909999999999
   133   2      1.3010360000000001      2.4389780000000001      16.209506999999999
   134   1      1.0558350000000001      3.2524790000000001      16.649975000000001
   135   1     0.55083400000000005      1.8595520000000001      16.340032999999998
   136   2      5.4258230000000003      5.0105950000000004                2.801447
   137   1      5.4566540000000003      5.1243319999999999      3.7509320000000002
   138   1      4.7240120000000001      5.5934419999999996      2.5127609999999998
   139   2      7.7672600000000003      9.2089999999999996      19.680914000000001
   140   1      7.0725720000000001      9.6074029999999997               20.204483
   141   1      7.8443820000000004      8.3181600000000007               20.022226
   142   2                 5.56304      5.0934660000000003      20.008279999999999
   143   1      5.5940669999999999      4.1978569999999999               20.344393
   144   1      5.6096430000000002      4.9945469999999998      19.057783000000001
   145   2      8.2711210000000008                 6.77027      5.6317519999999996
   146   1      7.4650410000000003      6.2602250000000002      5.5570019999999998
   147   1      8.3757110000000008      6.9173359999999997      6.5713509999999999
   148   2      16.018225000000001      14.341570000000001      16.595676000000001
   149   1      15.939247999999999      15.242986999999999               16.907532
   150   1      16.030352000000001      14.418006999999999      15.642048000000001
   151   2                14.61196      10.654095999999999      21.094809999999999
   152   1      14.687886000000001      10.743874999999999      22.044322999999999
   153   1      14.578296999999999      11.554048999999999      20.770772999999998
   154   2      9.7449349999999999      13.142682000000001      2.1793010000000002
   155   1               10.547338      13.615159999999999                1.959338
   156   1      9.8217970000000001      12.309443999999999      1.7147939999999999
   157   2                7.094106      16.871369999999999      19.914311999999999
   158   1      7.7917120000000004               17.433657                20.25009
   159   1      7.2416169999999997      16.844422999999999               18.969376
   160   2      7.9929649999999999      6.6492370000000003      20.697279000000002
   161   1      7.4429080000000001      6.0734130000000004      20.166733000000001
   162   1      7.7215389999999999      6.4767460000000003      21.598379000000001
   163   2               10.447079      5.4279679999999999      4.8869420000000003
   164   1      11.181646000000001      5.8654289999999998      5.3164759999999998
   165   1      9.6763399999999997                5.917789                5.172472
   166   2                3.359369      44.954948000000002      8.7369950000000003
   167   1      2.5504530000000001      44.451976999999999      8.6466180000000001
   168   1                3.725365      44.671824999999998      9.5744419999999995
   169   2      11.366941000000001      22.407762999999999      5.4695609999999997
   170   1                12.23808      22.246908000000001      5.1082689999999999
   171   1      11.205118000000001      23.336034999999999      5.3015920000000003
   172   2      5.1985109999999999      12.785932000000001                2.417907
   173   1      4.4659979999999999               13.147938      1.9201220000000001
   174   1      5.2795579999999998      11.885039000000001      2.1050520000000001
   175   2      9.8576610000000002      3.1288230000000001      8.4392849999999999
   176   1      9.0579180000000008                2.662995      8.6819389999999999
   177   1      9.8894979999999997      3.0696379999999999      7.4848850000000002
   178   2      16.507805000000001                14.47931                2.033811
   179   1               15.691777      14.065193000000001      2.3131520000000001
   180   1      16.365618000000001      15.414210000000001                2.181616
   181   2                1.227951      5.3305660000000001      5.5157309999999997
   182   1     0.42693399999999998      5.7985449999999998      5.7498930000000001
   183   1                1.093518      4.4430820000000004      5.8478960000000004
   184   2      7.1386120000000002      16.674973000000001      9.5646839999999997
   185   1      7.9507680000000001               17.140753      9.3674210000000002
   186   1      7.3323640000000001               15.759136      9.3652420000000003
   187   2      5.0265560000000002      20.718385999999999                1.929171
   188   1      5.7135100000000003               21.341904                1.694752
   189   1                4.332211      20.875216000000002      1.2899320000000001
   190   2               12.516736      6.7154049999999996                1.252321
   191   1      12.496867999999999      6.8360139999999996                0.303392
   192   1      12.546799999999999      7.6040859999999997                1.606411
   193   2      16.570181000000002      9.3768039999999999               12.732711
   194   1      16.504740000000002      8.4808070000000004               13.062794
   195   1      16.494174999999998      9.2885810000000006               11.783056
   196   2      16.394991000000001      6.8978950000000001               13.425595
   197   1      17.168234000000002      6.4438139999999997               13.091875
   198   1      15.655924000000001      6.4206820000000002               13.049379
   199   2      5.1257970000000004      12.987045999999999      5.3317170000000003
   200   1      4.9963240000000004               12.781952      4.4061919999999999
   201   1                 6.00807      13.354620000000001                 5.37486
   202   2      16.140115999999999      17.091647999999999               17.267111
   203   1      16.863164999999999      17.525991000000001      16.815442999999998
   204   1               15.372159      17.621386999999999      17.054660999999999
   205   2      16.699605999999999               14.632353      6.0457970000000003
   206   1      16.860711999999999               15.483457      5.6387989999999997
   207   1               16.507116               14.836698                6.960464
   208   2                12.94153                1.770335      17.311098000000001
   209   1                12.12501      2.1278950000000001               16.963486
   210   1               12.782816                1.678833      18.250160000000001
   211   2      11.831205000000001               14.568852      8.6305379999999996
   212   1      11.140485999999999               14.013629      8.9913640000000008
   213   1                11.61725               15.449368      8.9386469999999996
   214   2      14.770967000000001      2.3820600000000001      1.6464220000000001
   215   1               13.898164      2.1026850000000001                1.921181
   216   1               14.736369                3.338225                1.672647
   217   2      5.3959469999999996               10.401011                1.209894
   218   1                6.214626      9.9149320000000003      1.3045610000000001
   219   1                4.730658                9.825253      1.5860350000000001
   220   2               15.014977      4.8966099999999999               19.889761
   221   1               14.210423      5.2116740000000004      20.300595999999999
   222   1      15.716409000000001      5.3447120000000004      20.361640999999999
   223   2                3.179824      6.2597690000000004      16.635048000000001
   224   1      3.1252779999999998      7.1820180000000002      16.885180999999999
   225   1                3.241644      6.2735060000000002      15.680383000000001
   226   2      5.3828250000000004      18.108706999999999                1.078022
   227   1      4.6625870000000003      17.666671999999998      1.5267219999999999
   228   1      5.4027089999999998               18.985415      1.4614389999999999
   229   2               12.059419      9.2875580000000006      4.7400510000000002
   230   1               12.247849      8.4658599999999993      5.1930909999999999
   231   1      12.825869000000001      9.8353640000000002      4.9073929999999999
   232   2      2.8408340000000001      14.665414999999999      13.436360000000001
   233   1      3.6204519999999998               14.164023               13.199083
   234   1      2.8969239999999998      14.760714999999999      14.386715000000001
   235   2      17.347588999999999     0.74018300000000004      16.541098000000002
   236   1               16.651695      1.3627180000000001      16.331786999999998
   237   1      17.472902000000001      46.042060999999997      15.734946000000001
   238   2      3.1519460000000001      17.254228999999999      5.5559479999999999
   239   1                3.133772      16.338259000000001      5.8329829999999996
   240   1      4.0196480000000001      17.565321000000001                5.812189
   241   2      14.020721999999999               13.264281      9.6208869999999997
   242   1      14.026752999999999               13.376795      10.570997999999999
   243   1      13.340833999999999               13.862985      9.3128019999999996
   244   2               10.068303      10.642212000000001      16.084126000000001
   245   1      9.8452009999999994               11.496969      16.452356000000002
   246   1      9.2946939999999998      10.102359999999999      16.244188000000001
   247   2      5.0921240000000001      21.237079999999999      4.7982870000000002
   248   1      4.2946999999999997               21.721539      5.0101709999999997
   249   1      4.9590610000000002                20.93712      3.8995190000000002
   250   2      16.016998000000001               23.020267                15.89752
   251   1      16.135940999999999               22.801983      14.973596000000001
   252   1               15.933261      23.973662999999998               15.910079
   253   2                3.255433      6.7767989999999996                1.750516
   254   1      3.2290329999999998      6.6594379999999997     0.80133799999999999
   255   1      2.5122040000000001      6.2694599999999996                2.075666
   256   2      2.4109889999999998      9.2164850000000005      10.020182999999999
   257   1      2.7392910000000001      8.3451789999999999      9.7987380000000002
   258   1      3.0714169999999998      9.8169140000000006      9.6753079999999994
   259   2     0.75016899999999997                10.55932               13.759604
   260   1               18.106068               10.179131               13.422513
   261   1     0.65746400000000005      10.517177999999999               14.710931
   262   2      17.003969000000001      6.4281480000000002               20.936926
   263   1      17.735755999999999      5.9477070000000003      20.550713999999999
   264   1      16.957654999999999      7.2407120000000003      20.433413000000002
   265   2      7.1051650000000004      22.341626999999999                1.369694
   266   1      7.4633339999999997               23.226032                1.444207
   267   1      7.7497020000000001      21.783957999999998      1.8046169999999999
   268   2      7.5739809999999999               16.889585      12.357461000000001
   269   1      7.3156679999999996      16.715140999999999      11.452889000000001
   270   1                7.593388      16.027080999999999      12.771833000000001
   271   2      12.608610000000001      1.4989870000000001      19.905951999999999
   272   1               13.471499      1.7288939999999999      20.249289999999998
   273   1      12.001072000000001      2.0560429999999998               20.391928
   274   2      5.6882289999999998      2.8789030000000002                8.846285
   275   1      5.8384619999999998      2.8363589999999999      7.9023490000000001
   276   1      6.3429900000000004      2.2897569999999998      9.2201810000000002
   277   2      5.6610959999999997      5.0471329999999996      17.072067000000001
   278   1      5.6001349999999999      4.1381519999999998      16.778632999999999
   279   1      4.7770489999999999      5.3953730000000002      16.960024000000001
   280   2      11.988516000000001      8.8909690000000001      17.219443999999999
   281   1               12.055444      8.9757459999999991               18.170092
   282   1               11.287566      9.4941720000000007               16.973633
   283   2      9.8530850000000001      10.412119000000001      8.3670249999999999
   284   1      9.9952710000000007      11.305777000000001      8.6787860000000006
   285   1               10.452615                9.877936      8.8873859999999993
   286   2               10.018374      10.597535000000001               20.615561
   287   1      9.1712199999999999      10.241210000000001      20.349609000000001
   288   1      9.9411970000000007      11.539365999999999      20.463529999999999
   289   2      3.6149909999999998     0.80611699999999997               17.143801
   290   1      3.5328439999999999     0.65317899999999995      18.084693999999999
   291   1      2.8421970000000001                1.322371               16.916245
   292   2      3.1355770000000001      17.317523999999999      2.6800130000000002
   293   1      3.0299930000000002      16.402384000000001      2.4203160000000001
   294   1      3.2122489999999999               17.288933                 3.63327
   295   2      7.5877359999999996      14.396813999999999      13.390416999999999
   296   1      7.4952920000000001               14.240898      14.329864000000001
   297   1      8.4504380000000001      14.045095999999999               13.172694
   298   2      10.274260999999999      5.3404429999999996      2.1892740000000002
   299   1      11.040732999999999      5.8740389999999998                1.981136
   300   1      10.267079000000001      5.2933490000000001      3.1448489999999998
   301   2      9.3490199999999994      17.880455000000001      6.2356660000000002
   302   1      9.3863570000000003      18.767158999999999      5.8773439999999999
   303   1               10.106107      17.435756999999999                5.855505
   304   2               14.480138      18.725539999999999      1.5624480000000001
   305   1      14.600732000000001      18.638377999999999     0.61732399999999998
   306   1               14.671452      19.645417999999999                1.744929
   307   2      7.1288549999999997               16.588186      5.3878389999999996
   308   1      7.1967049999999997               16.732523      4.4444530000000002
   309   1      7.9508400000000004      16.926317000000001      5.7419380000000002
   310   2               14.363984               18.839537      13.392455999999999
   311   1      14.192206000000001      19.718980999999999      13.056172999999999
   312   1               13.600458               18.327541               13.127134
   313   2               12.306599      6.6009149999999996      8.4370899999999995
   314   1      11.461862999999999      6.3327349999999996      8.7974139999999998
   315   1               12.938409                6.004588                 8.83812
   316   2                7.683541      14.336740000000001      20.733128000000001
   317   1      7.4326150000000002               14.308983      21.655975000000002
   318   1      7.6370230000000001               15.263783      20.499642999999999
   319   2      9.2426480000000009      18.147639999999999                1.354568
   320   1      9.9148700000000005               18.079407      2.0319039999999999
   321   1      8.5202930000000006               17.610332      1.6786719999999999
   322   2      7.0135610000000002      22.364820000000002      16.061285000000002
   323   1      7.1881890000000004      22.066967000000002               15.168955
   324   1      7.7828929999999996      22.091684000000001      16.560162999999999
   325   2      16.755928000000001      6.6788949999999998      16.129004999999999
   326   1               16.623631      6.5900610000000004      15.185608999999999
   327   1      16.113192000000002      6.0864120000000002      16.518184999999999
   328   2      11.468261999999999                22.44426      8.1756620000000009
   329   1      11.327578000000001               23.372118      8.3637510000000006
   330   1               11.603401               22.409246      7.2291379999999998
   331   2                3.140971      6.6245979999999998               13.854645
   332   1                3.247344      7.5390769999999998      13.592950999999999
   333   1      3.9389880000000002      6.1933410000000002      13.550295999999999
   334   2                0.653918               21.531986      17.494689999999999
   335   1               18.094683      21.913347000000002      17.001581000000002
   336   1      1.4297390000000001      21.989014000000001      17.171126999999998
   337   2      16.217200999999999      8.8628900000000002      9.8508379999999995
   338   1      16.939465999999999      9.3236419999999995      9.4247859999999992
   339   1               15.442195      9.3809760000000004      9.6352949999999993
   340   2     0.56221500000000002      18.758120999999999      6.2394470000000002
   341   1                1.445065      18.504808000000001      5.9716339999999999
   342   1     0.54806100000000002               18.614677                7.185295
   343   2     0.68359099999999995      18.703237999999999                1.731106
   344   1                1.455454      18.192036000000002      1.9727859999999999
   345   1     0.55806100000000003      18.522289000000001     0.80002099999999998
   346   2      13.843431000000001      18.574733999999999                5.936947
   347   1      14.674709999999999      18.142869999999998      5.7422610000000001
   348   1               13.176781               17.939266      5.6773160000000003
   349   2                2.708888      22.721806000000001      16.138104999999999
   350   1      2.5026600000000001      22.636123999999999      15.207769000000001
   351   1      3.3979170000000001      22.075763999999999      16.291482999999999
   352   2      15.824369000000001               22.414883                6.122109
   353   1      16.608374000000001      22.109082999999998      5.6669270000000003
   354   1      16.047256000000001               22.354816                7.050605
   355   2      7.8356659999999998      1.3943160000000001      9.7431429999999999
   356   1      7.7238179999999996                0.491317      9.4462609999999998
   357   1      7.6911069999999997                1.355666      10.688128000000001
   358   2      10.551037000000001                2.641222      21.016829000000001