LAMMPS (7 Feb 2024 - Update 1)
KOKKOS mode with Kokkos version 4.2.0 is enabled (src/KOKKOS/kokkos.cpp:72)
  will use up to 2 GPU(s) per node
  using 1 OpenMP thread(s) per MPI task
package kokkos
package kokkos newton on neigh half

units		metal						## E in [eV], t in [ps], P in [10000 Pa], l in [A]
atom_style	atomic						## mass x y z vx vy vz

neighbor	0.5 bin						## neighbor list, skin = 0.5 Angstrom
neigh_modify	every 2 delay 10 check yes			## update of neighbor list

############################## main variables
variable        seed equal 55387

variable	temperature equal 305
variable	tempDamp equal 0.1

variable        pressure equal 100
variable        pressureDamp equal 1.0 				# This is 1 ps

##############################

read_data water.dat
Reading data file ...
  orthogonal box = (0 0 0) to (18.207572 23.629178 22.213196)
  1 by 2 by 1 MPI processor grid
  reading atoms ...
  864 atoms
  read_data CPU = 0.010 seconds

mass		1 1.008    # H
mass		2 15.9994  # O


pair_style	pace/extrapolation
ACE/AL version: 2023.11.25
pair_coeff	* * /home/cicn/cicn607503/pd/pot_dir/interim_potential_ladder_step_5.yaml /home/cicn/cicn607503/pd/pot_dir/interim_potential_ladder_step_5.asi H O
Loading /home/cicn/cicn607503/pd/pot_dir/interim_potential_ladder_step_5.yaml
Total number of basis functions
	H: 24 (r=1) 863 (r>1)
	O: 24 (r=1) 863 (r>1)
Mapping LAMMPS atom type #1(H) -> ACE species type #0
Mapping LAMMPS atom type #2(O) -> ACE species type #1
Loading ASI /home/cicn/cicn607503/pd/pot_dir/interim_potential_ladder_step_5.asi
LINEAR ASI is loaded

fix pace_gamma all pair 1000 pace/extrapolation gamma 1
compute max_pace_gamma all reduce max f_pace_gamma
variable dump_skip equal "c_max_pace_gamma < 10"

dump pace_dump all custom 1000 extrapolative_structures.dump id type x y z f_pace_gamma
dump_modify pace_dump skip v_dump_skip
dump_modify pace_dump element H O

variable max_pace_gamma equal c_max_pace_gamma

timestep	0.0005						## timestep = 0.0005*ps = 0.5 fs

thermo		100
thermo_style custom step etotal pe ke press temp vol density c_max_pace_gamma


min_style cg/kk
minimize 0.0 5.0e-4 10000 100000
Switching to 'neigh_modify every 1 delay 0 check yes' setting during minimization
Neighbor list info ...
  update: every = 1 steps, delay = 0 steps, check = yes
  max neighbors/atom: 2000, page size: 100000
  master list distance cutoff = 6.5
  ghost atom cutoff = 6.5
  binsize = 6.5, bins = 3 4 4
  1 neighbor lists, perpetual/occasional/extra = 1 0 0
  (1) pair pace/extrapolation/kk, perpetual
      attributes: full, newton on, kokkos_device
      pair build: full/bin/kk/device
      stencil: full/bin/3d
      bin: kk/device
WARNING: Fix with atom-based arrays not compatible with sending data in Kokkos communication, switching to classic exchange/border communication (src/KOKKOS/comm_kokkos.cpp:666)
WARNING: Fix with atom-based arrays not compatible with Kokkos sorting on device, switching to classic host sorting (src/KOKKOS/atom_kokkos.cpp:218)
Per MPI rank memory allocation (min/avg/max) = 449.3 | 453 | 456.7 Mbytes
   Step         TotEng         PotEng         KinEng         Press           Temp          Volume        Density     c_max_pace_gamma
         0  -4180.2701     -4180.2701      0              309.14185      0              9556.7825      0.90151666     0.58778247   
       100  -4182.3963     -4182.3963      0             -6479.0667      0              9556.7825      0.90151666     0.58778247   
       174  -4182.3964     -4182.3964      0             -6480.3888      0              9556.7825      0.90151666     0.58778247   
Loop time of 0.645572 on 2 procs for 174 steps with 864 atoms

99.7% CPU use with 2 MPI tasks x 1 OpenMP threads

Minimization stats:
  Stopping criterion = force tolerance
  Energy initial, next-to-last, final = 
      -4180.2701144618  -4182.39644829383  -4182.39644830578
  Force two-norm initial, final = 6.6050737 0.00039957885
  Force max component initial, final = 0.28115465 3.2573508e-05
  Final line search alpha, max atom move = 1 3.2573508e-05
  Iterations, force evaluations = 174 348

MPI task timing breakdown:
Section |  min time  |  avg time  |  max time  |%varavg| %total
---------------------------------------------------------------
Pair    | 0.42772    | 0.44115    | 0.45457    |   2.0 | 68.33
Neigh   | 0.00047599 | 0.00048814 | 0.00050029 |   0.0 |  0.08
Comm    | 0.063972   | 0.076693   | 0.089413   |   4.6 | 11.88
Output  | 0.00015365 | 0.00015414 | 0.00015463 |   0.0 |  0.02
Modify  | 0.07946    | 0.080704   | 0.081948   |   0.4 | 12.50
Other   |            | 0.04638    |            |       |  7.19

Nlocal:            432 ave         433 max         431 min
Histogram: 1 0 0 0 0 0 0 0 0 1
Nghost:           2186 ave        2191 max        2181 min
Histogram: 1 0 0 0 0 0 0 0 0 1
Neighs:              0 ave           0 max           0 min
Histogram: 2 0 0 0 0 0 0 0 0 0
FullNghs:        46055 ave       46168 max       45942 min
Histogram: 1 0 0 0 0 0 0 0 0 1

Total # of neighbors = 92110
Ave neighs/atom = 106.6088
Neighbor list builds = 1
Dangerous builds = 0

################## equilibration of main calculation
# Equilibrate to specified number of ice

fix             3 all nph aniso ${pressure} ${pressure} ${pressureDamp}
fix             3 all nph aniso 100 ${pressure} ${pressureDamp}
fix             3 all nph aniso 100 100 ${pressureDamp}
fix             3 all nph aniso 100 100 1
fix             4 all temp/csvr ${temperature} ${temperature} ${tempDamp} ${seed}
fix             4 all temp/csvr 305 ${temperature} ${tempDamp} ${seed}
fix             4 all temp/csvr 305 305 ${tempDamp} ${seed}
fix             4 all temp/csvr 305 305 0.1 ${seed}
fix             4 all temp/csvr 305 305 0.1 55387
velocity 	all create ${temperature} ${seed} dist gaussian
velocity 	all create 305 ${seed} dist gaussian
velocity 	all create 305 55387 dist gaussian

run 200000
WARNING: Fix with atom-based arrays not compatible with sending data in Kokkos communication, switching to classic exchange/border communication (src/KOKKOS/comm_kokkos.cpp:666)
WARNING: Fix with atom-based arrays not compatible with Kokkos sorting on device, switching to classic host sorting (src/KOKKOS/atom_kokkos.cpp:218)
Per MPI rank memory allocation (min/avg/max) = 454.1 | 455.3 | 456.4 Mbytes
   Step         TotEng         PotEng         KinEng         Press           Temp          Volume        Density     c_max_pace_gamma
       174  -4148.3732     -4182.3964      34.023209     -2677.7711      305            9556.7825      0.90151666     0.58778247   
       200  -4146.4526     -4161.5177      15.065106     -5584.0934      135.05067      9553.3458      0.90184097     0.58778247   
       300  -4139.6188     -4160.0221      20.403263      2844.1721      182.90442      9516.6558      0.90531787     0.58778247   
       400  -4133.6726     -4157.8655      24.192829     -544.57961      216.87586      9450.0059      0.91170299     0.58778247   
       500  -4128.8945     -4154.9434      26.048903      568.65045      233.51458      9362.9949      0.92017551     0.58778247   
       600  -4125.3861     -4153.3152      27.929089      2873.0046      250.36945      9285.4233      0.92786277     0.58778247   
       700  -4122.7422     -4153.0821      30.339909      1699.7875      271.98117      9243.0679      0.93211461     0.58778247   
       800  -4120.5935     -4149.8959      29.302402      1660.8708      262.68047      9246.2637      0.93179244     0.58778247   
       900  -4118.1646     -4149.0875      30.922881      2666.2635      277.20721      9297.5118      0.92665637     0.58778247   
      1000  -4116.2817     -4149.397       33.115313      1889.4451      296.8612       9387.1821      0.91780457     0.81142066   
      1100  -4114.986      -4146.3952      31.409254      685.90299      281.56728      9499.7342      0.90693049     0.81142066   
      1200  -4112.9527     -4146.0618      33.109063      708.99694      296.80517      9613.5199      0.89619605     0.81142066   
      1300  -4112.0643     -4145.7201      33.655875      2085.4177      301.70704      9708.049       0.88746963     0.81142066   
      1400  -4111.7897     -4145.9384      34.148632     -1209.4021      306.12435      9776.2731      0.88127639     0.81142066   
      1500  -4111.6702     -4145.5989      33.928704     -3358.3206      304.15282      9813.3288      0.87794863     0.81142066   
      1600  -4109.3486     -4142.847       33.49842      -1084.3204      300.29555      9816.9958      0.87762069     0.81142066   
      1700  -4109.394      -4144.4237      35.029798      1889.1381      314.02354      9798.5164      0.87927582     0.81142066   
      1800  -4108.7439     -4143.4631      34.719274     -699.91966      311.23985      9760.6532      0.88268669     0.81142066   
      1900  -4109.6153     -4144.1953      34.580008      1200.6057      309.9914       9707.6077      0.88750997     0.81142066   
      2000  -4110.2523     -4145.5728      35.320543     -1342.1976      316.62991      9646.5668      0.89312589     0.83176666   
      2100  -4110.0644     -4145.6224      35.557986     -2289.503       318.75846      9590.0615      0.89838825     0.83176666   
      2200  -4110.178      -4145.3343      35.156295      523.16874      315.15752      9548.5108      0.90229762     0.83176666   
      2300  -4110.3771     -4144.3145      33.937436      183.36815      304.23109      9523.6444      0.90465354     0.83176666   
      2400  -4110.5212     -4144.4734      33.952229     -3431.7409      304.3637       9514.2758      0.90554434     0.83176666   
      2500  -4109.7475     -4144.2472      34.499789     -913.77855      309.27228      9515.9807      0.9053821      0.83176666   
      2600  -4110.8012     -4145.4503      34.649176     -1304.2838      310.61146      9528.4291      0.90419927     0.83176666   
      2700  -4110.92       -4146.0816      35.161599      2641.063       315.20506      9554.5718      0.90172524     0.83176666   
      2800  -4111.6005     -4145.5315      33.931043      927.60549      304.17378      9593.5987      0.89805701     0.83176666   
      2900  -4111.2672     -4143.2791      32.011865     -1074.8661      286.96937      9634.6981      0.8942261      0.83176666   
      3000  -4109.936      -4144.3469      34.410859      1158.3012      308.47508      9670.6218      0.89090431     0.85175592   
      3100  -4109.3853     -4143.8649      34.479561      143.55624      309.09095      9694.1793      0.88873935     0.85175592   
      3200  -4108.8163     -4142.4         33.583746      325.57266      301.06044      9701.4504      0.88807325     0.85175592   
      3300  -4109.7068     -4143.7048      33.998006      2221.9412      304.77407      9695.0183      0.88866244     0.85175592   
      3400  -4109.6432     -4143.6373      33.99418      -2686.2385      304.73977      9676.259       0.89038528     0.85175592   
      3500  -4109.0989     -4144.0025      34.903539     -1580.5741      312.89169      9647.336       0.89305468     0.85175592   
      3600  -4110.0159     -4144.5051      34.489194      1528.4284      309.1773       9612.4541      0.89629542     0.85175592   
      3700  -4110.1123     -4145.6183      35.505993     -323.36059      318.29237      9579.2641      0.89940088     0.85175592   
      3800  -4110.9247     -4145.6432      34.718573     -1547.9792      311.23357      9554.0196      0.90177736     0.85175592   
      3900  -4112.2694     -4145.8072      33.537815     -553.30236      300.6487       9539.9656      0.90310584     0.85175592   
      4000  -4111.4795     -4145.7698      34.290285      1924.6227      307.3942       9535.9354      0.90348751     0.82033588   
      4100  -4111.5503     -4145.7468      34.196423      2176.8756      306.55277      9542.1322      0.90290078     0.82033588   
      4200  -4111.3302     -4145.812       34.48178      -876.40929      309.11085      9557.4025      0.90145818     0.82033588   
      4300  -4110.5836     -4144.7982      34.214558     -701.50094      306.71534      9580.3186      0.89930188     0.82033588   
      4400  -4109.9443     -4143.0495      33.10517       2573.7393      296.77027      9608.8757      0.8966292      0.82033588   
      4500  -4110.7197     -4143.945       33.225269      2036.0584      297.84689      9639.3776      0.893792       0.82033588   
      4600  -4110.4264     -4144.3504      33.924         228.42754      304.11065      9665.1914      0.89140486     0.82033588   
      4700  -4110.403      -4144.823       34.419978     -658.94125      308.55682      9684.1246      0.8896621      0.82033588   
      4800  -4110.2512     -4144.1957      33.944511     -320.53857      304.29452      9688.6365      0.88924779     0.82033588   
      4900  -4110.2085     -4143.7828      33.574285     -1933.2761      300.97563      9684.8283      0.88959745     0.82033588   
      5000  -4110.2582     -4143.7752      33.51703       2708.2164      300.46237      9672.0219      0.89077534     0.8956281    
      5100  -4111.0373     -4145.4083      34.371048     -183.7206       308.11819      9654.3441      0.89240641     0.8956281    
      5200  -4113.5219     -4146.6469      33.125065     -201.00663      296.94861      9628.3801      0.89481289     0.8956281    
      5300  -4112.0882     -4145.2465      33.158283      3065.4945      297.2464       9592.1866      0.89818922     0.8956281    
      5400  -4112.6723     -4145.0745      32.402131      3318.5634      290.4679       9559.247       0.90128423     0.8956281    
      5500  -4111.4344     -4145.6294      34.19502       120.24542      306.54019      9531.8939      0.90387059     0.8956281    
      5600  -4111.1558     -4146.3621      35.206217      1878.5751      315.60504      9516.5673      0.90532629     0.8956281    
      5700  -4110.0573     -4143.6252      33.567885     -723.68397      300.91826      9520.9376      0.90491073     0.8956281    
      5800  -4111.0525     -4144.8739      33.821404      1071.8289      303.19092      9541.451       0.90296524     0.8956281    
      5900  -4112.2252     -4144.6778      32.452583      452.63249      290.92017      9574.0536      0.89989037     0.8956281    
      6000  -4112.0505     -4146.2051      34.154554      2386.8715      306.17744      9616.5225      0.89591623     0.84377233   
      6100  -4112.2944     -4146.1821      33.887704     -734.32927      303.78527      9661.9415      0.8917047      0.84377233   
      6200  -4111.6324     -4145.2553      33.622931      399.23684      301.41172      9701.6598      0.88805408     0.84377233   
      6300  -4111.6423     -4144.8417      33.199337     -1442.4333      297.61442      9728.315       0.88562085     0.84377233   
      6400  -4111.4379     -4145.442       34.004066     -387.9382       304.82839      9740.7475      0.88449049     0.84377233   
      6500  -4110.9392     -4144.2217      33.282426     -1235.9539      298.35927      9735.8983      0.88493104     0.84377233   
      6600  -4109.3505     -4143.7054      34.354886      1201.7938      307.97331      9711.3305      0.88716974     0.84377233   
      6700  -4110.0504     -4143.0586      33.008141      680.20565      295.90045      9671.7758      0.89079801     0.84377233   
      6800  -4108.3971     -4143.7742      35.37708      -638.7353       317.13673      9623.3472      0.89528086     0.84377233   
      6900  -4108.7219     -4144.4521      35.730239      2110.9353      320.30261      9574.045       0.89989117     0.84377233   
      7000  -4109.3495     -4143.6991      34.349558      832.9248       307.92554      9535.7203      0.9035079      0.85577113   
      7100  -4109.3775     -4144.4721      35.094593      2223.0136      314.60439      9516.2619      0.90535535     0.85577113   
      7200  -4109.6647     -4145.5613      35.896612      169.47348      321.79406      9521.9913      0.9048106      0.85577113   
      7300  -4109.2698     -4146.0966      36.826807      611.2757       330.13276      9545.5043      0.90258181     0.85577113   
      7400  -4110.239      -4143.362       33.123033      608.3581       296.9304       9584.3804      0.89892077     0.85577113   
      7500  -4110.2212     -4145.2345      35.013347      47.972664      313.87606      9631.0839      0.89456167     0.85577113   
      7600  -4109.3163     -4143.7034      34.387027      1517.8687      308.26144      9681.8804      0.88986832     0.85577113   
      7700  -4109.0199     -4142.6762      33.656345     -399.00015      301.71126      9730.1917      0.88545004     0.85577113   
      7800  -4108.8679     -4141.8079      32.940004     -988.47712      295.28964      9764.8945      0.8823033      0.85577113   
      7900  -4110.2733     -4144.3985      34.12513       336.96279      305.91366      9781.1831      0.88083399     0.85577113   
      8000  -4109.2376     -4143.9536      34.71595      -1291.8812      311.21006      9771.0612      0.88174645     0.80132982   
      8100  -4108.5878     -4143.2329      34.645069     -361.23547      310.57464      9737.3338      0.88480058     0.80132982   
      8200  -4108.5286     -4142.1392      33.610544      317.65442      301.30068      9683.4013      0.88972855     0.80132982   
      8300  -4106.8127     -4141.9066      35.093975      1057.7909      314.59885      9619.2742      0.89565994     0.80132982   
      8400  -4107.2295     -4142.8026      35.573118      406.67338      318.89411      9562.3175      0.90099483     0.80132982   
      8500  -4107.8386     -4143.2732      35.4346        2979.4946      317.65237      9520.4231      0.90495964     0.80132982   
      8600  -4108.0273     -4144.0413      36.013964      1550.6067      322.84606      9494.9175      0.90739057     0.80132982   
      8700  -4109.4754     -4145.2739      35.798506      770.40993      320.9146       9495.7832      0.90730784     0.80132982   
      8800  -4110.0737     -4144.3551      34.281369      1697.8106      307.31427      9519.3657      0.90506015     0.80132982   
      8900  -4111.6873     -4144.4237      32.736319      1182.4365      293.46371      9560.8846      0.90112986     0.80132982   
      9000  -4113.3537     -4145.6935      32.3398        2305.9217      289.90913      9610.8863      0.89644163     0.80779005   
      9100  -4112.6761     -4145.5467      32.870548      722.19506      294.66701      9659.2669      0.8919516      0.80779005   
      9200  -4113.1632     -4145.992       32.828775     -368.64799      294.29253      9694.615       0.88869941     0.80779005   
      9300  -4112.5262     -4146.8673      34.341087      1434.0089      307.84961      9715.9323      0.88674955     0.80779005   
      9400  -4113.7257     -4145.6515      31.925834     -2066.4899      286.19815      9713.971       0.88692859     0.80779005   
      9500  -4111.9634     -4143.8216      31.858214     -3150.4767      285.59197      9690.1795      0.88910619     0.80779005   
      9600  -4112.094      -4145.2884      33.194338      951.34794      297.56961      9649.1232      0.89288928     0.80779005   
      9700  -4111.8992     -4145.0648      33.165619      7.5792333      297.31216      9600.3635      0.8974242      0.80779005   
      9800  -4111.7631     -4145.031       33.267934      2694.7838      298.22936      9555.4118      0.90164598     0.80779005   
      9900  -4110.8842     -4144.7024      33.818153      1407.1274      303.16178      9520.1575      0.90498488     0.80779005   
     10000  -4111.5154     -4144.7609      33.245554      323.0485       298.02874      9499.128       0.90698837     0.8030073    
     10100  -4109.4266     -4144.7882      35.361624     -237.25791      316.99818      9492.93        0.90758055     0.8030073    
     10200  -4110.187      -4144.6996      34.512673      1171.3692      309.38779      9508.9389      0.90605258     0.8030073    
     10300  -4110.9608     -4144.4228      33.462037     -380.695        299.96939      9543.9268      0.902731       0.8030073    
     10400  -4112.0628     -4143.7045      31.641742     -1006.2059      283.65141      9590.6164      0.89833628     0.8030073    
     10500  -4112.5823     -4145.6289      33.046616      95.417005      296.24537      9637.0712      0.89400591     0.8030073    
     10600  -4111.3379     -4144.9908      33.652923      601.44123      301.68058      9679.4699      0.89008992     0.8030073    
     10700  -4111.9525     -4146.0173      34.064873      856.06596      305.37349      9712.6337      0.88705071     0.8030073    
     10800  -4111.008      -4144.2997      33.291697     -1013.4167      298.44238      9730.307       0.88543954     0.8030073    
     10900  -4111.3445     -4144.6417      33.297184     -2742.7623      298.49157      9729.0344      0.88555536     0.8030073    
     11000  -4110.8335     -4144.7054      33.871894     -3079.2307      303.64354      9703.4176      0.88789321     0.83309877   
     11100  -4110.8305     -4144.3253      33.494811     -790.49873      300.26319      9656.7958      0.89217984     0.83309877   
     11200  -4110.9029     -4145.7675      34.864565      1366.4034      312.54231      9598.439       0.89760414     0.83309877   
     11300  -4110.7012     -4144.5162      33.815028      2359.3041      303.13376      9541.0677      0.90300151     0.83309877   
     11400  -4110.8393     -4143.9388      33.099551      590.25088      296.71989      9498.0396      0.9070923      0.83309877   
     11500  -4110.4348     -4144.2737      33.838852      232.49477      303.34734      9476.3889      0.90916473     0.83309877   
     11600  -4112.4437     -4145.1137      32.66995       1240.9502      292.86875      9476.8185      0.90912352     0.83309877   
     11700  -4112.6771     -4146.0306      33.353581     -2767.1524      298.99714      9492.3711      0.90763398     0.83309877   
     11800  -4112.4748     -4145.8455      33.370717      1860.6252      299.15075      9518.5632      0.90513646     0.83309877   
     11900  -4111.742      -4145.6589      33.916936      1012.2456      304.04731      9556.2972      0.90156243     0.83309877   
     12000  -4111.2391     -4145.4907      34.251535      2236.3269      307.04682      9603.7492      0.89710783     0.83653013   
     12100  -4111.1547     -4145.8829      34.728233     -379.21271      311.32017      9649.8251      0.89282432     0.83653013   
     12200  -4110.7725     -4145.4444      34.671909     -1077.6379      310.81525      9689.6236      0.8891572      0.83653013   
     12300  -4110.7581     -4144.5026      33.744462     -1434.9243      302.50118      9716.146       0.88673005     0.83653013   
     12400  -4109.4046     -4143.8589      34.454322     -540.63402      308.8647       9726.1252      0.88582024     0.83653013   
     12500  -4109.1657     -4143.6969      34.531227     -12.600562      309.55411      9722.6094      0.88614056     0.83653013   
     12600  -4109.7287     -4143.584       33.855375     -1790.9175      303.49546      9707.6717      0.88750411     0.83653013   
     12700  -4111.3356     -4145.4798      34.144116     -2923.8765      306.08387      9684.6749      0.88961154     0.83653013   
     12800  -4112.0152     -4144.8716      32.856394     -564.89518      294.54012      9653.2129      0.89251099     0.83653013   
     12900  -4110.7367     -4144.2467      33.509969     -136.22247      300.39908      9618.2771      0.8957528      0.83653013   
     13000  -4111.057      -4145.114       34.057002      3907.4459      305.30293      9589.555       0.89843571     0.83045248   
     13100  -4110.5293     -4144.7938      34.264497      3598.564       307.16301      9565.7736      0.9006693      0.83045248   
     13200  -4110.6916     -4144.1732      33.481658      109.64467      300.14529      9550.8281      0.9020787      0.83045248   
     13300  -4110.631      -4145.301       34.669994      1001.3577      310.79809      9548.8006      0.90227024     0.83045248   
     13400  -4111.1613     -4145.9737      34.812456      2505.1063      312.07518      9559.3892      0.90127083     0.83045248   
     13500  -4112.4926     -4145.1298      32.637177      120.89148      292.57496      9578.8653      0.89943833     0.83045248   
     13600  -4113.0169     -4145.6405      32.623581     -568.45863      292.45307      9598.8789      0.897563       0.83045248   
     13700  -4113.1868     -4145.5409      32.354141     -231.59655      290.03769      9618.2816      0.89575238     0.83045248   
     13800  -4113.3719     -4145.0606      31.688705      382.52769      284.07241      9638.9477      0.89383186     0.83045248   
     13900  -4112.8536     -4146.84        33.986462      705.48921      304.67058      9653.9411      0.89244367     0.83045248   
     14000  -4112.632      -4145.3974      32.765404      1214.4115      293.72445      9663.6259      0.89154927     0.8242309    
     14100  -4111.7212     -4145.0297      33.308509     -597.03213      298.5931       9668.7693      0.891075       0.8242309    
     14200  -4111.1245     -4145.0266      33.90209       3.1048644      303.91423      9669.568       0.89100139     0.8242309    
     14300  -4110.9759     -4146.1127      35.136756      150.94639      314.98235      9665.4618      0.89137992     0.8242309    
     14400  -4111.9219     -4144.8496      32.927705     -663.4795       295.17939      9654.0061      0.89243765     0.8242309    
     14500  -4111.0405     -4143.9344      32.8939        825.41842      294.87634      9639.1713      0.89381113     0.8242309    
     14600  -4111.6051     -4146.3483      34.743172      1796.3333      311.45409      9620.7169      0.89552563     0.8242309    
     14700  -4112.8397     -4146.2082      33.368518      1445.5049      299.13104      9596.1376      0.89781941     0.8242309    
     14800  -4112.9094     -4145.8789      32.969524      962.93087      295.55427      9571.0988      0.90016818     0.8242309    
     14900  -4112.789      -4146.9766      34.187621      298.03836      306.47386      9548.9363      0.90225742     0.8242309    
     15000  -4112.3716     -4145.8869      33.515298      1756.5435      300.44685      9535.3022      0.90354751     0.83169798   
     15100  -4113.0895     -4146.3451      33.255516      1364.2542      298.11804      9532.827       0.90378212     0.83169798   
     15200  -4112.4251     -4146.5023      34.077194      1521.632       305.48395      9538.898       0.90320691     0.83169798   
     15300  -4110.4874     -4145.1875      34.700053      2063.5088      311.06754      9558.9398      0.9013132      0.83169798   
     15400  -4110.5484     -4144.5519      34.003515      3620.956       304.82346      9594.9822      0.89792753     0.83169798   
     15500  -4110.5465     -4143.3656      32.819069     -1079.4339      294.20552      9643.0599      0.8934507      0.83169798   
     15600  -4109.9905     -4142.7874      32.796923      1063.4967      294.00699      9691.4257      0.88899186     0.83169798   
     15700  -4109.8012     -4144.0505      34.249302      740.22712      307.0268       9733.1689      0.88517919     0.83169798   
     15800  -4110.6197     -4145.8385      35.218813     -911.78941      315.71795      9764.1278      0.88237258     0.83169798   
     15900  -4109.6844     -4143.0839      33.399527     -1179.7294      299.40902      9772.4954      0.88161706     0.83169798   
     16000  -4109.1406     -4144.1063      34.965665      1446.1092      313.44862      9760.2517      0.88272299     0.88106978   
     16100  -4109.5985     -4144.7367      35.138114     -857.0348       314.99453      9732.2028      0.88526707     0.88106978   
     16200  -4109.9105     -4145.1706      35.260131      116.17613      316.08835      9688.9738      0.88921683     0.88106978   
     16300  -4110.4328     -4144.2232      33.79041       232.17122      302.91308      9631.5377      0.89451953     0.88106978   
     16400  -4111.0907     -4145.5245      34.433803      41.38186       308.68075      9568.2743      0.9004339      0.88106978   
     16500  -4111.1612     -4145.6358      34.474574      1414.6238      309.04625      9511.1709      0.90583995     0.88106978   
     16600  -4109.5424     -4144.8905      35.348157     -3199.909       316.87746      9475.4222      0.90925749     0.88106978   
     16700  -4110.1282     -4144.2303      34.102043      3131.7071      305.7067       9466.6033      0.91010453     0.88106978   
     16800  -4110.2416     -4143.7447      33.503126      3899.8087      300.33773      9484.9175      0.90834724     0.88106978   
     16900  -4108.3991     -4144.6393      36.240257      119.1009       324.87465      9525.3342      0.90449305     0.88106978   
     17000  -4109.1922     -4144.5847      35.39249       581.71591      317.27488      9580.9382      0.89924373     0.84614825   
     17100  -4108.5041     -4142.7607      34.256689      949.34764      307.09302      9646.4736      0.89313452     0.84614825   
     17200  -4108.2589     -4144.506       36.247092      575.37064      324.93593      9714.0935      0.88691741     0.84614825   
     17300  -4108.4951     -4143.5962      35.101017     -511.96681      314.66198      9769.2894      0.88190637     0.84614825   
     17400  -4107.9382     -4143.8396      35.901369     -2276.0998      321.8367       9804.861       0.87870686     0.84614825   
     17500  -4107.8672     -4143.5107      35.643553     -1287.549       319.52552      9812.8009      0.87799586     0.84614825   
     17600  -4108.8001     -4143.2906      34.490531     -1074.5538      309.18929      9798.0952      0.87931363     0.84614825   
     17700  -4109.2555     -4144.2058      34.950297      1785.7139      313.31085      9762.1708      0.88254946     0.84614825   
     17800  -4109.3846     -4143.8334      34.448806      2580.7188      308.81525      9711.753       0.88713114     0.84614825   
     17900  -4111.3773     -4145.531       34.153762      1570.2796      306.17034      9659.3845      0.89194075     0.84614825   
     18000  -4112.8221     -4145.7746      32.952474      3278.7192      295.40143      9609.7296      0.89654953     0.85988841   
     18100  -4111.6235     -4145.6548      34.031284     -487.1207       305.07239      9572.5219      0.90003436     0.85988841   
     18200  -4111.6474     -4144.2813      32.633861     -322.94891      292.54523      9549.6258      0.90219227     0.85988841   
     18300  -4110.4991     -4144.2368      33.737777      978.89265      302.44125      9542.259       0.90288878     0.85988841   
     18400  -4108.6991     -4142.4127      33.713615      725.56772      302.22466      9554.9154      0.90169282     0.85988841   
     18500  -4109.0759     -4143.1417      34.065832      1170.3797      305.38209      9581.7164      0.8991707      0.85988841   
     18600  -4109.644      -4144.3115      34.667548     -2040.9007      310.77616      9619.2996      0.89565757     0.85988841   
     18700  -4109.1685     -4144.6443      35.475752      356.89233      318.02128      9659.3283      0.89194593     0.85988841   
     18800  -4109.0854     -4143.4168      34.331427      1899.5056      307.76301      9697.6848      0.88841808     0.85988841   
     18900  -4109.9966     -4143.6198      33.623155     -133.36067      301.41373      9735.4422      0.8849725      0.85988841   
     19000  -4110.2745     -4144.398       34.123504      30.780805      305.89909      9764.1579      0.88236985     0.83197601   
     19100  -4110.1117     -4144.4029      34.291148      1310.5409      307.40193      9777.9507      0.88112518     0.83197601   
     19200  -4109.3735     -4143.4782      34.104672      135.54048      305.73028      9774.3702      0.88144795     0.83197601   
     19300  -4108.8112     -4142.7647      33.953515      438.92216      304.37523      9754.7641      0.88321957     0.83197601   
     19400  -4108.9358     -4143.8453      34.909424     -980.66894      312.94445      9724.293       0.88598714     0.83197601   
     19500  -4108.0076     -4142.9949      34.987343      711.3162       313.64295      9685.5783      0.88952856     0.83197601   
     19600  -4108.6168     -4142.7761      34.159376      2062.2654      306.22066      9648.5755      0.89293996     0.83197601   
     19700  -4108.9766     -4144.2758      35.299189      1943.7877      316.43848      9614.378       0.89611606     0.83197601   
     19800  -4108.5063     -4144.7289      36.222563      1794.3611      324.71604      9587.087       0.89866698     0.83197601   
     19900  -4108.9496     -4143.2496      34.299984      1295.6654      307.48114      9572.9367      0.89999535     0.83197601   
     20000  -4109.952      -4144.5165      34.564506      2368.7976      309.85244      9570.4933      0.90022513     0.80216164   
     20100  -4109.919      -4144.4059      34.486882      311.33251      309.15658      9581.3813      0.89920214     0.80216164   
     20200  -4110.1727     -4144.905       34.732225     -656.53813      311.35595      9600.1358      0.89744549     0.80216164   
     20300  -4110.7385     -4145.9042      35.165689      1971.6997      315.24173      9626.4175      0.89499532     0.80216164   
     20400  -4111.447      -4144.3975      32.950505     -1901.8971      295.38378      9655.7231      0.89227896     0.80216164   
     20500  -4111.7882     -4145.9352      34.147024     -3230.6588      306.10993      9684.832       0.88959711     0.80216164   
     20600  -4111.4025     -4144.9912      33.588738     -909.32653      301.1052       9706.5297      0.88760853     0.80216164   
     20700  -4111.1104     -4145.0847      33.97432       208.3369       304.56174      9716.8877      0.88666236     0.80216164   
     20800  -4109.0187     -4143.1591      34.140413     -172.49748      306.05067      9714.8426      0.88684902     0.80216164   
     20900  -4111.1761     -4145.0612      33.885129      940.2228       303.76219      9704.1619      0.88782511     0.80216164   
     21000  -4111.9914     -4145.594       33.602574      120.54301      301.22923      9680.1903      0.89002368     0.82890354   
     21100  -4112.084      -4144.8514      32.767383     -482.35253      293.74218      9642.9548      0.89346043     0.82890354   
     21200  -4112.0054     -4146.5254      34.520002      1427.0659      309.45348      9600.914       0.89737275     0.82890354   
     21300  -4112.5506     -4147.1276      34.576978      1319.8763      309.96425      9560.568       0.9011597      0.82890354   
     21400  -4112.4146     -4144.8949      32.480379      494.08932      291.16935      9525.7452      0.90445403     0.82890354   
     21500  -4110.649      -4146.0163      35.367313      1065.381       317.04918      9508.1938      0.90612358     0.82890354   
     21600  -4110.1998     -4144.8341      34.634291      4663.3321      310.47803      9511.7077      0.90578883     0.82890354   
     21700  -4110.4838     -4144.1197      33.635884      1087.2254      301.52783      9539.5236      0.90314768     0.82890354   
     21800  -4110.9141     -4145.0585      34.144452     -1769.075       306.08688      9589.1856      0.89847031     0.82890354   
     21900  -4111.0178     -4144.9866      33.968893     -353.52424      304.51309      9650.7285      0.89274075     0.82890354   
     22000  -4111.8335     -4145.7143      33.880749     -167.35464      303.72292      9714.683       0.88686359     0.85056206   
     22100  -4111.7217     -4145.4264      33.704642     -3084.8118      302.14421      9768.0545      0.88201786     0.85056206   
     22200  -4110.3597     -4144.286       33.926338     -2815.5936      304.1316       9800.7051      0.87907946     0.85056206   
     22300  -4110.1889     -4143.9378      33.748967     -3318.2333      302.54157      9807.7075      0.87845183     0.85056206   
     22400  -4109.1746     -4143.6126      34.437997     -1238.6749      308.71835      9784.6837      0.88051887     0.85056206   
     22500  -4108.1904     -4143.2229      35.032533     -1180.9443      314.04805      9741.5758      0.88441529     0.85056206   
     22600  -4107.6636     -4142.5912      34.927624      1871.5123      313.1076       9689.303       0.88918662     0.85056206   
     22700  -4107.7369     -4142.7034      34.966461      2191.3521      313.45576      9636.7283      0.89403772     0.85056206   
     22800  -4108.5658     -4144.376       35.810195     -1543.1074      321.01938      9589.0975      0.89847857     0.85056206   
     22900  -4109.1236     -4144.5679      35.444367      1043.0781      317.73993      9549.8402      0.90217202     0.85056206   
     23000  -4109.771      -4144.0668      34.295747      1490.6775      307.44316      9525.94        0.90443553     0.88247164   
     23100  -4109.5899     -4145.1513      35.561385      306.35446      318.78893      9518.0368      0.90518651     0.88247164   
     23200  -4108.9315     -4144.2605      35.32893       1007.4563      316.7051       9526.9817      0.90433664     0.88247164   
     23300  -4107.8973     -4143.2065      35.309165      695.95739      316.52791      9556.8644      0.90150893     0.88247164   
     23400  -4109.1081     -4144.5107      35.402539     -1819.1447      317.36496      9606.1655      0.89688217     0.88247164   
     23500  -4109.0999     -4144.0219      34.921991      998.45824      313.0571       9663.2224      0.8915865      0.88247164   
     23600  -4108.5039     -4144.1026      35.598748     -1461.4071      319.12387      9718.597       0.88650641     0.88247164   
     23700  -4108.7711     -4143.518       34.746864      740.57271      311.48718      9762.2497      0.88254233     0.88247164   
     23800  -4108.7592     -4143.7091      34.949847     -8.4994661      313.30681      9784.2377      0.880559       0.88247164   
     23900  -4108.7668     -4143.5257      34.758835     -1372.4397      311.59449      9781.8773      0.88077149     0.88247164   
     24000  -4107.9221     -4142.6701      34.748012     -456.93792      311.49747      9754.1926      0.88327133     0.79420723   
     24100  -4108.8235     -4142.3714      33.547912     -2099.1815      300.73921      9706.9938      0.88756609     0.79420723   
     24200  -4108.3389     -4144.0143      35.675426      11.713908      319.81125      9651.0955      0.8927068      0.79420723   
     24300  -4109.0579     -4143.7807      34.722711      3132.3957      311.27066      9588.9898      0.89848866     0.79420723   
     24400  -4109.5536     -4144.3718      34.818177     -688.25781      312.12647      9531.6491      0.9038938      0.79420723   
     24500  -4108.3009     -4143.4988      35.197881      881.42065      315.53031      9488.3359      0.90801998     0.79420723   
     24600  -4107.2374     -4141.33        34.092577      205.85592      305.62184      9467.006       0.91006582     0.79420723   
     24700  -4109.0975     -4143.9286      34.831071      176.97278      312.24205      9472.7278      0.90951612     0.79420723   
     24800  -4110.4616     -4144.1369      33.675281      2414.9409      301.88101      9497.9773      0.90709825     0.79420723   
     24900  -4110.8668     -4145.0249      34.158179      160.84773      306.20994      9538.9495      0.90320203     0.79420723   
     25000  -4109.9698     -4144.7747      34.804846      1468.2117      312.00696      9589.2076      0.89846826     0.79594153   
     25100  -4111.5148     -4146.0404      34.52561      -1562.5406      309.50376      9641.3007      0.89361372     0.79594153   
     25200  -4111.1717     -4144.6272      33.455539     -1171.1485      299.91114      9686.1911      0.88947229     0.79594153   
     25300  -4109.7761     -4144.5608      34.784663     -60.071975      311.82603      9717.907       0.88656936     0.79594153   
     25400  -4111.3208     -4145.0712      33.750467     -287.01825      302.55501      9734.1354      0.8850913      0.79594153   
     25500  -4110.6264     -4144.1282      33.501782     -2905.415       300.32568      9732.3999      0.88524913     0.79594153   
     25600  -4109.8798     -4144.6812      34.801353     -2012.4887      311.97565      9709.2467      0.88736015     0.79594153   
     25700  -4109.8947     -4143.3647      33.470093      663.78127      300.04161      9668.5777      0.89109265     0.79594153   
     25800  -4110.5723     -4142.493       31.920714     -829.10514      286.15225      9612.5301      0.89628834     0.79594153   
     25900  -4111.0369     -4145.5086      34.471713      1154.5478      309.0206       9547.1635      0.90242496     0.79594153   
     26000  -4112.2142     -4145.9544      33.740193      4362.8851      302.46291      9481.0044      0.90872214     0.78228987   
     26100  -4113.2273     -4146.262       33.034703      1689.4835      296.13857      9423.2476      0.91429186     0.78228987   
     26200  -4112.8876     -4145.9943      33.106651      748.93121      296.78354      9386.6735      0.9178543      0.78228987   
     26300  -4112.0359     -4145.5162      33.480215     -1313.5923      300.13234      9380.3743      0.91847066     0.78228987   
     26400  -4110.2048     -4144.9519      34.747067     -59.865676      311.489        9408.2897      0.91574546     0.78228987   
     26500  -4111.6232     -4145.0399      33.416733      2510.4204      299.56327      9470.8701      0.90969451     0.78228987   
     26600  -4111.1062     -4144.6003      33.494065     -1773.2578      300.2565       9556.3704      0.90155553     0.78228987   
     26700  -4110.6749     -4144.0681      33.393219     -1.075046       299.35248      9642.4357      0.89350854     0.78228987   
     26800  -4109.7704     -4143.7124      33.942034     -159.6795       304.27231      9716.8108      0.88666937     0.78228987   
     26900  -4110.3276     -4144.6388      34.311232     -1654.4217      307.58197      9768.9292      0.88193889     0.78228987   
     27000  -4110.145      -4144.3487      34.20371      -146.79857      306.6181       9791.6687      0.87989074     0.83870656   
     27100  -4110.8579     -4144.5189      33.661012     -934.85089      301.75309      9781.7288      0.88078485     0.83870656   
     27200  -4111.7818     -4145.7186      33.936777     -615.22629      304.22518      9740.7441      0.88449081     0.83870656   
     27300  -4110.673      -4143.842       33.169045      2655.3235      297.34288      9677.0112      0.89031607     0.83870656   
     27400  -4111.3339     -4144.4599      33.126002      1825.5684      296.95702      9605.926       0.89690453     0.83870656   
     27500  -4111.1104     -4145.239       34.128578      2904.9158      305.94457      9534.6208      0.90361209     0.83870656   
     27600  -4110.602      -4145.0707      34.468707      1255.3227      308.99365      9479.4005      0.90887589     0.83870656   
     27700  -4109.787      -4144.9513      35.164275      2982.521       315.22905      9447.8198      0.91191395     0.83870656   
     27800  -4110.2442     -4144.8421      34.597843      1995.1504      310.15129      9440.5064      0.91262039     0.83870656   
     27900  -4111.8965     -4147.4183      35.521805      3271.8782      318.43412      9455.7501      0.91114914     0.83870656   
     28000  -4111.2772     -4144.5696      33.292356      1345.2608      298.44829      9485.0019      0.90833915     0.75574141   
     28100  -4111.7726     -4146.2281      34.455472     -1325.437       308.87501      9525.8454      0.90444451     0.75574141   
     28200  -4112.5358     -4145.5938      33.058022     -1463.5668      296.34761      9568.6428      0.90039923     0.75574141   
     28300  -4111.1989     -4143.3196      32.120769      1746.6413      287.94564      9609.5908      0.89656248     0.75574141   
     28400  -4111.3505     -4145.6666      34.316076     -667.79087      307.62539      9643.2895      0.89342943     0.75574141   
     28500  -4111.4747     -4144.3196      32.844864      1649.148       294.43677      9662.4716      0.89165578     0.75574141   
     28600  -4112.7308     -4145.4692      32.738449      411.26158      293.48281      9666.3646      0.89129667     0.75574141   
     28700  -4111.66       -4145.1017      33.441752      1117.6758      299.78755      9651.7529      0.89264599     0.75574141   
     28800  -4110.8747     -4146.0361      35.161475     -4873.2904      315.20395      9625.2319      0.89510556     0.75574141   
     28900  -4110.6397     -4145.7526      35.112882     -3540.2311      314.76834      9594.2912      0.8979922      0.75574141   
     29000  -4110.0291     -4144.0396      34.010498      2882.035       304.88605      9564.5054      0.90078872     0.91354965   
     29100  -4109.71       -4144.7453      35.035225      2141.8908      314.07219      9537.5647      0.90333317     0.91354965   
     29200  -4108.9933     -4143.9803      34.987047      624.08799      313.64029      9515.9059      0.90538922     0.91354965   
     29300  -4108.4055     -4144.0228      35.617323     -1499.5161      319.29038      9509.4198      0.90600675     0.91354965   
     29400  -4109.23       -4144.8662      35.636185     -1001.0289      319.45947      9516.4535      0.90533712     0.91354965   
     29500  -4109.3661     -4144.2118      34.845689     -388.03434      312.3731       9533.4384      0.90372416     0.91354965   
     29600  -4111.0117     -4146.1605      35.148758      2902.0232      315.08995      9558.5522      0.90134975     0.91354965   
     29700  -4111.7535     -4145.5476      33.794039     -2077.3598      302.94561      9585.1015      0.89885314     0.91354965   
     29800  -4110.867      -4145.4388      34.571794     -1784.0957      309.91778      9609.3202      0.89658773     0.91354965   
     29900  -4110.4671     -4143.9269      33.459824      1942.0751      299.94955      9628.1751      0.89483194     0.91354965   
     30000  -4111.3413     -4144.6921      33.350776      1153.1536      298.972        9642.4611      0.89350618     0.84464578   
     30100  -4112.7518     -4146.7782      34.026447      1824.5706      305.02903      9647.57        0.89303302     0.84464578   
     30200  -4112.5701     -4146.5397      33.969572     -2009.3113      304.51917      9639.4539      0.89378493     0.84464578   
     30300  -4111.9243     -4144.5832      32.658887      759.4354       292.76958      9619.1894      0.89566784     0.84464578   
     30400  -4110.5646     -4143.9371      33.372425      843.00867      299.16607      9591.6279      0.89824154     0.84464578   
     30500  -4111.1784     -4143.3756      32.19715       843.03592      288.63035      9560.9278      0.90112578     0.84464578   
     30600  -4111.2643     -4144.3034      33.039132     -1198.0882      296.17828      9529.692       0.90407944     0.84464578   
     30700  -4110.8639     -4144.8022      33.938299      5631.8777      304.23882      9504.2521      0.90649937     0.84464578   
     30800  -4111.6587     -4145.4908      33.832146     -748.39888      303.28722      9488.9067      0.90796536     0.84464578   
     30900  -4111.7019     -4146.5319      34.830006      1217.1388      312.23251      9487.1634      0.9081322      0.84464578   
     31000  -4111.9497     -4146.0586      34.108867      2113.4563      305.76788      9502.0941      0.90670525     0.78996786   
     31100  -4111.1579     -4145.6786      34.520727     -3130.1532      309.45998      9533.8809      0.90368222     0.78996786   
     31200  -4110.6526     -4144.8116      34.159097     -4374.149       306.21817      9580.7881      0.89925782     0.78996786   
     31300  -4112.1903     -4144.4468      32.256546     -492.94181      289.1628       9633.3651      0.89434984     0.78996786   
     31400  -4111.3731     -4145.7637      34.390646     -752.61738      308.29388      9677.5858      0.89026321     0.78996786   
     31500  -4112.3022     -4145.8874      33.58525      -900.33768      301.07393      9707.6313      0.88750781     0.78996786   
     31600  -4112.5695     -4146.1583      33.588803     -3666.5578      301.10578      9717.0796      0.88664485     0.78996786   
     31700  -4112.3536     -4144.8329      32.479324     -3386.1183      291.15989      9699.2238      0.88827712     0.78996786   
     31800  -4113.1752     -4144.9609      31.785702     -910.50022      284.94193      9656.952       0.89216542     0.78996786   
     31900  -4113.3051     -4145.707       32.401846     -1567.6851      290.46534      9594.8683      0.89793818     0.78996786   
     32000  -4114.1705     -4147.7951      33.624631     -1140.3868      301.42696      9523.7765      0.90464099     0.95233499   
     32100  -4114.7531     -4146.0856      31.332504      586.23948      280.87926      9455.0632      0.91121533     0.95233499   
     32200  -4114.026      -4147.029       33.002915      1952.738       295.8536       9397.06        0.9168398      0.95233499   
     32300  -4113.0782     -4146.5972      33.519005      118.78867      300.48008      9358.7506      0.92059282     0.95233499   
     32400  -4113.3315     -4147.0347      33.703219      3711.1305      302.13146      9348.2098      0.92163085     0.95233499   
     32500  -4112.4938     -4146.9092      34.415374      355.76294      308.51555      9370.2406      0.91946397     0.95233499   
     32600  -4113.88       -4146.2854      32.405422      1667.2616      290.4974       9420.6762      0.91454142     0.95233499   
     32700  -4112.7977     -4146.3937      33.596027     -879.90975      301.17054      9491.6637      0.90770163     0.95233499   
     32800  -4111.9447     -4145.8299      33.885275      901.1948       303.7635       9570.4387      0.90023027     0.95233499   
     32900  -4111.8627     -4145.5277      33.664908     -1173.5816      301.78802      9645.3783      0.89323594     0.95233499   
     33000  -4112.3014     -4145.1394      32.837974      233.58919      294.37499      9698.3782      0.88835456     0.7803807    
     33100  -4111.8767     -4145.3493      33.472588     -2091.4265      300.06397      9719.4603      0.88642768     0.7803807    
     33200  -4111.918      -4146.0428      34.124807     -1888.3645      305.91077      9709.8593      0.88730417     0.7803807    
     33300  -4112.7653     -4145.7724      33.00704      -851.1892       295.89058      9674.3626      0.89055982     0.7803807    
     33400  -4112.0165     -4145.6493      33.632788     -721.83238      301.50008      9614.0654      0.89614521     0.7803807    
     33500  -4112.8296     -4145.4611      32.631517     -1487.7224      292.52422      9541.4725      0.90296321     0.7803807    
     33600  -4112.8201     -4146.5924      33.772279      977.46424      302.75055      9471.4166      0.90964203     0.7803807    
     33700  -4112.4821     -4146.1424      33.66035       3407.7487      301.74716      9414.5959      0.91513206     0.7803807    
     33800  -4112.9487     -4146.3673      33.418594      2944.6153      299.57995      9385.1943      0.91799895     0.7803807    
     33900  -4113.9537     -4147.3911      33.437323      1468.7724      299.74784      9389.125       0.91761464     0.7803807    
     34000  -4112.3402     -4145.7799      33.439625     -299.54123      299.76847      9416.5511      0.91494205     0.78355792   
     34100  -4111.968      -4144.9435      32.97545       431.30676      295.6074       9458.5758      0.91087694     0.78355792   
     34200  -4110.7621     -4144.741       33.978924     -2990.6708      304.60301      9511.1914      0.905838       0.78355792   
     34300  -4109.967      -4145.2546      35.287541      2025.1832      316.33407      9568.0106      0.90045872     0.78355792   
     34400  -4110.5717     -4145.4992      34.927508     -271.44164      313.10656      9619.6968      0.8956206      0.78355792   
     34500  -4110.8245     -4144.766       33.9415       -1386.1037      304.26752      9657.7956      0.89208748     0.78355792   
     34600  -4110.5558     -4144.8553      34.29956      -743.6011       307.47734      9678.6714      0.89016335     0.78355792   
     34700  -4110.6208     -4143.837       33.216197      1058.2086      297.76556      9683.536       0.88971617     0.78355792   
     34800  -4111.293      -4146.3794      35.086415      1389.1938      314.53108      9670.0998      0.89095239     0.78355792   
     34900  -4109.4228     -4144.1457      34.722837      263.0456       311.27179      9640.2499      0.89371112     0.78355792   
     35000  -4111.0842     -4144.994       33.909745     -1649.5262      303.98286      9602.4487      0.89722933     0.79626339   
     35100  -4109.598      -4143.0054      33.407373     -2376.8636      299.47935      9559.2194      0.90128684     0.79626339   
     35200  -4109.138      -4145.6487      36.510737      1894.9741      327.29937      9523.6514      0.90465287     0.79626339   
     35300  -4110.0271     -4143.6024      33.575268     -507.80156      300.98444      9498.2354      0.9070736      0.79626339   
     35400  -4111.7481     -4145.0904      33.342356      1593.1576      298.89651      9486.7019      0.90817638     0.79626339   
     35500  -4111.3736     -4145.4514      34.077795      1328.6596      305.48934      9484.135       0.90842218     0.79626339   
     35600  -4111.8114     -4145.6584      33.84703       566.94114      303.42064      9491.8082      0.90768781     0.79626339   
     35700  -4110.5567     -4144.3311      33.774367      86.694029      302.76927      9512.0819      0.9057532      0.79626339   
     35800  -4109.105      -4144.6694      35.564457      2212.5803      318.81647      9542.2222      0.90289227     0.79626339   
     35900  -4110.1996     -4143.7892      33.589659     -112.53128      301.11346      9572.4212      0.90004382     0.79626339   
     36000  -4109.8702     -4144.2603      34.390053     -815.72703      308.28856      9595.9073      0.89784095     0.84966244   
     36100  -4110.0609     -4145.1821      35.121261     -1642.8503      314.84345      9611.7256      0.89636335     0.84966244   
     36200  -4110.2841     -4144.4718      34.187654      2366.4747      306.47416      9620.1401      0.89557933     0.84966244   
     36300  -4109.8477     -4143.9414      34.093641      101.25802      305.63139      9621.1858      0.89548199     0.84966244   
     36400  -4109.7594     -4143.8988      34.139366      1461.3115      306.04128      9616.978       0.8958738      0.84966244   
     36500  -4108.7643     -4142.5641      33.799739      2849.5095      302.99671      9607.4692      0.89676047     0.84966244   
     36600  -4109.1341     -4142.9102      33.776099      2034.8924      302.78479      9591.4573      0.89825751     0.84966244   
     36700  -4110.1441     -4144.7965      34.652392     -1192.1586      310.64029      9568.1685      0.90044386     0.84966244   
     36800  -4107.3717     -4143.5092      36.137453      1551.2         323.95307      9539.3977      0.9031596      0.84966244   
     36900  -4106.816      -4141.7474      34.931333     -1791.9275      313.14085      9514.3563      0.90553668     0.84966244   
     37000  -4106.4564     -4143.0069      36.550489      2650.5279      327.65572      9496.8161      0.90720916     0.7628757    
     37100  -4107.7712     -4143.1323      35.36109      -1640.9747      316.99339      9484.4883      0.90838834     0.7628757    
     37200  -4107.9358     -4142.6059      34.670177     -37.491755      310.79972      9481.3492      0.90868909     0.7628757    
     37300  -4109.8808     -4144.5748      34.69403       211.19271      311.01356      9492.3215      0.90763873     0.7628757    
     37400  -4110.9487     -4144.9634      34.014668      234.3925       304.92344      9516.9383      0.905291       0.7628757    
     37500  -4112.7708     -4144.924       32.153242      2883.4074      288.23674      9550.7515      0.90208594     0.7628757    
     37600  -4113.9328     -4147.1168      33.184016     -114.06469      297.47708      9584.6594      0.8988946      0.7628757    
     37700  -4112.0228     -4146.16        34.137267     -109.36976      306.02247      9610.574       0.89647076     0.7628757    
     37800  -4113.5141     -4146.0778      32.563708     -1815.4493      291.91635      9624.2306      0.89519869     0.7628757    
     37900  -4114.1619     -4146.31        32.148078     -1994.8142      288.19045      9617.9654      0.89578182     0.7628757    
     38000  -4112.4088     -4145.3598      32.950939     -2470.4676      295.38767      9589.984       0.89839551     0.87462793   
     38100  -4111.0603     -4145.4842      34.423903      2600.4431      308.59201      9547.5036      0.90239281     0.87462793   
     38200  -4110.9703     -4144.5163      33.545964      2158.5065      300.72175      9503.0376      0.90661522     0.87462793   
     38300  -4112.3931     -4146.0714      33.678314     -414.5445       301.9082       9460.5345      0.91068835     0.87462793   
     38400  -4113.254      -4146.8847      33.630667      43.950761      301.48107      9424.5272      0.91416772     0.87462793   
     38500  -4112.4696     -4146.0673      33.597705      2998.992       301.18558      9402.4536      0.91631386     0.87462793   
     38600  -4113.0871     -4147.1138      34.026706     -586.82979      305.03135      9400.051       0.91654807     0.87462793   
     38700  -4114.5806     -4146.4769      31.896272     -2369.8233      285.93314      9418.1901      0.91478283     0.87462793   
     38800  -4114.4855     -4145.8372      31.351707      2691.1013      281.0514       9449.88        0.91171513     0.87462793   
     38900  -4114.1175     -4145.965       31.8475        514.89276      285.49592      9492.0773      0.90766208     0.87462793   
     39000  -4114.3917     -4146.4579      32.066192     -255.8007       287.45638      9538.428       0.90325142     0.8063387    
     39100  -4114.3695     -4147.3535      32.98397      -1402.1682      295.68377      9586.0391      0.89876522     0.8063387    
     39200  -4113.2281     -4144.8553      31.627208     -545.37249      283.52112      9627.1263      0.89492943     0.8063387    
     39300  -4112.1511     -4144.0577      31.906539     -1423.8422      286.02518      9657.0948      0.89215222     0.8063387    
     39400  -4111.7281     -4144.0323      32.30423      -1907.5633      289.59026      9669.4741      0.89101004     0.8063387    
     39500  -4110.6814     -4145.9272      35.245823     -790.52296      315.96009      9661.9172      0.89170694     0.8063387    
     39600  -4110.7754     -4145.3947      34.619286      105.65482      310.34352      9634.9428      0.89420339     0.8063387    
     39700  -4109.3979     -4144.3533      34.955459      829.54916      313.35713      9600.5149      0.89741005     0.8063387    
     39800  -4109.0254     -4143.6661      34.640716      293.2603       310.53562      9566.1255      0.90063616     0.8063387    
     39900  -4109.1224     -4142.5723      33.449869      1508.999       299.86031      9534.932       0.9035826      0.8063387    
     40000  -4108.6132     -4143.2546      34.641383      992.25605      310.5416       9509.4993      0.90599918     0.8210178    
     40100  -4110.8129     -4145.7737      34.960831     -854.71344      313.40529      9493.7424      0.90750288     0.8210178    
     40200  -4110.13       -4144.8164      34.686346     -316.93492      310.94467      9489.4345      0.90791485     0.8210178    
     40300  -4110.5723     -4145.1064      34.534075      2064.9231      309.57964      9499.5643      0.90694671     0.8210178    
     40400  -4110.3254     -4143.7317      33.406327     -937.63754      299.46998      9524.3359      0.90458786     0.8210178    
     40500  -4110.7251     -4145.4848      34.759714     -1340.8214      311.60237      9560.4541      0.90117043     0.8210178    
     40600  -4110.3415     -4144.4918      34.15026      -1094.3422      306.13894      9596.0465      0.89782794     0.8210178    
     40700  -4110.7388     -4145.1221      34.383305     -463.0084       308.22807      9624.9609      0.89513077     0.8210178    
     40800  -4109.6926     -4144.6657      34.973039     -2541.3122      313.51472      9640.4474      0.89369281     0.8210178    
     40900  -4109.1021     -4144.0609      34.958779      24.829923      313.38689      9642.6726      0.89348658     0.8210178    
     41000  -4109.9015     -4143.4731      33.571643     -1224.9138      300.95195      9635.4001      0.89416096     0.7670918    
     41100  -4110.487      -4143.9587      33.471698      761.48323      300.05599      9622.8599      0.8953262      0.7670918    
     41200  -4111.8725     -4143.7748      31.902325      1283.8796      285.9874       9607.6604      0.89674263     0.7670918    
     41300  -4112.2929     -4145.2376      32.944715     -2813.6576      295.33187      9584.7635      0.89888484     0.7670918    
     41400  -4112.7166     -4145.5042      32.78761       592.75282      293.92351      9548.5416      0.90229471     0.7670918    
     41500  -4112.1502     -4145.4199      33.269615      1323.6589      298.24443      9509.7631      0.90597405     0.7670918    
     41600  -4112.3665     -4147.7156      35.34911       451.50993      316.886        9481.1279      0.9087103      0.7670918    
     41700  -4112.222      -4146.0534      33.831404      762.19079      303.28057      9465.4787      0.91021266     0.7670918    
     41800  -4110.9419     -4144.9745      34.032616     -2341.9776      305.08433      9465.4514      0.91021529     0.7670918    
     41900  -4112.013      -4144.1657      32.152724      2818.572       288.23209      9475.6859      0.90923219     0.7670918    
     42000  -4110.7473     -4145.6021      34.85481      -335.83366      312.45486      9500.383       0.90686856     0.81042331   
     42100  -4111.4862     -4146.0456      34.559431      1908.6627      309.80694      9539.1556      0.90318252     0.81042331   
     42200  -4113.5312     -4146.7194      33.188195     -73.872774      297.51454      9585.3727      0.8988277      0.81042331   
     42300  -4113.5996     -4146.8537      33.254144      150.71693      298.10574      9625.4138      0.89508865     0.81042331   
     42400  -4112.5181     -4145.455       32.936853     -546.9715       295.2614       9646.9364      0.89309168     0.81042331   
     42500  -4111.2288     -4145.5081      34.279311      175.23301      307.29582      9654.0155      0.89243678     0.81042331   
     42600  -4110.6424     -4144.3419      33.699538     -1153.5375      302.09846      9647.7915      0.89301252     0.81042331   
     42700  -4109.8828     -4143.3859      33.503127     -801.08215      300.33774      9633.7116      0.89431768     0.81042331   
     42800  -4109.6381     -4143.7308      34.092738      240.17658      305.62329      9610.39        0.89648793     0.81042331   
     42900  -4109.4791     -4143.567       34.087871     -521.02384      305.57966      9578.0783      0.89951223     0.81042331   
     43000  -4109.819      -4143.6006      33.781663      582.93782      302.83467      9540.2156      0.90308217     0.81181195   
     43100  -4109.1253     -4142.8671      33.741845      1215.848       302.47772      9506.3089      0.90630324     0.81181195   
     43200  -4110.5631     -4144.7221      34.159014      276.49147      306.21742      9485.8451      0.90825841     0.81181195   
     43300  -4112.935      -4146.4204      33.485352     -405.23742      300.17839      9477.1291      0.90909372     0.81181195   
     43400  -4112.2658     -4145.5872      33.321437      1232.4546      298.70899      9479.5362      0.90886288     0.81181195   
     43500  -4111.8066     -4146.5175      34.710938     -779.8794       311.16513      9496.5322      0.90723629     0.81181195   
     43600  -4110.8566     -4145.002       34.145424      491.03058      306.09559      9522.1561      0.90479493     0.81181195   
     43700  -4109.4777     -4144.364       34.886328     -1742.7625      312.7374       9556.4066      0.90155212     0.81181195   
     43800  -4111.0168     -4144.3881      33.371301      797.11262      299.15599      9592.7367      0.89813771     0.81181195   
     43900  -4110.2546     -4143.4536      33.19895       1411.7667      297.61095      9620.0278      0.89558978     0.81181195   
     44000  -4109.7703     -4144.2991      34.528832     -2991.9173      309.53265      9636.8778      0.89402385     0.82560826   
     44100  -4110.1807     -4145.1511      34.970432      763.31693      313.49135      9643.7212      0.89338943     0.82560826   
     44200  -4110.4836     -4144.1286      33.64499       808.90503      301.60947      9637.7308      0.89394472     0.82560826   
     44300  -4109.2972     -4144.3251      35.027929      244.17081      314.00678      9621.5515      0.89544795     0.82560826   
     44400  -4109.2822     -4144.5542      35.272082     -850.95396      316.19549      9602.7404      0.89720207     0.82560826   
     44500  -4110.2177     -4145.0676      34.849855     -2436.6314      312.41044      9586.4891      0.89872304     0.82560826   
     44600  -4109.7981     -4144.1891      34.390973      1445.3521      308.29681      9564.296       0.90080844     0.82560826   
     44700  -4109.2039     -4143.2349      34.031028      1684.3415      305.07009      9546.5068      0.90248703     0.82560826   
     44800  -4109.7947     -4143.4763      33.681631      661.63193      301.93793      9538.3548      0.90325835     0.82560826   
     44900  -4110.0913     -4144.4673      34.376061      1708.8309      308.16313      9539.6599      0.90313477     0.82560826   
     45000  -4111.0235     -4144.7493      33.72581       1173.9233      302.33397      9548.8739      0.90226331     0.80451851   
     45100  -4110.556      -4143.7234      33.167422      196.76079      297.32832      9561.6218      0.90106038     0.80451851   
     45200  -4111.0684     -4144.3212      33.252817     -462.66454      298.09385      9577.4511      0.89957114     0.80451851   
     45300  -4111.6524     -4145.3403      33.687888     -1018.3604      301.99402      9592.0021      0.8982065      0.80451851   
     45400  -4111.1725     -4144.1475      32.974989     -1629.3388      295.60327      9600.2151      0.89743808     0.80451851   
     45500  -4110.4404     -4144.2391      33.798648     -1715.5245      302.98693      9602.8267      0.89719401     0.80451851   
     45600  -4110.7267     -4144.6569      33.930208     -3520.5442      304.16629      9607.2561      0.89678036     0.80451851   
     45700  -4110.6563     -4144.4522      33.795911     -236.99678      302.96239      9608.7309      0.89664272     0.80451851   
     45800  -4111.7898     -4145.1849      33.39512      -735.11708      299.36952      9615.5595      0.89600596     0.80451851   
     45900  -4111.8171     -4145.3087      33.491633     -328.69381      300.2347       9616.8943      0.8958816      0.80451851   
     46000  -4111.4333     -4144.6076      33.174321      1249.4953      297.39017      9612.7299      0.89626971     0.76016607   
     46100  -4110.1282     -4145.9494      35.821132     -787.07948      321.11743      9606.5965      0.89684194     0.76016607   
     46200  -4109.3933     -4143.1635      33.770164      1831.1718      302.73158      9598.6567      0.89758379     0.76016607   
     46300  -4109.7399     -4142.6943      32.954336      265.27188      295.41812      9592.7811      0.89813355     0.76016607   
     46400  -4109.2006     -4144.8243      35.623688      3148.6185      319.34744      9589.1133      0.89847709     0.76016607   
     46500  -4109.8862     -4144.1371      34.250954     -46.897139      307.04161      9596.783       0.89775902     0.76016607   
     46600  -4110.7192     -4145.6627      34.943508     -282.24775      313.24999      9611.7568      0.89636044     0.76016607   
     46700  -4110.1438     -4142.7554      32.611595      973.10935      292.34563      9623.6216      0.89525534     0.76016607   
     46800  -4110.7644     -4145.4143      34.649881     -2347.4817      310.61778      9630.8993      0.89457883     0.76016607   
     46900  -4110.1556     -4145.0393      34.883672     -917.98439      312.71359      9627.8784      0.89485952     0.76016607   
     47000  -4109.8977     -4144.3638      34.466116      2465.1391      308.97043      9624.4795      0.89517554     0.80546175   
     47100  -4111.2607     -4145.0534      33.792749      2071.0448      302.93404      9622.803       0.8953315      0.80546175   
     47200  -4112.8782     -4144.8547      31.976534     -1211.5083      286.65264      9618.1631      0.89576342     0.80546175   
     47300  -4111.8505     -4145.6814      33.83093       52.053968      303.27632      9608.3974      0.89667384     0.80546175   
     47400  -4112.0702     -4145.3571      33.286863     -1532.3438      298.39905      9596.6747      0.89776916     0.80546175   
     47500  -4112.7975     -4144.9368      32.139344      14.245143      288.11215      9579.3904      0.89938903     0.80546175   
     47600  -4112.1302     -4144.74        32.609768      3105.5491      292.32925      9558.2899      0.90137448     0.80546175   
     47700  -4111.1245     -4146.2055      35.08104      -1489.0875      314.48289      9539.4324      0.90315632     0.80546175   
     47800  -4111.4963     -4143.8167      32.320493      1324.0983      289.73606      9524.082       0.90461197     0.80546175   
     47900  -4110.1702     -4143.6628      33.492613     -187.89525      300.24349      9518.2248      0.90516864     0.80546175   
     48000  -4109.513      -4143.8875      34.37456       2166.4071      308.14968      9523.4998      0.90466728     0.82054506   
     48100  -4110.1568     -4144.2984      34.141538     -39.727332      306.06076      9540.1394      0.90308938     0.82054506   
     48200  -4109.0508     -4144.0869      35.036095     -3730.8691      314.07999      9566.9072      0.90056258     0.82054506   
     48300  -4109.7828     -4142.9536      33.170741     -1623.7993      297.35807      9601.0454      0.89736046     0.82054506   
     48400  -4109.8065     -4144.4382      34.631677      99.73642       310.45459      9638.8087      0.89384475     0.82054506   
     48500  -4110.9544     -4144.3624      33.408078     -2982.1086      299.48568      9668.3523      0.89111343     0.82054506   
     48600  -4110.2422     -4144.4899      34.247674     -679.73173      307.01221      9689.6675      0.88915317     0.82054506   
     48700  -4110.5269     -4145.5012      34.974258      2860.8275      313.52565      9701.4402      0.88807418     0.82054506   
     48800  -4111.0195     -4143.7597      32.740153      2620.7771      293.49809      9697.1955      0.88846291     0.82054506   
     48900  -4109.9667     -4143.2078      33.24111       412.80865      297.9889       9681.0085      0.88994846     0.82054506   
     49000  -4110.8737     -4144.4514      33.577749      1626.5509      301.00669      9652.8062      0.89254859     0.82068872   
     49100  -4110.1506     -4144.5509      34.400374     -1242.2896      308.38108      9618.2802      0.8957525      0.82068872   
     49200  -4108.6811     -4144.0948      35.413623      55.496816      317.46432      9580.7624      0.89926023     0.82068872   
     49300  -4109.3669     -4143.5997      34.232743      1674.7649      306.87836      9546.7831      0.90246091     0.82068872   
     49400  -4108.9509     -4144.0327      35.081828     -1463.2688      314.48995      9522.868       0.90472729     0.82068872   
     49500  -4109.2401     -4145.1574      35.917284     -1917.9472      321.97937      9517.5506      0.90523276     0.82068872   
     49600  -4108.6141     -4142.8999      34.285715      551.23381      307.35323      9530.771       0.90397708     0.82068872   
     49700  -4107.6233     -4142.6521      35.028763      763.40883      314.01426      9564.3147      0.90080668     0.82068872   
     49800  -4107.4844     -4143.357       35.872588     -1943.1856      321.5787       9615.0287      0.89605542     0.82068872   
     49900  -4107.6579     -4142.7538      35.095919      179.26445      314.61627      9671.4531      0.89082773     0.82068872   
     50000  -4108.858      -4143.2175      34.359585     -257.13664      308.01543      9728.6049      0.88559446     0.87344284   
     50100  -4110.6982     -4143.4787      32.780523     -1809.5087      293.85998      9772.544       0.88161267     0.87344284   
     50200  -4113.2714     -4145.2185      31.947138     -1199.0537      286.38912      9791.5317      0.87990305     0.87344284   
     50300  -4112.8023     -4146.2862      33.483926     -179.5156       300.16561      9780.7624      0.88087188     0.87344284   
     50400  -4110.7151     -4143.6196      32.904579     -1081.0452      294.97208      9744.5325      0.88414694     0.87344284   
     50500  -4110.0388     -4143.9125      33.873745     -1438.7743      303.66013      9691.6116      0.88897481     0.87344284   
     50600  -4108.6185     -4144.396       35.777473     -531.24786      320.72605      9632.0957      0.89446771     0.87344284   
     50700  -4109.7497     -4142.9485      33.198786     -1122.2826      297.60948      9577.4255      0.89957354     0.87344284   
     50800  -4110.586      -4143.1774      32.591491      1547.9296      292.1654       9531.2513      0.90393153     0.87344284   
     50900  -4109.4178     -4145.3551      35.937227      1089.931       322.15816      9501.5982      0.90675257     0.87344284   
     51000  -4108.9012     -4144.3058      35.404521     -532.03612      317.38273      9496.5149      0.90723794     0.79521212   
     51100  -4108.4398     -4143.7758      35.336014     -2844.3855      316.7686       9514.4153      0.90553106     0.79521212   
     51200  -4110.1418     -4145.1967      35.054887     -101.39772      314.24844      9550.8595      0.90207573     0.79521212   
     51300  -4111.4254     -4145.1903      33.764937      1778.8775      302.68473      9600.1952      0.89743994     0.79521212   
     51400  -4111.6687     -4144.9427      33.273977      705.39471      298.28354      9651.4724      0.89267194     0.79521212   
     51500  -4111.196      -4143.9904      32.794474     -879.07439      293.98504      9693.1059      0.88883777     0.79521212   
     51600  -4110.1075     -4144.2551      34.147533     -970.07108      306.1145       9720.2772      0.88635318     0.79521212   
     51700  -4111.8034     -4145.6392      33.83581      -2868.3361      303.32006      9733.9014      0.88511259     0.79521212   
     51800  -4113.767      -4146.3142      32.547161     -1902.7382      291.76801      9726.2283      0.88581085     0.79521212   
     51900  -4112.9506     -4146.2465      33.29593       1153.8316      298.48033      9695.2593      0.88864035     0.79521212   
     52000  -4111.5922     -4146.286       34.693847      839.80032      311.01191      9650.2316      0.89278671     0.86366464   
     52100  -4112.7783     -4146.2971      33.518737      447.49285      300.47767      9599.3472      0.89751922     0.86366464   
     52200  -4111.5628     -4145.895       34.332225      1668.6291      307.77016      9552.822       0.90189042     0.86366464   
     52300  -4111.783      -4146.4904      34.707448     -124.62019      311.13384      9517.7677      0.90521211     0.86366464   
     52400  -4111.3483     -4146.0077      34.659345     -367.67977      310.70262      9493.457       0.90753016     0.86366464   
     52500  -4112.5727     -4145.9172      33.344439      1439.3804      298.91519      9484.8999      0.90834892     0.86366464   
     52600  -4112.0573     -4145.1372      33.079864     -192.83393      296.54341      9493.8634      0.90749132     0.86366464   
     52700  -4111.3423     -4145.016       33.673691     -897.19946      301.86676      9516.7887      0.90530523     0.86366464   
     52800  -4111.1551     -4144.4625      33.307425     -528.94918      298.58338      9549.1184      0.90224021     0.86366464   
     52900  -4110.7483     -4144.9701      34.221857      528.46782      306.78077      9583.3221      0.89902004     0.86366464   
     53000  -4111.8606     -4146.4986      34.638005     -386.65017      310.51132      9617.9693      0.89578146     0.86495379   
     53100  -4112.0657     -4145.8537      33.788013     -233.35468      302.89159      9647.8159      0.89301026     0.86495379   
     53200  -4112.8521     -4144.856       32.003877      278.42382      286.89776      9668.3595      0.89111276     0.86495379   
     53300  -4113.2622     -4145.7292      32.466969     -1188.0381      291.04913      9673.1366      0.89067269     0.86495379   
     53400  -4111.192      -4145.8493      34.657229     -515.7736       310.68366      9662.3445      0.89166751     0.86495379   
     53500  -4111.5519     -4144.1845      32.632565      1501.8509      292.53361      9639.1748      0.89381081     0.86495379   
     53600  -4110.5098     -4145.7287      35.218966     -282.89948      315.71933      9607.3561      0.89677103     0.86495379   
     53700  -4109.8626     -4144.4577      34.595097     -1259.0597      310.12667      9572.8177      0.90000655     0.86495379   
     53800  -4110.28       -4144.3576      34.077595     -33.282737      305.48754      9544.9793      0.90263146     0.86495379   
     53900  -4111.3802     -4146.4373      35.057138      2444.9293      314.26862      9525.4077      0.90448607     0.86495379   
     54000  -4111.248      -4145.004       33.756052      621.64699      302.60508      9516.0427      0.9053762      0.88938194   
     54100  -4111.5878     -4145.0984      33.510607     -954.47351      300.40479      9515.6534      0.90541324     0.88938194   
     54200  -4111.3848     -4145.0533      33.668457     -318.42439      301.81983      9523.6996      0.90464829     0.88938194   
     54300  -4111.1697     -4145.0271      33.857384      1202.9996      303.51347      9541.325       0.90297716     0.88938194   
     54400  -4109.3971     -4144.96        35.562912     -1505.6695      318.80262      9571.9661      0.90008662     0.88938194   
     54500  -4109.7254     -4145.1891      35.463708      2163.0205      317.91331      9613.8507      0.89616522     0.88938194   
     54600  -4108.4251     -4142.6726      34.247514      811.51016      307.01077      9654.5564      0.89238679     0.88938194   
     54700  -4109.9921     -4143.0141      33.021996     -863.38142      296.02466      9689.9013      0.88913172     0.88938194   
     54800  -4109.9197     -4143.626       33.706362     -2119.1961      302.15963      9711.1438      0.8871868      0.88938194   
     54900  -4110.6864     -4143.9318      33.245405      454.65279      298.0274       9714.5758      0.88687337     0.88938194   
     55000  -4110.4731     -4144.4441      33.971002     -152.17949      304.53199      9701.8558      0.88803614     0.85369403   
     55100  -4109.5133     -4144.7017      35.188364      703.94091      315.445        9677.4021      0.8902801      0.85369403   
     55200  -4109.4518     -4143.8667      34.414884     -257.09147      308.51116      9651.0574      0.89271033     0.85369403   
     55300  -4109.9033     -4143.961       34.057721     -2628.5487      305.30938      9623.571       0.89526004     0.85369403   
     55400  -4110.48       -4144.195       33.71495       1364.6759      302.23662      9594.4656      0.89797587     0.85369403   
     55500  -4110.6109     -4144.7897      34.178881      548.02109      306.39552      9570.8699      0.90018971     0.85369403   
     55600  -4111.297      -4143.8937      32.59663      -1287.9768      292.21148      9554.3368      0.90174743     0.85369403   
     55700  -4111.3134     -4144.6056      33.292148      102.75237      298.44642      9543.8808      0.90273535     0.85369403   
[...]
    386100  -4109.879      -4144.1726      34.293683     -532.45434      307.42465      9599.3554      0.89751845     0.86449998   
    386200  -4110.9717     -4144.4953      33.523624     -1986.7324      300.52149      9619.4366      0.89564483     0.86449998   
    386300  -4111.3278     -4145.1107      33.782927      1134.4031      302.846        9642.6225      0.89349123     0.86449998   
    386400  -4110.8236     -4143.8676      33.043903      477.10333      296.22104      9662.9578      0.89161091     0.86449998   
    386500  -4110.75       -4144.7692      34.019138      644.3754       304.9635       9676.4997      0.89036313     0.86449998   
    386600  -4111.4283     -4145.7237      34.295424     -908.10607      307.44026      9680.2678      0.89001655     0.86449998   
    386700  -4111.1324     -4145.4546      34.322239     -278.56701      307.68065      9676.2297      0.89038798     0.86449998   
    386800  -4109.9547     -4143.616       33.661325      763.8054       301.7559       9660.4775      0.89183982     0.86449998   
    386900  -4110.4125     -4143.9844      33.571882     -829.59331      300.95409      9640.1236      0.89372284     0.86449998   
    387000  -4110.3801     -4144.9328      34.55269      -813.42178      309.74652      9618.8099      0.89570318     0.79967746   
    387100  -4110.5421     -4145.108       34.565972      2427.5882      309.86558      9595.5779      0.89787178     0.79967746   
    387200  -4111.2014     -4145.2347      34.03332       1512.1288      305.09064      9576.2142      0.89968733     0.79967746   
    387300  -4111.0958     -4144.8585      33.762745      2207.8411      302.66508      9558.4734      0.90135717     0.79967746   
    387400  -4111.1816     -4145.1646      33.982979     -1167.3799      304.63936      9550.8466      0.90207696     0.79967746   
    387500  -4110.4302     -4145.2561      34.82587       548.32606      312.19543      9556.0463      0.9015861      0.79967746   
    387600  -4111.0197     -4145.1583      34.138622     -1409.2007      306.03462      9574.5137      0.89984712     0.79967746   
    387700  -4110.4704     -4144.7957      34.325295     -753.71882      307.70804      9596.5765      0.89777835     0.79967746   
    387800  -4110.5342     -4143.0807      32.546507     -3160.0667      291.76215      9617.3336      0.89584067     0.79967746   
    387900  -4109.0212     -4143.5397      34.518523      135.26233      309.44022      9633.3185      0.89435417     0.79967746   
    388000  -4109.3345     -4143.4798      34.145288     -8.5129696      306.09437      9645.6135      0.89321416     0.81503763   
    388100  -4110.4419     -4143.87        33.42807      -750.9874       299.66489      9655.7035      0.89228078     0.81503763   
    388200  -4110.3577     -4144.189       33.831306     -772.39684      303.27969      9657.9175      0.89207623     0.81503763   
    388300  -4109.5365     -4143.7461      34.209632     -1721.1445      306.67119      9654.4734      0.89239446     0.81503763   
    388400  -4109.4823     -4146.1211      36.63882       572.88208      328.44757      9648.3166      0.89296392     0.81503763   
    388500  -4109.7764     -4144.7347      34.958308     -1566.1154      313.38267      9640.7425      0.89366546     0.81503763   
    388600  -4111.0529     -4145.5381      34.485168      906.99575      309.14122      9633.8855      0.89430154     0.81503763   
    388700  -4109.221      -4144.2085      34.987472      2710.4146      313.6441       9624.5643      0.89516765     0.81503763   
    388800  -4110.0596     -4144.7095      34.649859      3019.4078      310.61759      9618.5522      0.89572717     0.81503763   
    388900  -4110.5907     -4144.9416      34.35095      -318.08772      307.93803      9616.7122      0.89589856     0.81503763   
    389000  -4110.191      -4144.8456      34.654632      560.58178      310.66037      9615.5666      0.89600529     0.79085269   
    389100  -4110.4661     -4143.3103      32.844215     -1565.1885      294.43094      9613.5584      0.89619246     0.79085269   
    389200  -4111.3529     -4144.5999      33.246993     -660.8145       298.04164      9608.0942      0.89670214     0.79085269   
    389300  -4110.5335     -4144.8984      34.364907      520.42762      308.06314      9598.4997      0.89759846     0.79085269   
    389400  -4109.6723     -4143.8978      34.225483      1072.9359      306.81328      9589.0225      0.89848559     0.79085269   
    389500  -4111.6742     -4145.1329      33.458639     -2434.0259      299.93893      9587.5364      0.89862486     0.79085269   
    389600  -4112.7556     -4146.1486      33.392994     -2595.1839      299.35045      9586.7172      0.89870165     0.79085269   
    389700  -4113.302      -4145.1291      31.827081      1380.7502      285.31288      9583.4886      0.89900442     0.79085269   
    389800  -4113.1419     -4146.8982      33.756343      292.12049      302.60768      9582.6901      0.89907933     0.79085269   
    389900  -4113.5115     -4146.1962      32.684698      1010.4271      293.00096      9585.4419      0.89882122     0.79085269   
    390000  -4114.2984     -4147.6972      33.398728      585.35303      299.40186      9593.4912      0.89806707     0.85647064   
    390100  -4114.4028     -4147.9744      33.571529     -1365.4267      300.95093      9600.7561      0.89738751     0.85647064   
    390200  -4113.1872     -4145.7499      32.562716     -3098.3945      291.90745      9601.3009      0.89733659     0.85647064   
    390300  -4113.4758     -4146.0664      32.590647      2372.7757      292.15784      9597.9119      0.89765343     0.85647064   
    390400  -4112.342      -4145.7809      33.438874      1220.2632      299.76175      9591.226       0.89827918     0.85647064   
    390500  -4112.2045     -4145.7284      33.523894     -1999.9349      300.52391      9582.6222      0.8990857      0.85647064   
    390600  -4111.2458     -4145.9035      34.657635     -1095.5974      310.68729      9576.9542      0.89961781     0.85647064   
    390700  -4111.5345     -4146.2817      34.747169     -1460.4948      311.48991      9573.1522      0.8999751      0.85647064   
    390800  -4112.4005     -4145.0836      32.683109      183.70379      292.98671      9569.4197      0.90032613     0.85647064   
    390900  -4111.378      -4145.4632      34.085261      269.07647      305.55626      9563.9403      0.90084195     0.85647064   
    391000  -4112.7628     -4145.1028      32.340026      19.601532      289.91115      9559.8057      0.90123156     0.84317658   
    391100  -4112.1958     -4145.3904      33.194635      702.43857      297.57228      9559.6206      0.90124901     0.84317658   
    391200  -4113.2836     -4147.0432      33.759627     -1329.5869      302.63713      9566.5659      0.9005947      0.84317658   
    391300  -4112.0899     -4146.1577      34.067781      713.048        305.39957      9572.683       0.90001921     0.84317658   
    391400  -4112.4989     -4146.0138      33.514893     -406.91885      300.44322      9576.9922      0.89961425     0.84317658   
    391500  -4111.7719     -4145.7248      33.95282       239.85568      304.369        9580.1772      0.89931516     0.84317658   
    391600  -4111.3136     -4143.4177      32.104103      1435.5867      287.79623      9583.7725      0.89897779     0.84317658   
    391700  -4111.6029     -4145.7542      34.15128      -468.56172      306.14808      9587.0627      0.89866927     0.84317658   
    391800  -4111.6812     -4144.7157      33.034467     -64.443421      296.13645      9586.4298      0.8987286      0.84317658   
    391900  -4113.1344     -4145.8125      32.678138      2256.7464      292.94215      9585.8241      0.89878539     0.84317658   
    392000  -4113.8086     -4147.738       33.929483     -2240.5175      304.15979      9582.1546      0.89912958     0.87378376   
    392100  -4113.1284     -4145.022       31.893548     -1229.4626      285.90872      9574.8456      0.89981593     0.87378376   
    392200  -4112.6203     -4145.7183      33.097972     -995.91585      296.70574      9567.9557      0.90046389     0.87378376   
    392300  -4111.9489     -4146.4127      34.463752      1769.8969      308.94923      9564.0903      0.90082782     0.87378376   
    392400  -4112.2527     -4145.3711      33.118393      2321.7386      296.8888       9562.8049      0.90094891     0.87378376   
    392500  -4111.5294     -4145.2876      33.758233     -1803.1226      302.62463      9566.8739      0.90056571     0.87378376   
    392600  -4112.1221     -4144.8682      32.746117      30.438395      293.55154      9573.0703      0.8999828      0.87378376   
    392700  -4111.8946     -4145.2954      33.40082       2730.7312      299.42061      9580.5951      0.89927594     0.87378376   
    392800  -4111.1916     -4143.9066      32.714955      303.51436      293.2722       9588.1594      0.89856648     0.87378376   
    392900  -4111.4185     -4144.4742      33.055703      1676.3         296.32682      9592.5014      0.89815974     0.87378376   
    393000  -4110.4843     -4144.3862      33.901959      1151.643       303.91306      9591.5502      0.89824881     0.8274153    
    393100  -4109.0449     -4144.0357      34.990762     -1363.8656      313.6736       9585.8973      0.89877852     0.8274153    
    393200  -4108.7835     -4144.5166      35.733069      758.34752      320.32798      9582.2438      0.89912121     0.8274153    
    393300  -4109.3566     -4144.852       35.495428     -1752.6649      318.19766      9581.4286      0.89919771     0.8274153    
    393400  -4108.3071     -4143.0285      34.721395      3014.8356      311.25887      9584.7623      0.89888495     0.8274153    
    393500  -4109.7944     -4143.6145      33.820124     -1424.0015      303.17945      9591.312       0.89827113     0.8274153    
    393600  -4107.8737     -4144.4446      36.570944      1037.3341      327.83909      9600.5772      0.89740423     0.8274153    
    393700  -4108.331      -4142.9158      34.584851      339.50518      310.03482      9614.8956      0.89606783     0.8274153    
    393800  -4108.9716     -4143.429       34.457423     -1282.8785      308.8925       9626.275       0.89500856     0.8274153    
    393900  -4107.9701     -4142.3372      34.367172      2573.1211      308.08345      9630.772       0.89459065     0.8274153    
    394000  -4109.2432     -4143.5732      34.32997       3223.4979      307.74995      9635.8869      0.89411578     0.85500792   
    394100  -4109.9559     -4144.4455      34.489632     -3987.0571      309.18124      9641.3439      0.89360972     0.85500792   
    394200  -4111.3832     -4144.4523      33.069119     -484.47933      296.44709      9642.812       0.89347367     0.85500792   
    394300  -4111.0255     -4143.2831      32.257606      1746.8475      289.17231      9642.3519      0.8935163      0.85500792   
    394400  -4111.4995     -4144.3591      32.859581     -1415.4948      294.5687       9639.2615      0.89380277     0.85500792   
    394500  -4110.3643     -4145.1971      34.832854     -175.1883       312.25804      9629.2222      0.89473463     0.85500792   
    394600  -4108.0497     -4144.6301      36.580383      469.8541       327.92371      9616.0429      0.89596091     0.85500792   
    394700  -4108.0309     -4144.3082      36.277301      1847.2094      325.20673      9610.0894      0.89651596     0.85500792   
    394800  -4108.3478     -4143.7219      35.374122      1115.2442      317.11022      9612.5847      0.89628324     0.85500792   
    394900  -4108.5114     -4142.7363      34.224836     -2132.6043      306.80747      9619.5412      0.89563509     0.85500792   
    395000  -4109.2214     -4144.8665      35.645141      257.9253       319.53976      9628.7275      0.89478061     0.82738901   
    395100  -4108.8691     -4143.8787      35.009551     -3481.4164      313.84204      9640.0941      0.89372557     0.82738901   
    395200  -4108.6477     -4143.6819      35.034227     -358.73581      314.06324      9647.6285      0.89302761     0.82738901   
    395300  -4109.5156     -4143.8414      34.325785     -2151.8858      307.71243      9649.5546      0.89284935     0.82738901   
    395400  -4109.9498     -4144.4734      34.523522     -1620.7708      309.48504      9641.9631      0.89355233     0.82738901   
    395500  -4110.9915     -4144.8966      33.905135      743.18122      303.94153      9625.9176      0.8950418      0.82738901   
    395600  -4110.8467     -4145.0037      34.157063     -1621.434       306.19993      9611.0744      0.89642409     0.82738901   
    395700  -4110.6646     -4144.8691      34.204446      1393.81        306.62469      9596.7551      0.89776164     0.82738901   
    395800  -4111.5627     -4144.4001      32.837363      2012.1047      294.36952      9582.4877      0.89909832     0.82738901   
    395900  -4111.1043     -4144.7869      33.682563      484.3194       301.94629      9569.0398      0.90036187     0.82738901   
    396000  -4111.1182     -4145.9406      34.822421      1416.8932      312.16451      9564.9202      0.90074966     0.79818713   
    396100  -4111.1551     -4144.3847      33.229601     -1504.6728      297.88573      9564.3984      0.9007988      0.79818713   
    396200  -4109.7799     -4143.2494      33.469457      3137.2389      300.03591      9567.5152      0.90050534     0.79818713   
    396300  -4109.8866     -4143.4367      33.550073     -3687.4575      300.75858      9574.9141      0.89980949     0.79818713   
    396400  -4111.2763     -4144.0341      32.757881      1491.2804      293.65701      9584.5919      0.89890093     0.79818713   
    396500  -4110.1066     -4144.0515      33.944872     -2510.5906      304.29775      9596.5082      0.89778473     0.79818713   
    396600  -4108.2789     -4143.8065      35.527552     -382.02351      318.48563      9604.5839      0.89702986     0.79818713   
    396700  -4108.2865     -4143.3991      35.112656      344.20854      314.76632      9611.5917      0.89637584     0.79818713   
    396800  -4108.3699     -4143.0912      34.721286      2915.0031      311.25789      9621.9043      0.89541512     0.79818713   
    396900  -4108.5915     -4142.2295      33.637932      1265.7778      301.54619      9632.6896      0.89441257     0.79818713   
    397000  -4107.4965     -4143.5707      36.074285     -1483.6017      323.38681      9640.4006      0.89369715     0.79788573   
    397100  -4108.2624     -4142.6682      34.405783     -717.37075      308.42957      9641.5116      0.89359418     0.79788573   
    397200  -4108.27       -4143.746       35.47605      -1444.4278      318.02395      9634.0955      0.89428204     0.79788573   
    397300  -4108.1027     -4142.4435      34.340797      1778.4118      307.847        9621.5623      0.89544695     0.79788573   
    397400  -4109.8803     -4144.7305      34.850205      625.27463      312.41357      9606.5295      0.89684819     0.79788573   
    397500  -4111.0891     -4144.4783      33.389244     -1506.0491      299.31684      9592.5277      0.89815728     0.79788573   
    397600  -4111.1835     -4145.8098      34.626295     -395.64381      310.40635      9582.8713      0.89906232     0.79788573   
    397700  -4110.8423     -4143.9429      33.100568      149.39875      296.72901      9571.116       0.90016656     0.79788573   
    397800  -4110.057      -4143.7276      33.670605      13.920758      301.8391       9559.8913      0.90122349     0.79788573   
    397900  -4110.4152     -4143.7996      33.384482     -281.57325      299.27415      9547.216       0.90241999     0.79788573   
    398000  -4110.0187     -4144.6559      34.637189      2417.7042      310.504        9536.875       0.90339851     0.81916314   
    398100  -4110.1394     -4145.1194      34.980043      364.80359      313.57751      9531.5564      0.9039026      0.81916314   
    398200  -4110.1447     -4146.0802      35.935506     -1662.9313      322.14273      9531.8567      0.90387412     0.81916314   
    398300  -4110.5022     -4144.9356      34.433443     -1849.3229      308.67753      9540.722       0.90303424     0.81916314   
    398400  -4111.71       -4145.4736      33.763606      706.36963      302.6728       9559.34        0.90127546     0.81916314   
    398500  -4110.1751     -4144.7541      34.579011      259.49101      309.98247      9580.7501      0.89926139     0.81916314   
    398600  -4108.747      -4143.4855      34.738486     -376.58078      311.41208      9598.4351      0.89760451     0.81916314   
    398700  -4108.7496     -4141.7033      32.953659     -1601.6311      295.41205      9615.9795      0.89596682     0.81916314   
    398800  -4109.6795     -4143.5876      33.908076     -2214.23        303.9679       9630.7206      0.89459543     0.81916314   
    398900  -4109.4726     -4144.9109      35.438303     -1159.7112      317.68556      9638.1759      0.89390344     0.81916314   
    399000  -4110.6326     -4144.405       33.772423     -1338.7056      302.75184      9637.0676      0.89400625     0.85484722   
    399100  -4111.4418     -4145.6149      34.173116     -238.13031      306.34383      9629.9262      0.89466922     0.85484722   
    399200  -4111.2773     -4145.2514      33.974063      1943.7421      304.55943      9612.7902      0.89626408     0.85484722   
    399300  -4110.6737     -4144.9457      34.272048      1200.9426      307.23071      9584.9862      0.89886395     0.85484722   
    399400  -4109.5598     -4144.1483      34.588515      1480.7619      310.06767      9553.8415      0.90179417     0.85484722   
    399500  -4110.9984     -4145.2221      34.223651      1019.8911      306.79686      9529.0358      0.9041417      0.85484722   
    399600  -4111.1687     -4145.1169      33.948136      2383.7551      304.32701      9513.4016      0.90562755     0.85484722   
    399700  -4111.3643     -4145.5712      34.206838     -1001.9917      306.64614      9508.6351      0.90608153     0.85484722   
    399800  -4112.2251     -4145.9699      33.744781      590.75481      302.50404      9511.4571      0.9058127      0.85484722   
    399900  -4111.0419     -4144.2068      33.164901      812.37592      297.30573      9519.8099      0.90501793     0.85484722   
    400000  -4111.758      -4146.4391      34.681161     -1261.9702      310.89819      9532.559       0.90380753     0.85375648   
    400100  -4110.5687     -4144.9844      34.415697      2880.5614      308.51845      9548.09        0.90233739     0.85375648   
    400174  -4110.4121     -4145.692       35.279935     -1352.3691      316.26588      9564.212       0.90081635     0.85375648   
Loop time of 513.483 on 2 procs for 200000 steps with 864 atoms

Performance: 16.826 ns/day, 1.426 hours/ns, 389.496 timesteps/s, 336.525 katom-step/s
99.7% CPU use with 2 MPI tasks x 1 OpenMP threads

MPI task timing breakdown:
Section |  min time  |  avg time  |  max time  |%varavg| %total
---------------------------------------------------------------
Pair    | 266.3      | 271.88     | 277.45     |  33.8 | 52.95
Neigh   | 7.5268     | 7.9628     | 8.3989     |  15.5 |  1.55
Comm    | 38.71      | 43.853     | 48.996     |  77.7 |  8.54
Output  | 0.29149    | 0.2947     | 0.29792    |   0.6 |  0.06
Modify  | 186.55     | 187.46     | 188.37     |   6.6 | 36.51
Other   |            | 2.038      |            |       |  0.40

Nlocal:            432 ave         433 max         431 min
Histogram: 1 0 0 0 0 0 0 0 0 1
Nghost:           2181 ave        2182 max        2180 min
Histogram: 1 0 0 0 0 0 0 0 0 1
Neighs:              0 ave           0 max           0 min
Histogram: 2 0 0 0 0 0 0 0 0 0
FullNghs:        44713 ave       44901 max       44525 min
Histogram: 1 0 0 0 0 0 0 0 0 1

Total # of neighbors = 89426
Ave neighs/atom = 103.50231
Neighbor list builds = 19952
Dangerous builds = 19715

unfix		3
unfix		4
Total wall time: 0:17:05
