LAMMPS (27 Jun 2024)
KOKKOS mode with Kokkos version 4.3.1 is enabled (src/KOKKOS/kokkos.cpp:72)
  will use up to 1 GPU(s) per node
WARNING: When using a single thread, the Kokkos Serial backend (i.e. Makefile.kokkos_mpi_only) gives better performance than the OpenMP backend (src/KOKKOS/kokkos.cpp:202)
  using 1 OpenMP thread(s) per MPI task
Reading data file ...
  orthogonal box = (0 0 0) to (19.665067 19.665067 19.640133)
  1 by 1 by 1 MPI processor grid
  reading atoms ...
  1296 atoms
  read_data CPU = 0.008 seconds
ACE/AL version: 2023.11.25
Loading /pc2/users/a/acepdw01/work/phase_diagram/pot_dir/interim_potential_ladder_step_1.yaml
Total number of basis functions
	H: 23 (r=1) 664 (r>1)
	O: 23 (r=1) 664 (r>1)
Mapping LAMMPS atom type #1(H) -> ACE species type #0
Mapping LAMMPS atom type #2(O) -> ACE species type #1
Loading ASI /pc2/users/a/acepdw01/work/phase_diagram/pot_dir/interim_potential_ladder_step_1.asi
LINEAR ASI is loaded

CITE-CITE-CITE-CITE-CITE-CITE-CITE-CITE-CITE-CITE-CITE-CITE-CITE

Your simulation uses code contributions which should be cited:
- Type Label Framework: https://doi.org/10.1021/acs.jpcb.3c08419
The log file lists these citations in BibTeX format.

CITE-CITE-CITE-CITE-CITE-CITE-CITE-CITE-CITE-CITE-CITE-CITE-CITE

Switching to 'neigh_modify every 1 delay 0 check yes' setting during minimization
Neighbor list info ...
  update: every = 1 steps, delay = 0 steps, check = yes
  max neighbors/atom: 2000, page size: 100000
  master list distance cutoff = 6.5
  ghost atom cutoff = 6.5
  binsize = 6.5, bins = 4 4 4
  1 neighbor lists, perpetual/occasional/extra = 1 0 0
  (1) pair pace/extrapolation/kk, perpetual
      attributes: full, newton on, kokkos_device
      pair build: full/bin/kk/device
      stencil: full/bin/3d
      bin: kk/device
Setting up cg/kk style minimization ...
  Unit style    : metal
  Current step  : 0
WARNING: Fix with atom-based arrays not compatible with sending data in Kokkos communication, switching to classic exchange/border communication (src/KOKKOS/comm_kokkos.cpp:754)
WARNING: Fix with atom-based arrays not compatible with Kokkos sorting on device, switching to classic host sorting (src/KOKKOS/atom_kokkos.cpp:216)
Per MPI rank memory allocation (min/avg/max) = 1123 | 1123 | 1123 Mbytes
   Step         TotEng         PotEng         KinEng         Press           Temp          Volume        Density     c_max_pace_gamma
         0  -6250.4972     -6250.4972      0              21939.986      0              7595.1311      1.7015372      0.62320148   
        33  -6250.6452     -6250.6452      0              22350.057      0              7595.1311      1.7015372      0.62320148   
Loop time of 0.249365 on 1 procs for 33 steps with 1296 atoms

99.5% CPU use with 1 MPI tasks x 1 OpenMP threads

Minimization stats:
  Stopping criterion = force tolerance
  Energy initial, next-to-last, final = 
     -6250.49717465846  -6250.64523648355  -6250.64523648876
  Force two-norm initial, final = 0.82052426 0.0003006328
  Force max component initial, final = 0.040662504 1.1270972e-05
  Final line search alpha, max atom move = 1 1.1270972e-05
  Iterations, force evaluations = 33 66

MPI task timing breakdown:
Section |  min time  |  avg time  |  max time  |%varavg| %total
---------------------------------------------------------------
Pair    | 0.22366    | 0.22366    | 0.22366    |   0.0 | 89.69
Neigh   | 0          | 0          | 0          |   0.0 |  0.00
Comm    | 0.0017372  | 0.0017372  | 0.0017372  |   0.0 |  0.70
Output  | 0          | 0          | 0          |   0.0 |  0.00
Modify  | 0.014066   | 0.014066   | 0.014066   |   0.0 |  5.64
Other   |            | 0.009904   |            |       |  3.97

Nlocal:           1296 ave        1296 max        1296 min
Histogram: 1 0 0 0 0 0 0 0 0 0
Nghost:           4514 ave        4514 max        4514 min
Histogram: 1 0 0 0 0 0 0 0 0 0
Neighs:              0 ave           0 max           0 min
Histogram: 1 0 0 0 0 0 0 0 0 0
FullNghs:       251424 ave      251424 max      251424 min
Histogram: 1 0 0 0 0 0 0 0 0 0

Total # of neighbors = 251424
Ave neighs/atom = 194
Neighbor list builds = 0
Dangerous builds = 0
Setting up Verlet run ...
  Unit style    : metal
  Current step  : 33
  Time step     : 0.0005
WARNING: Fix with atom-based arrays not compatible with Kokkos sorting on device, switching to classic host sorting (src/KOKKOS/atom_kokkos.cpp:216)
Per MPI rank memory allocation (min/avg/max) = 1123 | 1123 | 1123 Mbytes
   Step         TotEng         PotEng         KinEng         Press           Temp          Volume        Density     c_max_pace_gamma
        33  -6184.5254     -6250.6452      66.119796      31648.609      395            7595.1311      1.7015372      0.62320148   
       100  -6175.5893     -6202.3895      26.800271      34697.174      160.10496      7602.1422      1.6999679      0.62320148   
       200  -6164.0225     -6206.25        42.227498      34030.165      252.26729      7669.123       1.6851207      0.62320148   
       300  -6155.6441     -6204.2663      48.622215      33920.295      290.46936      7790.8391      1.6587941      0.62320148   
       400  -6149.8536     -6199.3165      49.462915      33975.223      295.49171      7934.2328      1.6288151      0.62320148   
       500  -6144.6497     -6200.8534      56.203716      24728.303      335.76129      8060.9357      1.6032131      0.62320148   
       600  -6140.2497     -6195.7717      55.522023      27015.425      331.68885      8144.1231      1.5868372      0.62320148   
       700  -6137.3895     -6194.8764      57.486842      29648.107      343.42669      8185.9556      1.5787281      0.62320148   
       800  -6133.9844     -6193.1951      59.210693      27510.91       353.72498      8193.1159      1.5773484      0.62320148   
       900  -6128.9154     -6191.7448      62.829402      26764.358      375.34317      8178.035       1.5802571      0.62320148   
      1000  -6127.1265     -6189.3049      62.178392      27254.863      371.45403      8149.7944      1.585733       0.91798607   
      1100  -6125.1908     -6188.8049      63.61413       28843.184      380.03114      8118.1488      1.5919144      0.91798607   
      1200  -6126.7215     -6188.5914      61.869879      27654.993      369.61098      8090.7064      1.5973139      0.91798607   
      1300  -6122.756      -6187.9996      65.243617      30429.277      389.7657       8071.9088      1.6010337      0.91798607   
      1400  -6121.621      -6185.9646      64.34351       32149.938      384.38846      8068.9638      1.601618       0.91798607   
      1500  -6121.1199     -6186.1065      64.986562      31917.619      388.23005      8087.8402      1.59788        0.91798607   
      1600  -6120.7632     -6187.585       66.821862      27653.302      399.19415      8122.2314      1.5911142      0.91798607   
      1700  -6120.8829     -6184.4093      63.526401      29644.197      379.50705      8161.3144      1.5834947      0.91798607   
      1800  -6122.8278     -6185.5269      62.699089      27013.334      374.56468      8201.1937      1.5757947      0.91798607   
      1900  -6123.5075     -6187.8264      64.318964      19623.479      384.24182      8232.5976      1.5697837      0.91798607   
      2000  -6121.8334     -6187.2547      65.421302      22999.659      390.82719      8248.5622      1.5667455      0.81272117   
      2100  -6121.8803     -6183.5129      61.632577      28544.141      368.19333      8247.2225      1.567          0.81272117   
      2200  -6121.1249     -6184.699       63.574122      28998.885      379.79213      8231.5982      1.5699743      0.81272117   
      2300  -6119.0403     -6185.5295      66.489263      29582.596      397.2072       8205.1162      1.5750414      0.81272117   
      2400  -6117.9013     -6185.7823      67.880989      31245.917      405.52138      8174.7777      1.5808868      0.81272117   
      2500  -6115.5395     -6181.9002      66.360741      34154.798      396.43941      8151.0922      1.5854805      0.81272117   
      2600  -6113.9074     -6182.1639      68.25641       30838.006      407.76414      8143.2796      1.5870016      0.81272117   
      2700  -6113.1063     -6182.7932      69.686852      29140.643      416.30961      8152.9843      1.5851126      0.81272117   
      2800  -6110.8914     -6180.6267      69.735275      30140.844      416.59889      8177.6527      1.580331       0.81272117   
      2900  -6109.5399     -6179.5023      69.962364      30688.285      417.95552      8213.4143      1.5734501      0.81272117   
      3000  -6111.0922     -6179.5907      68.49853       27663.177      409.21057      8257.5514      1.56504        0.86297214   
      3100  -6111.0253     -6181.3565      70.331126      26967.693      420.15851      8299.659       1.5570999      0.86297214   
      3200  -6113.54       -6182.7031      69.163096      22696.416      413.18069      8328.3892      1.5517284      0.86297214   
      3300  -6113.4694     -6180.2535      66.784099      21606.925      398.96855      8337.8822      1.5499617      0.86297214   
      3400  -6114.6561     -6184.0878      69.431728      21990.432      414.7855       8327.605       1.5518745      0.86297214   
      3500  -6113.8663     -6183.6641      69.797805      27052.907      416.97245      8296.5799      1.5576778      0.86297214   
      3600  -6112.5896     -6182.8597      70.270161      33516.403      419.7943       8253.08        1.5658879      0.86297214   
      3700  -6112.6655     -6180.4684      67.802911      33270.866      405.05494      8207.9681      1.5744942      0.86297214   
      3800  -6113.7748     -6183.7782      70.003357      29571.486      418.20041      8173.3722      1.5811586      0.86297214   
      3900  -6115.0584     -6183.4683      68.409924      31674.812      408.68124      8153.1227      1.5850857      0.86297214   
      4000  -6115.3893     -6184.6915      69.302227      29229.421      414.01186      8149.2768      1.5858337      0.78471025   
      4100  -6114.58       -6183.6846      69.104615      33922.406      412.83133      8162.0025      1.5833612      0.78471025   
      4200  -6114.2482     -6181.7351      67.486876      32847.09       403.16694      8192.8817      1.5773934      0.78471025   
      4300  -6116.0057     -6184.2652      68.259492      28544.205      407.78256      8234.4434      1.5694319      0.78471025   
      4400  -6115.4669     -6183.931       68.464071      27201.522      409.00471      8273.4655      1.5620296      0.78471025   
      4500  -6115.4841     -6185.3472      69.86306       23345.935      417.36228      8303.0951      1.5564555      0.78471025   
      4600  -6115.7516     -6183.4682      67.716567      23654.55       404.53912      8314.0785      1.5543993      0.78471025   
      4700  -6115.0399     -6181.349       66.309115      22749.998      396.13099      8305.4126      1.5560212      0.78471025   
      4800  -6115.2112     -6183.293       68.081764      22705.788      406.72081      8281.0271      1.5606033      0.78471025   
      4900  -6117.1218     -6183.2166      66.094786      28517.038      394.85059      8242.3253      1.5679311      0.78471025   
      5000  -6116.4167     -6183.3379      66.921196      31778.759      399.78757      8194.0089      1.5771764      0.79444921   
      5100  -6113.4929     -6183.6557      70.16273       34185.584      419.15251      8152.6559      1.5851764      0.79444921   
      5200  -6112.5791     -6182.5543      69.975188      36275.739      418.03214      8130.21        1.5895528      0.79444921   
      5300  -6113.8999     -6180.824       66.924116      31780.9        399.80501      8130.735       1.5894501      0.79444921   
      5400  -6115.8004     -6181.6058      65.805347      28667.789      393.12148      8152.6278      1.5851819      0.79444921   
      5500  -6116.3585     -6182.2728      65.914322      24809.96       393.7725       8187.4323      1.5784433      0.79444921   
      5600  -6114.9134     -6181.3403      66.426912      26824.409      396.83472      8226.9458      1.5708622      0.79444921   
      5700  -6115.3309     -6182.7629      67.431936      27157.496      402.83873      8268.4686      1.5629736      0.79444921   
      5800  -6117.1994     -6185.7731      68.573698      23985.479      409.65962      8303.7514      1.5563325      0.79444921   
      5900  -6118.1784     -6185.3515      67.173138      23940.009      401.29267      8320.4149      1.5532156      0.79444921   
      6000  -6119.0046     -6184.4695      65.46491       27106.419      391.08771      8311.0486      1.554966       0.81746133   
      6100  -6119.4985     -6185.2974      65.798877      26945.024      393.08283      8280.9236      1.5606228      0.81746133   
      6200  -6117.1892     -6182.5883      65.399094      27385.295      390.69452      8235.11        1.5693048      0.81746133   
      6300  -6115.1317     -6182.6274      67.495704      26524.157      403.21968      8185.2155      1.5788708      0.81746133   
      6400  -6114.0679     -6182.7822      68.714275      25984.34       410.49943      8144.9279      1.5866805      0.81746133   
      6500  -6116.69       -6183.0279      66.337902      27158.102      396.30297      8121.2902      1.5912986      0.81746133   
      6600  -6117.0184     -6184.214       67.195513      30424.118      401.42634      8117.1139      1.5921173      0.81746133   
      6700  -6117.1068     -6185.1378      68.030932      33537.759      406.41714      8131.4641      1.5893076      0.81746133   
      6800  -6117.9437     -6184.5343      66.590606      32686.347      397.81262      8160.3524      1.5836813      0.81746133   
      6900  -6118.7315     -6185.6076      66.876153      31727.781      399.51848      8198.8621      1.5762429      0.81746133   
      7000  -6119.9118     -6186.2727      66.360899      29444.402      396.44035      8234.8466      1.569355       0.82030192   
      7100  -6121.9054     -6186.1271      64.221684      26262.627      383.66067      8259.0881      1.5647488      0.82030192   
      7200  -6122.0865     -6186.038       63.951496      27728.81       382.04657      8264.6809      1.5636899      0.82030192   
      7300  -6121.4699     -6185.5952      64.125347      27261.374      383.08516      8249.2828      1.5666087      0.82030192   
      7400  -6117.7593     -6187.4595      69.700204      26685.079      416.38938      8218.5527      1.5724664      0.82030192   
      7500  -6116.4007     -6185.1553      68.754579      32092.868      410.74021      8182.79        1.5793388      0.82030192   
      7600  -6115.3428     -6182.4972      67.154479      31071.554      401.1812       8151.5028      1.5854007      0.82030192   
      7700  -6116.4744     -6183.2447      66.770299      34864.184      398.88611      8134.1467      1.5887835      0.82030192   
      7800  -6115.0005     -6183.9322      68.931722      38037.035      411.79846      8132.1013      1.5891831      0.82030192   
      7900  -6116.3445     -6183.9184      67.573868      32696.892      403.68663      8147.3119      1.5862162      0.82030192   
      8000  -6116.681      -6183.6605      66.979463      28230.431      400.13566      8175.207       1.5808038      0.83091019   
      8100  -6119.5105     -6185.5905      66.080001      26412.258      394.76227      8207.6187      1.5745612      0.83091019   
      8200  -6120.2545     -6186.5057      66.251234      26042.562      395.78521      8233.7619      1.5695618      0.83091019   
      8300  -6119.0675     -6185.6026      66.535133      27209.147      397.48122      8248.1474      1.5668243      0.83091019   
      8400  -6118.4819     -6185.0045      66.522599      26886.751      397.40635      8250.8432      1.5663124      0.83091019   
      8500  -6118.6225     -6184.7516      66.129152      27342.439      395.05589      8241.4668      1.5680944      0.83091019   
      8600  -6119.2725     -6185.2819      66.009365      30770.655      394.34029      8223.0008      1.5716158      0.83091019   
      8700  -6117.8605     -6183.0727      65.212171      29775.919      389.57785      8198.4555      1.576321       0.83091019   
      8800  -6118.5966     -6185.3838      66.787241      25806.208      398.98732      8176.486       1.5805565      0.83091019   
      8900  -6119.6936     -6184.8827      65.189122      29003.046      389.44015      8161.4715      1.5834642      0.83091019   
      9000  -6122.4245     -6187.0858      64.661297      26774.01       386.28692      8157.3625      1.5842618      0.83176002   
      9100  -6120.3473     -6185.5361      65.188817      26088.547      389.43833      8159.8692      1.5837751      0.83176002   
      9200  -6119.3855     -6183.7935      64.40801       25190.201      384.77378      8169.6774      1.5818737      0.83176002   
      9300  -6119.5382     -6186.1006      66.562422      29653.7        397.64425      8185.0062      1.5789112      0.83176002   
      9400  -6118.421      -6184.9737      66.552771      31003.634      397.58659      8203.1532      1.5754183      0.83176002   
      9500  -6118.9629     -6186.1501      67.187136      27029.068      401.3763       8221.924       1.5718216      0.83176002   
      9600  -6118.5999     -6184.4657      65.86575       27306.52       393.48233      8236.1044      1.5691154      0.83176002   
      9700  -6119.4941     -6184.0876      64.593448      29538.533      385.88159      8244.3819      1.5675399      0.83176002   
      9800  -6118.8967     -6186.3606      67.463958      25493.138      403.03004      8241.6445      1.5680606      0.83176002   
      9900  -6119.5769     -6185.989       66.412059      22909.727      396.74598      8225.7963      1.5710817      0.83176002   
     10000  -6116.2855     -6185.7452      69.459772      24285.455      414.95304      8198.874       1.5762406      0.82783104   
     10100  -6117.8183     -6183.8088      65.990558      30127.564      394.22793      8169.2914      1.5819484      0.82783104   
     10200  -6117.7        -6186.3531      68.653104      31026.373      410.134        8144.0615      1.5868493      0.82783104   
     10300  -6116.9555     -6187.1494      70.193948      30168.736      419.33901      8128.5387      1.5898796      0.82783104   
     10400  -6118.1944     -6185.1176      66.9232        31559.071      399.79954      8124.4894      1.590672       0.82783104   
     10500  -6116.9301     -6184.8484      67.918295      28245.832      405.74424      8135.7859      1.5884634      0.82783104   
     10600  -6120.3161     -6185.8467      65.530597      30676.788      391.48013      8159.4457      1.5838573      0.82783104   
     10700  -6119.3147     -6185.2042      65.88945       30930.447      393.62391      8190.98        1.5777597      0.82783104   
     10800  -6116.8359     -6182.4942      65.658274      31078.725      392.24287      8221.7862      1.571848       0.82783104   
     10900  -6118.9568     -6183.6466      64.689797      25598.93       386.45718      8250.8255      1.5663157      0.82783104   
     11000  -6116.4299     -6183.0486      66.618706      26145.701      397.98049      8273.0346      1.5621109      0.86051493   
     11100  -6116.3461     -6182.5925      66.246427      24981.552      395.7565       8284.0711      1.5600298      0.86051493   
     11200  -6116.9021     -6184.7378      67.835739      20859.014      405.25106      8281.6546      1.560485       0.86051493   
     11300  -6117.8459     -6183.8475      66.001618      24669.243      394.29401      8262.8226      1.5640416      0.86051493   
     11400  -6119.1157     -6181.8749      62.759171      28360.992      374.92361      8230.3804      1.5702066      0.86051493   
     11500  -6118.0843     -6185.8356      67.751327      30552.222      404.74678      8191.4013      1.5776785      0.86051493   
     11600  -6117.0517     -6183.8994      66.847669      31038.126      399.34832      8156.517       1.584426       0.86051493   
     11700  -6116.778      -6184.0257      67.247698      35548.253      401.7381       8134.1298      1.5887868      0.86051493   
     11800  -6118.371      -6182.934       64.563061      35384.008      385.70006      8129.3211      1.5897266      0.86051493   
     11900  -6120.0156     -6185.0435      65.027926      23296.747      388.47717      8143.3841      1.5869812      0.86051493   
     12000  -6119.0752     -6185.7023      66.627104      24831.424      398.03067      8168.6922      1.5820645      0.82688457   
     12100  -6120.001      -6183.6616      63.660537      25923.558      380.30838      8198.5875      1.5762956      0.82688457   
     12200  -6120.0293     -6187.258       67.228741      25261.94       401.62484      8227.9566      1.5706692      0.82688457   
     12300  -6120.5207     -6187.0245      66.50384       21883.142      397.29428      8248.4125      1.566774       0.82688457   
     12400  -6118.9726     -6183.9294      64.956826      24922.877      388.05241      8253.0298      1.5658974      0.82688457   
     12500  -6117.0711     -6184.9643      67.893247      26907.847      405.59461      8245.0686      1.5674094      0.82688457   
     12600  -6117.7671     -6185.5729      67.805802      23722.06       405.07221      8229.0194      1.5704663      0.82688457   
     12700  -6117.3397     -6183.2588      65.919157      27653.673      393.80138      8208.5103      1.5743902      0.82688457   
     12800  -6117.6715     -6183.834       66.162527      26247.461      395.25528      8189.0455      1.5781324      0.82688457   
     12900  -6116.4462     -6184.0449      67.598713      27520.38       403.83506      8170.3142      1.5817504      0.82688457   
     13000  -6119.1942     -6184.8452      65.651051      30505.737      392.19972      8159.2748      1.5838905      0.80923872   
     13100  -6119.133      -6188.3411      69.208058      27438.636      413.44929      8159.8624      1.5837764      0.80923872   
     13200  -6119.8889     -6186.0127      66.123848      27396.312      395.02421      8169.8539      1.5818395      0.80923872   
     13300  -6119.6856     -6186.8738      67.188211      25937.736      401.38272      8189.4433      1.5780557      0.80923872   
     13400  -6121.2058     -6186.0169      64.811091      24206.128      387.18179      8213.7733      1.5733814      0.80923872   
     13500  -6122.9892     -6187.2361      64.246855      28660.682      383.81104      8232.2411      1.5698517      0.80923872   
     13600  -6121.1314     -6186.3447      65.213289      27577.128      389.58452      8238.8505      1.5685924      0.80923872   
     13700  -6121.6962     -6186.2292      64.533041      28563.188      385.52072      8235.201       1.5692875      0.80923872   
     13800  -6123.1577     -6188.2079      65.050219      25342.91       388.61034      8222.5909      1.5716941      0.80923872   
     13900  -6120.4164     -6185.6337      65.217349      28784.178      389.60878      8202.9146      1.5754641      0.80923872   
     14000  -6120.2923     -6184.7483      64.455992      28490.203      385.06043      8180.8257      1.579718       0.88136418   
     14100  -6118.8171     -6185.1364      66.319343      32553.553      396.1921       8159.7613      1.5837961      0.88136418   
     14200  -6119.245      -6184.9788      65.73382       30419.778      392.69418      8153.5373      1.5850051      0.88136418   
     14300  -6119.2042     -6186.0652      66.86102       29634.822      399.42808      8164.2063      1.5829338      0.88136418   
     14400  -6120.9392     -6186.5961      65.656939      30509.01       392.23489      8185.8484      1.5787487      0.88136418   
     14500  -6121.9217     -6185.2277      63.305982      30391.48       378.19026      8211.7437      1.5737703      0.88136418   
     14600  -6121.4142     -6187.3413      65.927045      24596.859      393.84851      8237.1329      1.5689194      0.88136418   
     14700  -6119.5301     -6184.7116      65.181476      23520.338      389.39447      8255.1294      1.5654991      0.88136418   
     14800  -6118.7394     -6184.1934      65.453993      25892.909      391.02249      8261.594       1.5642741      0.88136418   
     14900  -6116.9013     -6184.6123      67.710958      28898.529      404.50561      8263.1163      1.563986       0.88136418   
     15000  -6115.7932     -6181.3311      65.53796       28430.085      391.52411      8260.684       1.5644465      0.86603451   
     15100  -6116.8545     -6185.7987      68.94421       27692.072      411.87307      8253.3486      1.5658369      0.86603451   
     15200  -6117.1133     -6181.1999      64.086611      34272.103      382.85374      8240.3128      1.568314       0.86603451   
     15300  -6117.8613     -6185.343       67.48165       33275.711      403.13572      8228.4498      1.570575       0.86603451   
     15400  -6118.3921     -6185.3274      66.935284      34060.34       399.87173      8218.1423      1.5725449      0.86603451   
     15500  -6119.3781     -6185.0219      65.643803      28871.911      392.15642      8207.0279      1.5746745      0.86603451   
     15600  -6117.9006     -6185.0241      67.123502      24126.258      400.99615      8197.9433      1.5764195      0.86603451   
     15700  -6118.2225     -6184.976       66.753421      25487.498      398.78528      8192.1902      1.5775266      0.86603451   
     15800  -6117.1834     -6182.4949      65.311575      27470.124      390.17169      8189.8088      1.5779853      0.86603451   
     15900  -6119.7774     -6184.0211      64.243641      28517.131      383.79184      8194.2618      1.5771278      0.86603451   
     16000  -6117.4012     -6184.804       67.402825      28788.686      402.66482      8202.1732      1.5756065      0.78398      
     16100  -6117.1053     -6183.9819      66.87659       26761.462      399.52109      8213.9852      1.5733408      0.78398      
     16200  -6116.6296     -6184.3183      67.688664      30016.801      404.37243      8229.646       1.5703467      0.78398      
     16300  -6118.5982     -6184.3162      65.717955      29544.499      392.5994       8244.721       1.5674755      0.78398      
     16400  -6121.68       -6185.8761      64.196152      29240.61       383.50814      8256.6498      1.5652109      0.78398      
     16500  -6124.3962     -6187.2985      62.902273      25295.439      375.7785       8255.616       1.5654068      0.78398      
     16600  -6121.4065     -6185.8584      64.451988      25941.267      385.03651      8240.6882      1.5682425      0.78398      
     16700  -6119.3852     -6186.347       66.961806      27642.295      400.03018      8218.9301      1.5723942      0.78398      
     16800  -6117.9179     -6183.2419      65.324012      31246.683      390.24598      8193.6675      1.5772422      0.78398      
     16900  -6117.7081     -6183.5497      65.841573      27718.28       393.3379       8176.0095      1.5806486      0.78398      
     17000  -6119.3112     -6186.3953      67.084118      24239.482      400.76087      8170.7101      1.5816738      0.85984171   
     17100  -6121.1777     -6186.6301      65.452337      25638.848      391.0126       8172.9981      1.581231       0.85984171   
     17200  -6121.8038     -6185.0169      63.21312       27773.748      377.63551      8179.302       1.5800123      0.85984171   
     17300  -6122.5855     -6188.5718      65.986299      27785.127      394.20249      8188.8857      1.5781632      0.85984171   
     17400  -6124.2415     -6187.8774      63.635945      29283.941      380.16147      8196.086       1.5767768      0.85984171   
     17500  -6123.4764     -6185.8882      62.411726      29168.176      372.84797      8200.1202      1.576001       0.85984171   
     17600  -6120.9971     -6186.1561      65.15905       27550.887      389.2605       8203.581       1.5753362      0.85984171   
     17700  -6121.9544     -6186.4281      64.473637      28245.679      385.16584      8204.7445      1.5751128      0.85984171   
     17800  -6120.968      -6186.4401      65.472161      32390.494      391.13103      8202.9237      1.5754624      0.85984171   
     17900  -6122.0901     -6186.513       64.422822      29039.047      384.86227      8199.5207      1.5761163      0.85984171   
     18000  -6119.9358     -6187.6787      67.74283       32006.547      404.69601      8194.6214      1.5770586      0.84497249   
     18100  -6119.8148     -6185.9008      66.08597       33791.392      394.79792      8190.9503      1.5777654      0.84497249   
     18200  -6119.7819     -6185.4085      65.626583      27166.686      392.05355      8190.4632      1.5778592      0.84497249   
     18300  -6121.2208     -6185.7963      64.575532      22009.206      385.77456      8192.5032      1.5774663      0.84497249   
     18400  -6120.7231     -6185.5072      64.784108      25938.275      387.02059      8193.4122      1.5772913      0.84497249   
     18500  -6118.7775     -6185.6066      66.829033      31964.473      399.23699      8196.9827      1.5766043      0.84497249   
     18600  -6118.1822     -6184.0482      65.865971      32024.799      393.48365      8204.4186      1.5751754      0.84497249   
     18700  -6117.9977     -6184.4174      66.419713      27136.327      396.79171      8215.4474      1.5730608      0.84497249   
     18800  -6115.0359     -6183.9732      68.937286      23372.197      411.8317       8224.2667      1.5713739      0.84497249   
     18900  -6115.8065     -6181.3969      65.590369      25983.998      391.8372       8229.9392      1.5702908      0.84497249   
     19000  -6116.657      -6182.8558      66.198774      27147.405      395.47182      8235.4848      1.5692334      0.84952443   
     19100  -6116.7519     -6184.6034      67.851505      33577.377      405.34524      8237.0897      1.5689277      0.84952443   
     19200  -6117.987      -6183.9743      65.98739       29436.134      394.20901      8236.9302      1.568958       0.84952443   
     19300  -6118.0353     -6183.2174      65.182051      28513.37       389.39791      8232.5712      1.5697888      0.84952443   
     19400  -6118.015      -6184.4987      66.483671      29985.174      397.17379      8222.1816      1.5717724      0.84952443   
     19500  -6116.7408     -6184.6942      67.953456      31089.971      405.9543       8209.7736      1.5741479      0.84952443   
     19600  -6119.0122     -6186.7417      67.729566      31814.612      404.61678      8198.8635      1.5762426      0.84952443   
     19700  -6117.7796     -6183.9302      66.150529      30587.003      395.1836       8191.1654      1.577724       0.84952443   
     19800  -6119.3862     -6187.1212      67.735031      29085.133      404.64942      8188.7635      1.5781867      0.84952443   
     19900  -6119.1806     -6184.0923      64.911707      30774.835      387.78287      8189.2126      1.5781002      0.84952443   
     20000  -6118.6346     -6185.7973      67.162698      30716.028      401.2303       8193.0967      1.577352       0.87844966   
     20033  -6117.7991     -6183.3513      65.552119      27366.341      391.60869      8195.7996      1.5768319      0.87844966   
Loop time of 86.3202 on 1 procs for 20000 steps with 1296 atoms

Performance: 10.009 ns/day, 2.398 hours/ns, 231.695 timesteps/s, 300.277 katom-step/s
99.8% CPU use with 1 MPI tasks x 1 OpenMP threads

MPI task timing breakdown:
Section |  min time  |  avg time  |  max time  |%varavg| %total
---------------------------------------------------------------
Pair    | 65.907     | 65.907     | 65.907     |   0.0 | 76.35
Neigh   | 0.87867    | 0.87867    | 0.87867    |   0.0 |  1.02
Comm    | 0.88605    | 0.88605    | 0.88605    |   0.0 |  1.03
Output  | 0.025757   | 0.025757   | 0.025757   |   0.0 |  0.03
Modify  | 18.172     | 18.172     | 18.172     |   0.0 | 21.05
Other   |            | 0.4511     |            |       |  0.52

Nlocal:           1296 ave        1296 max        1296 min
Histogram: 1 0 0 0 0 0 0 0 0 0
Nghost:           4438 ave        4438 max        4438 min
Histogram: 1 0 0 0 0 0 0 0 0 0
Neighs:              0 ave           0 max           0 min
Histogram: 1 0 0 0 0 0 0 0 0 0
FullNghs:       234798 ave      234798 max      234798 min
Histogram: 1 0 0 0 0 0 0 0 0 0

Total # of neighbors = 234798
Ave neighs/atom = 181.1713
Neighbor list builds = 1998
Dangerous builds = 1993
Setting up Verlet run ...
  Unit style    : metal
  Current step  : 20033
  Time step     : 0.0005
WARNING: Fix with atom-based arrays not compatible with Kokkos sorting on device, switching to classic host sorting (src/KOKKOS/atom_kokkos.cpp:216)
Per MPI rank memory allocation (min/avg/max) = 1138 | 1138 | 1138 Mbytes
   Step         TotEng         PotEng         KinEng         Press           Temp          Volume        Density     c_max_pace_gamma
     20033  -6117.2315     -6183.3513      66.119796      27440.324      395            8195.7996      1.5768319      0.87844966   
     20100  -6118.6068     -6185.4889      66.882122      26478.223      399.55414      8197.204       1.5765617      0.87844966   
     20200  -6119.6699     -6183.2207      63.55081       24742.791      379.65287      8203.2589      1.575398       0.87844966   
     20300  -6118.7409     -6185.458       66.717149      24610.02       398.56859      8212.4275      1.5736392      0.87844966   
     20400  -6118.7483     -6183.5142      64.76591       25476.543      386.91188      8223.1287      1.5715913      0.87844966   
     20500  -6118.3459     -6185.9406      67.594694      27495.437      403.81105      8234.7481      1.5693738      0.87844966   
     20600  -6118.7708     -6186.3719      67.601024      27837.652      403.84887      8245.2951      1.5673663      0.87844966   
     20700  -6119.8874     -6183.7029      63.815407      23539.228      381.23357      8250.9789      1.5662866      0.87844966   
     20800  -6120.0503     -6186.1324      66.082107      27275.161      394.77485      8251.2109      1.5662426      0.87844966   
     20900  -6118.165      -6187.3896      69.224652      29919.992      413.54843      8244.3844      1.5675395      0.87844966   
     21000  -6118.6027     -6183.4666      64.863932      28290.973      387.49746      8235.5449      1.569222       0.89811264   
     21100  -6118.6682     -6184.128       65.45982       28976.349      391.0573       8231.4906      1.5699949      0.89811264   
     21200  -6122.1806     -6187.7199      65.539292      25552.9        391.53207      8227.3507      1.5707849      0.89811264   
     21300  -6119.03       -6185.2924      66.262362      28526.794      395.85169      8218.0172      1.5725688      0.89811264   
     21400  -6118.558      -6184.608       66.049946      30409.885      394.58272      8209.5167      1.5741972      0.89811264   
     21500  -6118.8428     -6185.6415      66.798674      28276.547      399.05562      8207.1278      1.5746554      0.89811264   
     21600  -6118.2588     -6185.9797      67.720884      29369.94       404.56491      8211.052       1.5739028      0.89811264   
     21700  -6118.3113     -6184.472       66.160774      32502.632      395.2448       8219.3143      1.5723207      0.89811264   
     21800  -6120.4394     -6184.5084      64.069         31211.428      382.74854      8233.867       1.5695417      0.89811264   
     21900  -6121.4399     -6187.5751      66.135201      28556.932      395.09203      8246.443       1.5671481      0.89811264   
     22000  -6120.1013     -6185.5007      65.399367      29823.655      390.69615      8251.4254      1.5662019      0.8112771    
     22100  -6120.4948     -6186.3075      65.812644      27581.943      393.16507      8251.3718      1.566212       0.8112771    
     22200  -6120.1106     -6185.9626      65.852014      26657.02       393.40027      8244.7788      1.5674645      0.8112771    
     22300  -6118.5244     -6184.9717      66.447354      28883.66       396.95684      8232.0077      1.5698962      0.8112771    
     22400  -6117.5299     -6183.2159      65.686042      28062.769      392.40875      8220.4745      1.5720988      0.8112771    
     22500  -6115.5962     -6182.2426      66.646358      28324.227      398.14568      8214.8354      1.573178       0.8112771    
     22600  -6114.2219     -6180.813       66.591033      28840.694      397.81517      8215.6307      1.5730257      0.8112771    
     22700  -6113.1989     -6181.4376      68.238675      30760.718      407.65819      8229.8592      1.5703061      0.8112771    
     22800  -6111.0643     -6180.8143      69.75001       32725.07       416.68692      8255.872       1.5653583      0.8112771    
     22900  -6109.7041     -6179.4638      69.759706      26718.939      416.74484      8288.6871      1.559161       0.8112771    
     23000  -6110.8642     -6181.2494      70.385208      29945.386      420.4816       8327.5435      1.551886       0.78489271   
     23100  -6110.9228     -6181.4118      70.488971      25017.676      421.10148      8364.7784      1.5449779      0.78489271   
     23200  -6113.2503     -6180.7484      67.498188      23482.52       403.23452      8386.5681      1.5409638      0.78489271   
     23300  -6113.318      -6182.6153      69.297221      24903.47       413.98196      8387.8376      1.5407306      0.78489271   
     23400  -6114.0292     -6181.8256      67.79645       27399.203      405.01634      8365.4916      1.5448462      0.78489271   
     23500  -6113.1846     -6184.0855      70.900909      28911.759      423.56239      8325.3044      1.5523033      0.78489271   
     23600  -6112.1009     -6182.6533      70.552437      33575.068      421.48062      8272.966       1.5621239      0.78489271   
     23700  -6112.2227     -6182.1174      69.894729      29106.964      417.55147      8222.9093      1.5716333      0.78489271   
     23800  -6113.532      -6182.2729      68.740917      28863.392      410.65859      8186.7116      1.5785823      0.78489271   
     23900  -6114.7977     -6182.6579      67.860181      30954.902      405.39707      8168.5548      1.5820911      0.78489271   
     24000  -6115.3589     -6183.3547      67.995801      28940.313      406.20726      8168.7005      1.5820629      0.86985377   
     24100  -6114.4189     -6183.0359      68.616963      33994.208      409.91809      8183.6174      1.5791791      0.86985377   
     24200  -6114.3873     -6183.8168      69.42952       26704.017      414.77231      8212.8658      1.5735552      0.86985377   
     24300  -6115.9334     -6183.049       67.115653      25069.741      400.94926      8246.7785      1.5670844      0.86985377   
     24400  -6115.766      -6181.3448      65.578818      27029.702      391.7682       8275.8346      1.5615824      0.86985377   
     24500  -6115.1809     -6184.1026      68.921661      24264.516      411.73836      8296.9738      1.5576038      0.86985377   
     24600  -6115.5058     -6183.8374      68.331611      21647.157      408.2134       8305.8814      1.5559334      0.86985377   
     24700  -6114.9841     -6181.0683      66.084179      22695.487      394.78722      8300.0902      1.557019       0.86985377   
     24800  -6115.3184     -6182.4295      67.111018      24659.134      400.92157      8282.599       1.5603071      0.86985377   
     24900  -6117.5232     -6185.0003      67.477151      27779.604      403.10885      8258.0014      1.5649547      0.86985377   
     25000  -6117.0905     -6184.1911      67.100634      24868.55       400.85953      8228.196       1.5706235      0.78163881   
     25100  -6114.2929     -6181.8038      67.510866      29185.18       403.31026      8201.3925      1.5757565      0.78163881   
     25200  -6113.358      -6181.9571      68.599148      30921.003      409.81166      8185.5284      1.5788105      0.78163881   
     25300  -6114.4635     -6182.0318      67.568234      32594.35       403.65298      8187.0606      1.578515       0.78163881   
     25400  -6116.5684     -6184.1825      67.61418       28371.494      403.92746      8202.3378      1.5755749      0.78163881   
     25500  -6116.5068     -6183.9674      67.460571      30436.773      403.0098       8222.6591      1.5716811      0.78163881   
     25600  -6114.8757     -6180.3966      65.520946      30363.467      391.42247      8245.7655      1.5672769      0.78163881   
     25700  -6115.2968     -6181.03        65.733173      25273.363      392.69031      8268.1031      1.5630427      0.78163881   
     25800  -6116.9313     -6184.1287      67.197328      25949.261      401.43718      8284.334       1.5599803      0.78163881   
     25900  -6117.6914     -6185.8679      68.176522      23662.624      407.2869       8291.9992      1.5585382      0.78163881   
     26000  -6118.4935     -6184.2167      65.723178      21822.124      392.6306       8289.249       1.5590553      0.82593738   
     26100  -6119.6632     -6184.6112      64.948047      24569.686      387.99997      8274.2287      1.5618855      0.82593738   
     26200  -6117.6676     -6184.5277      66.860197      24678.608      399.42316      8247.2599      1.5669929      0.82593738   
     26300  -6115.4466     -6184.0706      68.623931      32955.807      409.95972      8215.0109      1.5731443      0.82593738   
     26400  -6114.6295     -6182.4427      67.813245      28921.975      405.11667      8187.8051      1.5783715      0.82593738   
     26500  -6117.0613     -6183.1784      66.117112      33517.998      394.98396      8172.7028      1.5812881      0.82593738   
     26600  -6117.6653     -6185.1559      67.490608      30255.665      403.18924      8171.1476      1.5815891      0.82593738   
     26700  -6117.2512     -6184.2116      66.960325      26343.211      400.02133      8183.2327      1.5792534      0.82593738   
     26800  -6117.8849     -6184.1663      66.281429      26991.799      395.9656       8204.9542      1.5750725      0.82593738   
     26900  -6118.3287     -6182.0825      63.753774      27934.863      380.86537      8231.0703      1.570075       0.82593738   
     27000  -6119.7172     -6186.3442      66.627059      27006.619      398.0304       8257.009       1.5651428      0.83398972   
     27100  -6121.3176     -6187.9674      66.649788      30930.358      398.16618      8277.3438      1.5612977      0.83398972   
     27200  -6122.0128     -6188.5235      66.510736      30111.631      397.33548      8286.6613      1.5595422      0.83398972   
     27300  -6121.1675     -6188.0508      66.883322      28562.4        399.56131      8278.3882      1.5611007      0.83398972   
     27400  -6117.8836     -6184.2441      66.360484      28747.81       396.43787      8251.3409      1.5662179      0.83398972   
     27500  -6116.1964     -6183.7586      67.562141      28997.571      403.61658      8220.1662      1.5721577      0.83398972   
     27600  -6115.1513     -6181.5016      66.350309      29528.644      396.37709      8192.3756      1.5774909      0.83398972   
     27700  -6116.4615     -6184.4107      67.949248      25557.527      405.92916      8174.6408      1.5809132      0.83398972   
     27800  -6114.9564     -6182.1587      67.202343      27323.778      401.46715      8168.1769      1.5821643      0.83398972   
     27900  -6116.3035     -6184.8729      68.569403      27554.828      409.63396      8177.2206      1.5804145      0.83398972   
     28000  -6116.841      -6184.6347      67.793772      27443.139      405.00034      8198.1926      1.5763716      0.81161303   
     28100  -6119.245      -6187.3495      68.104437      31238.576      406.85626      8227.7379      1.5707109      0.81161303   
     28200  -6120.4088     -6186.1634      65.754544      30794.907      392.81799      8254.0251      1.5657086      0.81161303   
     28300  -6118.9639     -6185.4062      66.442304      31728.688      396.92666      8269.7151      1.562738       0.81161303   
     28400  -6118.5161     -6186.1545      67.638352      29449.718      404.07186      8272.7613      1.5621625      0.81161303   
     28500  -6118.9895     -6186.3128      67.323279      25330.672      402.18962      8261.2634      1.5643368      0.81161303   
     28600  -6119.3597     -6186.6527      67.292952      29642.615      402.00844      8238.6816      1.5686245      0.81161303   
     28700  -6117.5662     -6183.3165      65.750368      29214.924      392.79304      8211.987       1.5737236      0.81161303   
     28800  -6118.6886     -6184.2848      65.596159      27837.022      391.87179      8190.1197      1.5779254      0.81161303   
     28900  -6119.5606     -6187.6545      68.093972      28032.666      406.79374      8175.5445      1.5807385      0.81161303   
     29000  -6122.6421     -6185.3309      62.688755      30713.551      374.50295      8169.3396      1.5819391      0.78524113   
     29100  -6120.3566     -6184.7918      64.435116      31839.676      384.93572      8169.2968      1.5819474      0.78524113   
     29200  -6119.4855     -6185.9272      66.441735      27216.765      396.92327      8178.8569      1.5800983      0.78524113   
     29300  -6119.8994     -6183.8042      63.90475       26565.241      381.76731      8194.069       1.5771649      0.78524113   
     29400  -6118.463      -6185.2853      66.822267      25092.435      399.19657      8213.628       1.5734092      0.78524113   
     29500  -6119.0918     -6183.9471      64.855318      26607.847      387.446        8234.8824      1.5693482      0.78524113   
     29600  -6118.4432     -6185.0186      66.575337      25930.992      397.7214       8253.1664      1.5658715      0.78524113   
     29700  -6119.8939     -6186.2557      66.361832      26820.686      396.44593      8265.6318      1.56351        0.78524113   
     29800  -6119.4124     -6185.9065      66.49413       29368.172      397.23628      8266.6844      1.5633109      0.78524113   
     29900  -6119.7386     -6184.7816      65.043008      24582.063      388.56727      8256.0482      1.5653249      0.78524113   
     30000  -6116.3461     -6182.8194      66.473341      26705.292      397.11208      8233.9595      1.5695241      0.84452867   
     30100  -6118.0443     -6183.8636      65.819341      28149.528      393.20508      8206.0525      1.5748617      0.84452867   
     30200  -6117.6036     -6184.8823      67.278758      24763.124      401.92365      8178.4916      1.5801689      0.84452867   
     30300  -6116.8985     -6184.9393      68.040886      29885.242      406.47661      8159.1582      1.5839131      0.84452867   
     30400  -6118.1288     -6183.4095      65.280725      35388.334      389.98739      8149.3979      1.5858102      0.84452867   
     30500  -6116.4727     -6185.3008      68.828075      32656.564      411.17928      8154.2895      1.5848589      0.84452867   
     30600  -6119.9523     -6184.822       64.869626      32179.806      387.53148      8174.5796      1.5809251      0.84452867   
     30700  -6118.9858     -6184.4817      65.495902      30124.72       391.27286      8198.7582      1.5762628      0.84452867   
     30800  -6116.0876     -6182.7948      66.707212      27842.636      398.50923      8224.0747      1.5714106      0.84452867   
     30900  -6118.3168     -6183.8468      65.529953      26232.647      391.47628      8247.9918      1.5668539      0.84452867   
     31000  -6115.8843     -6181.3644      65.480028      25907.96       391.17803      8260.9227      1.5644013      0.85327114   
     31100  -6115.2971     -6184.2177      68.920525      25694.407      411.73157      8265.6597      1.5635047      0.85327114   
     31200  -6116.3025     -6182.5731      66.270545      24480.456      395.90058      8261.3967      1.5643115      0.85327114   
     31300  -6117.4464     -6182.357       64.910575      25106.139      387.77611      8246.73        1.5670936      0.85327114   
     31400  -6118.7629     -6185.0961      66.333286      26746.906      396.27539      8223.4246      1.5715348      0.85327114   
     31500  -6118.2371     -6184.0524      65.815332      26774.445      393.18113      8195.6673      1.5768573      0.85327114   
     31600  -6117.318      -6184.8075      67.489506      29172.277      403.18266      8169.7815      1.5818536      0.85327114   
     31700  -6117.002      -6181.7453      64.743243      31360.443      386.77647      8150.8076      1.5855359      0.85327114   
     31800  -6118.5805     -6184.5888      66.008268      28900.44       394.33374      8146.3585      1.5864018      0.85327114   
     31900  -6120.2288     -6187.0689      66.840164      31105.565      399.30349      8154.2347      1.5848695      0.85327114   
     32000  -6119.0642     -6186.0262      66.962         31603.036      400.03134      8168.7194      1.5820592      0.88192146   
     32100  -6119.8355     -6185.2071      65.371651      25402.403      390.53058      8187.6006      1.5784109      0.88192146   
     32200  -6119.7391     -6184.8018      65.06277       21837.58       388.68533      8207.6716      1.574551       0.88192146   
     32300  -6120.3039     -6186.9816      66.677736      24908.222      398.33314      8223.7131      1.5714797      0.88192146   
     32400  -6118.6918     -6183.8109      65.119067      27034.944      389.02164      8231.7774      1.5699402      0.88192146   
     32500  -6117.1884     -6185.2022      68.013745      24110.703      406.31446      8233.3543      1.5696395      0.88192146   
     32600  -6118.0787     -6185.211       67.132275      26079.115      401.04856      8232.0655      1.5698852      0.88192146   
     32700  -6117.8739     -6182.9537      65.079819      23007.477      388.78717      8227.0288      1.5708463      0.88192146   
     32800  -6118.115      -6183.0243      64.90925       22146.349      387.7682       8221.2655      1.5719475      0.88192146   
     32900  -6116.4998     -6185.6675      69.167701      25434.701      413.2082       8212.0084      1.5737195      0.88192146   
     33000  -6119.5269     -6184.982       65.455079      27629.06       391.02898      8203.4867      1.5753543      0.84467795   
     33100  -6119.3717     -6185.4327      66.061018      29317.167      394.64886      8194.8183      1.5770207      0.84467795   
     33200  -6119.3902     -6183.3125      63.922269      30104.78       381.87197      8187.5477      1.5784211      0.84467795   
     33300  -6119.1516     -6184.7951      65.643486      29850.085      392.15452      8184.6566      1.5789786      0.84467795   
     33400  -6120.4819     -6185.7347      65.252731      25841.908      389.82015      8184.3917      1.5790297      0.84467795   
     33500  -6121.9869     -6185.7074      63.720508      26039.18       380.66664      8184.423       1.5790237      0.84467795   
     33600  -6120.0947     -6184.579       64.484226      27604.968      385.2291       8185.2548      1.5788632      0.84467795   
     33700  -6121.1857     -6186.4396      65.253923      29017.146      389.82727      8185.7537      1.578767       0.84467795   
     33800  -6122.738      -6187.7506      65.012507      26876.339      388.38505      8185.3286      1.578849       0.84467795   
     33900  -6120.7718     -6184.6152      63.843416      24412.394      381.40089      8182.3313      1.5794274      0.84467795   
     34000  -6120.6278     -6187.191       66.56318       28576.269      397.64878      8179.8568      1.5799052      0.80798659   
     34100  -6119.2886     -6186.54        67.25138       27791.174      401.76009      8180.0887      1.5798604      0.80798659   
     34200  -6120.4288     -6186.5386      66.109757      28823.511      394.94003      8185.9843      1.5787225      0.80798659   
     34300  -6119.8113     -6184.6027      64.791482      29079.677      387.06465      8196.1052      1.5767731      0.80798659   
     34400  -6121.1534     -6187.4484      66.295018      31321.202      396.04678      8208.495       1.5743931      0.80798659   
     34500  -6122.2859     -6187.2463      64.960413      30922.379      388.07384      8217.3658      1.5726935      0.80798659   
     34600  -6121.5013     -6187.5565      66.055173      30199.775      394.61395      8220.3448      1.5721236      0.80798659   
     34700  -6119.2042     -6183.6749      64.470738      32220.964      385.14852      8216.1352      1.5729291      0.80798659   
     34800  -6118.1492     -6184.5669      66.417756      33970.195      396.78002      8210.7796      1.573955       0.80798659   
     34900  -6116.8948     -6184.3551      67.460303      30087.628      403.00819      8208.3801      1.5744151      0.80798659   
     35000  -6115.6953     -6182.5715      66.876158      28559.049      399.51851      8210.9764      1.5739173      0.82192882   
     35100  -6116.8816     -6183.6092      66.727589      27813.113      398.63096      8220.6119      1.5720725      0.82192882   
     35200  -6117.4895     -6184.7012      67.211657      23729.167      401.52279      8234.9431      1.5693366      0.82192882   
     35300  -6118.6444     -6185.8715      67.22707       25534.098      401.61486      8251.1679      1.5662507      0.82192882   
     35400  -6119.2687     -6186.9105      67.641772      25069.55       404.09229      8263.1964      1.5639708      0.82192882   
     35500  -6120.2816     -6185.2095      64.92791       25926.022      387.87967      8267.9861      1.5630648      0.82192882   
     35600  -6118.9168     -6184.1037      65.186874      28772.051      389.42672      8261.327       1.5643247      0.82192882   
     35700  -6118.634      -6183.2318      64.597764      29290.942      385.90737      8243.6379      1.5676814      0.82192882   
     35800  -6117.1015     -6184.1781      67.0766        28200.063      400.71595      8221.6305      1.5718777      0.82192882   
     35900  -6119.1524     -6183.8592      64.70685       26829.314      386.55906      8200.8268      1.5758652      0.82192882   
     36000  -6116.8335     -6183.3777      66.544257      30190.406      397.53574      8181.726       1.5795442      0.8190224    
     36100  -6116.0184     -6182.6941      66.675652      30229.193      398.32069      8170.9954      1.5816185      0.8190224    
     36200  -6115.7011     -6182.4094      66.708242      32004.39       398.51538      8176.2705      1.5805981      0.8190224    
     36300  -6118.0208     -6185.5696      67.54879       27295.731      403.53682      8195.5882      1.5768725      0.8190224    
     36400  -6121.3487     -6186.9352      65.586566      23069.717      391.81448      8224.5686      1.5713162      0.8190224    
     36500  -6124.4814     -6188.9591      64.477783      22510.018      385.19061      8253.7622      1.5657584      0.8190224    
     36600  -6122.1787     -6186.8222      64.64347       23833.146      386.18042      8273.8971      1.5619481      0.8190224    
     36700  -6120.5642     -6185.251       64.686846      25165.278      386.43955      8284.6656      1.5599179      0.8190224    
     36800  -6118.7987     -6183.8788      65.080117      25510.896      388.78895      8282.3716      1.5603499      0.8190224    
     36900  -6118.8867     -6185.9292      67.042489      26367.365      400.51217      8269.6142      1.562757       0.8190224    
     37000  -6119.8208     -6183.7596      63.938845      27829.068      381.97099      8247.5745      1.5669331      0.86952081   
     37100  -6120.9657     -6187.8647      66.899044      28898.265      399.65524      8223.3028      1.5715581      0.86952081   
     37200  -6121.2483     -6185.5941      64.345893      30514.793      384.40269      8199.291       1.5761604      0.86952081   
     37300  -6121.9986     -6187.5174      65.518792      31154.066      391.4096       8180.2142      1.5798361      0.86952081   
     37400  -6122.9441     -6186.3664      63.422322      32658.872      378.88528      8169.462       1.5819154      0.86952081   
     37500  -6122.5773     -6189.3158      66.738475      30027.525      398.69599      8169.6494      1.5818791      0.86952081   
     37600  -6120.649      -6184.2863      63.637211      30694.726      380.16902      8178.3409      1.580198       0.86952081   
     37700  -6122.0735     -6187.769       65.695487      25794.884      392.46518      8197.1199      1.5765779      0.86952081   
     37800  -6121.5657     -6185.5294      63.963726      26744.61       382.11963      8219.7205      1.572243       0.86952081   
     37900  -6122.8986     -6189.136       66.237337      30912.126      395.70219      8242.8785      1.5678258      0.86952081   
     38000  -6120.9655     -6185.3838      64.418265      29385.702      384.83505      8258.9747      1.5647702      0.83972622   
     38100  -6120.7521     -6186.125       65.372919      32958.142      390.53816      8267.9967      1.5630628      0.83972622   
     38200  -6120.4425     -6185.69        65.247538      31199.43       389.78913      8270.2199      1.5626426      0.83972622   
     38300  -6121.5896     -6188.1123      66.522783      25835.937      397.40745      8263.6293      1.5638889      0.83972622   
     38400  -6120.638      -6184.515       63.876958      26908.223      381.60128      8248.6996      1.5667194      0.83972622   
     38500  -6118.1558     -6183.8781      65.722271      28224.335      392.62519      8231.8288      1.5699304      0.83972622   
     38600  -6117.5603     -6184.7669      67.206672      26679.401      401.493        8219.4952      1.5722861      0.83972622   
     38700  -6117.2224     -6183.3431      66.1207        30894.087      395.0054       8212.8709      1.5735543      0.83972622   
     38800  -6113.8354     -6183.1274      69.291947      31671.29       413.95045      8215.6866      1.5730149      0.83972622   
     38900  -6115.2442     -6182.2823      67.038129      31850.8        400.48613      8227.5099      1.5707545      0.83972622   
     39000  -6116.2002     -6183.4169      67.216654      28851.578      401.55263      8245.4138      1.5673438      0.83123166   
     39100  -6116.8315     -6184.4041      67.572601      26441.006      403.67907      8264.2393      1.5637734      0.83123166   
     39200  -6118.0631     -6184.3557      66.292631      23801.946      396.03252      8280.5276      1.5606974      0.83123166   
     39300  -6118.2181     -6184.5261      66.307983      23112.419      396.12423      8291.3052      1.5586687      0.83123166   
     39400  -6118.3106     -6184.0535      65.742919      26058.68       392.74854      8293.884       1.5581841      0.83123166   
     39500  -6116.9496     -6183.13        66.180427      30474.162      395.36221      8288.1892      1.5592547      0.83123166   
     39600  -6118.9965     -6184.2999      65.303368      28280.818      390.12266      8274.2468      1.5618821      0.83123166   
     39700  -6117.5255     -6184.1784      66.652858      30358.379      398.18452      8254.8309      1.5655557      0.83123166   
     39800  -6119.0516     -6186.1277      67.076063      30583.461      400.71275      8233.2         1.5696689      0.83123166   
     39900  -6118.3854     -6185.5955      67.210044      28964.027      401.51315      8211.7299      1.5737729      0.83123166   
     40000  -6117.8251     -6184.6301      66.804945      32678.236      399.09309      8196.2941      1.5767367      0.89283986   
     40100  -6117.1304     -6183.7176      66.587109      33111.016      397.79173      8190.0772      1.5779336      0.89283986   
     40200  -6115.9794     -6185.6092      69.629796      31596.304      415.96876      8196.0761      1.5767787      0.89283986   
     40300  -6117.0199     -6183.7695      66.749663      31348.344      398.76283      8213.4896      1.5734357      0.89283986   
     40400  -6117.6358     -6186.135       68.49913       25413.424      409.21415      8240.9613      1.5681906      0.89283986   
     40500  -6119.0329     -6185.2064      66.173494      28997.096      395.32079      8267.4783      1.5631608      0.89283986   
     40600  -6118.8569     -6183.8554      64.998507      28603.072      388.30142      8283.3583      1.5601641      0.89283986   
     40700  -6116.9889     -6184.4133      67.424374      29915.215      402.79356      8286.6048      1.5595528      0.89283986   
     40800  -6116.9446     -6184.1468      67.202165      27583.603      401.46608      8276.7015      1.5614189      0.89283986   
     40900  -6118.2731     -6184.1057      65.832675      26951.92       393.28474      8256.0721      1.5653204      0.89283986   
     41000  -6118.5039     -6185.2164      66.712536      25256.679      398.54104      8231.7865      1.5699384      0.81162375   
     41100  -6117.3243     -6185.0755      67.751134      26301.716      404.74562      8206.7381      1.5747301      0.81162375   
     41200  -6116.8183     -6182.9377      66.11936       30510.274      394.9974       8187.9136      1.5783505      0.81162375   
     41300  -6115.0165     -6183.0703      68.053764      33229.259      406.55354      8181.3809      1.5796108      0.81162375   
     41400  -6116.3897     -6183.9751      67.585359      30824.748      403.75528      8188.3981      1.5782571      0.81162375   
     41500  -6118.9024     -6186.5569      67.654472      30619.146      404.16816      8209.0677      1.5742833      0.81162375   
     41600  -6120.4241     -6185.7855      65.36137       28599.884      390.46916      8236.6771      1.5690063      0.81162375   
     41700  -6120.4113     -6184.9841      64.572824      24983.624      385.75838      8264.0121      1.5638164      0.81162375   
     41800  -6119.4718     -6183.5423      64.07059       29248.378      382.75804      8283.1413      1.5602049      0.81162375   
     41900  -6117.5193     -6184.4099      66.890535      27064.591      399.6044       8289.3273      1.5590406      0.81162375   
     42000  -6116.5727     -6184.7551      68.182393      27587.853      407.32196      8282.3255      1.5603586      0.87705656   
     42100  -6115.9513     -6182.8116      66.860266      27619.234      399.42357      8266.7565      1.5632973      0.87705656   
     42200  -6117.2843     -6184.3285      67.044244      27105.604      400.52266      8245.3566      1.5673546      0.87705656   
     42300  -6116.4302     -6183.9945      67.56425       30171.533      403.62918      8219.493       1.5722865      0.87705656   
     42400  -6114.4016     -6181.0949      66.693338      29163.028      398.42634      8196.0326      1.576787       0.87705656   
     42500  -6114.9633     -6181.9623      66.999062      29544.814      400.25274      8183.8212      1.5791398      0.87705656   
     42600  -6116.7148     -6184.9194      68.20462       28433.652      407.45475      8185.6719      1.5787828      0.87705656   
     42700  -6119.1615     -6183.5295      64.368054      29306.43       384.53509      8197.4503      1.5765143      0.87705656   
     42800  -6120.514      -6187.1112      66.597165      26663.896      397.85181      8213.8204      1.5733723      0.87705656   
     42900  -6120.2673     -6185.4117      65.144333      27270.608      389.17258      8230.3532      1.5702118      0.87705656   
     43000  -6118.2768     -6184.496       66.219209      22938.285      395.5939       8247.3469      1.5669764      0.79399586   
     43100  -6117.392      -6183.4191      66.027093      24417.699      394.44619      8261.1953      1.5643496      0.79399586   
     43200  -6116.6496     -6184.9189      68.269263      24022.893      407.84093      8270.8604      1.5625216      0.79399586   
     43300  -6117.9664     -6185.5718      67.605379      24355.913      403.87488      8273.0913      1.5621002      0.79399586   
     43400  -6118.0841     -6183.8297      65.745639      24531.132      392.76479      8266.5144      1.5633431      0.79399586   
     43500  -6115.3066     -6183.768       68.461414      24075.575      408.98884      8250.7812      1.5663241      0.79399586   
     43600  -6115.3327     -6182.9228      67.590042      25606.594      403.78326      8233.1595      1.5696766      0.79399586   
     43700  -6114.9686     -6184.0943      69.125763      25975.722      412.95766      8217.7909      1.5726122      0.79399586   
     43800  -6114.2897     -6181.0335      66.743836      28275.278      398.72802      8204.843       1.5750939      0.79399586   
     43900  -6116.0529     -6184.1758      68.122931      26274.589      406.96674      8202.9702      1.5754535      0.79399586   
     44000  -6118.8106     -6185.6719      66.861357      26087.687      399.43009      8206.9709      1.5746855      0.83609225   
     44100  -6118.8525     -6184.7655      65.912943      29871.746      393.76426      8214.1683      1.5733057      0.83609225   
     44200  -6118.8263     -6185.7373      66.910995      26972.942      399.72663      8222.0407      1.5717993      0.83609225   
     44300  -6119.1373     -6184.4417      65.304404      26691.619      390.12885      8227.5329      1.5707501      0.83609225   
     44400  -6121.4995     -6186.4346      64.935115      29474.358      387.92271      8230.294       1.5702231      0.83609225   
     44500  -6118.6908     -6185.6516      66.960795      28869.091      400.02414      8225.4584      1.5711462      0.83609225   
     44600  -6121.5645     -6186.6546      65.090154      30698.844      388.84892      8217.3965      1.5726876      0.83609225   
     44700  -6121.1645     -6186.2825      65.117952      26078.552      389.01498      8209.136       1.5742702      0.83609225   
     44800  -6120.8718     -6188.6316      67.759816      22277.073      404.79749      8202.3531      1.575572       0.83609225   
     44900  -6118.6544     -6184.4009      65.746552      29922.812      392.77024      8195.2745      1.5769329      0.83609225   
     45000  -6119.7074     -6184.8406      65.13323       28842.034      389.10625      8193.9923      1.5771796      0.89337217   
     45100  -6120.3408     -6186.1367      65.795851      31777.155      393.06475      8199.6372      1.5760939      0.89337217   
     45200  -6119.7088     -6184.9124      65.203589      29164.037      389.52657      8208.1657      1.5744563      0.89337217   
     45300  -6118.186      -6182.6971      64.511175      26790.691      385.39009      8222.8202      1.5716503      0.89337217   
     45400  -6117.1758     -6183.1208      65.944991      25530.549      393.95572      8240.4363      1.5682905      0.89337217   
     45500  -6117.6155     -6184.9105      67.295038      26352.425      402.0209       8257.2935      1.5650888      0.89337217   
     45600  -6117.7584     -6183.073       65.314631      26864.802      390.18994      8267.5554      1.5631462      0.89337217   
     45700  -6118.9103     -6188.1896      69.279203      24156.791      413.87432      8270.3727      1.5626137      0.89337217   
     45800  -6119.4306     -6185.3315      65.900924      27726.293      393.69246      8263.5129      1.5639109      0.89337217   
     45900  -6119.4971     -6185.1998      65.702735      27491.184      392.50848      8252.874       1.565927       0.89337217   
     46000  -6120.4332     -6187.5106      67.07745       28125.936      400.72103      8236.6735      1.5690069      0.80033378   
     46100  -6121.5804     -6186.1827      64.602384      32183.55       385.93498      8215.2252      1.5731033      0.80033378   
     46200  -6121.0726     -6185.0748      64.002238      27748.831      382.3497       8192.1208      1.5775399      0.80033378   
     46300  -6119.9106     -6186.0975      66.186857      27647.506      395.40062      8176.3429      1.5805841      0.80033378   
     46400  -6118.1646     -6184.7685      66.603929      28156.496      397.89221      8173.6626      1.5811024      0.80033378   
     46500  -6120.2345     -6187.9099      67.675365      26626.843      404.29298      8183.3752      1.5792259      0.80033378   
     46600  -6117.7821     -6182.6238      64.84174       31781.123      387.36489      8198.9275      1.5762303      0.80033378   
     46700  -6117.6721     -6186.8031      69.131026      29417.042      412.98911      8222.8363      1.5716472      0.80033378   
     46800  -6117.5822     -6183.3784      65.796202      28595.683      393.06685      8248.9746      1.5666672      0.80033378   
     46900  -6118.1631     -6185.6543      67.491131      24463.881      403.19236      8276.3903      1.5614776      0.80033378   
     47000  -6117.7992     -6184.1658      66.366597      26449.448      396.47439      8296.8292      1.5576309      0.85302797   
     47100  -6119.0805     -6185.9487      66.868153      25692.003      399.47069      8306.1012      1.5558922      0.85302797   
     47200  -6119.8606     -6186.3985      66.537952      26940.662      397.49807      8302.645       1.5565399      0.85302797   
     47300  -6119.1025     -6185.2225      66.119962      28357.189      395.00099      8284.0228      1.5600389      0.85302797   
     47400  -6116.9622     -6185.0175      68.055302      28412.563      406.56272      8258.6845      1.5648252      0.85302797   
     47500  -6115.1851     -6186.1036      70.918533      29169.398      423.66768      8231.8843      1.5699198      0.85302797   
     47600  -6112.949      -6183.6415      70.692484      29579.857      422.31726      8209.8086      1.5741412      0.85302797   
     47700  -6114.32       -6181.8125      67.492483      31909.222      403.20044      8201.8518      1.5756683      0.85302797   
     47800  -6117.179      -6185.3884      68.209457      33237.109      407.48365      8208.7153      1.5743508      0.85302797   
     47900  -6117.8589     -6184.8661      67.007268      29599.166      400.30176      8222.9404      1.5716273      0.85302797   
     48000  -6118.1195     -6183.5433      65.423788      30813.906      390.84205      8239.6492      1.5684403      0.7904137    
     48100  -6117.6277     -6185.4404      67.812741      32793.886      405.11366      8256.6241      1.5652157      0.7904137    
     48200  -6116.868      -6182.3101      65.442079      28865.765      390.95132      8269.859       1.5627108      0.7904137    
     48300  -6119.2874     -6186.7365      67.449119      25025.158      402.94138      8277.4608      1.5612756      0.7904137    
     48400  -6119.7216     -6184.878       65.156478      26469.436      389.24514      8275.2414      1.5616944      0.7904137    
     48500  -6119.667      -6184.3431      64.676132      26562.409      386.37555      8264.0324      1.5638126      0.7904137    
     48600  -6120.7656     -6186.085       65.319388      29637.427      390.21836      8244.404       1.5675357      0.7904137    
     48700  -6117.6831     -6184.8011      67.117976      30602.005      400.96314      8218.216       1.5725308      0.7904137    
     48800  -6118.3086     -6184.2004      65.891854      27690.301      393.63828      8194.4991      1.5770821      0.7904137    
     48900  -6118          -6184.8875      66.887508      28329.553      399.58632      8177.2557      1.5804077      0.7904137    
     49000  -6118.3004     -6184.1628      65.862387      31068.633      393.46224      8172.0898      1.5814067      0.88052051   
     49100  -6119.4087     -6186.0465      66.637756      32134.432      398.09429      8180.3911      1.579802       0.88052051   
     49200  -6117.6207     -6184.3725      66.751825      28953.084      398.77575      8197.0655      1.5765883      0.88052051   
     49300  -6120.2919     -6184.1022      63.810376      29909.984      381.20352      8221.1618      1.5719673      0.88052051   
     49400  -6118.9522     -6183.6257      64.673451      26389.005      386.35953      8247.0566      1.5670315      0.88052051   
     49500  -6120.7988     -6188.0896      67.290836      26079.271      401.9958       8268.4414      1.5629787      0.88052051   
     49600  -6119.5161     -6185.6798      66.163741      29747.492      395.26253      8277.7578      1.5612196      0.88052051   
     49700  -6120.2165     -6185.4472      65.230639      28261.323      389.68817      8275.8248      1.5615843      0.88052051   
     49800  -6120.6174     -6186.375       65.757628      27864.41       392.83641      8263.3025      1.5639507      0.88052051   
     49900  -6120.8287     -6185.8926      65.063837      26377.142      388.6917       8240.5674      1.5682655      0.88052051   
     50000  -6120.1351     -6185.4745      65.339464      26418.634      390.33829      8213.6897      1.5733974      0.79882431   
     50100  -6120.3215     -6187.038       66.716441      23995.461      398.56436      8188.0821      1.5783181      0.79882431   
     50200  -6121.2582     -6186.7745      65.516274      23922.474      391.39456      8169.0336      1.5819984      0.79882431   
     50300  -6120.6516     -6187.21        66.558373      27822.268      397.62007      8158.3608      1.584068       0.79882431   
     50400  -6119.8627     -6184.8036      64.940963      31639.822      387.95765      8159.3237      1.583881       0.79882431   
     50500  -6121.9518     -6185.7114      63.759541      27214.43       380.89983      8170.4786      1.5817186      0.79882431   
     50600  -6120.9175     -6186.5436      65.626038      27041.817      392.05029      8189.4831      1.5780481      0.79882431   
     50700  -6121.954      -6187.2956      65.341624      30778.306      390.3512       8212.5608      1.5736137      0.79882431   
     50800  -6122.5145     -6188.401       65.886499      30562.098      393.60629      8235.2858      1.5692713      0.79882431   
     50900  -6125.3778     -6191.0025      65.624683      21394.102      392.04219      8249.1907      1.5666262      0.79882431   
     51000  -6123.9618     -6187.6621      63.70024       25632.79       380.54556      8248.1884      1.5668165      0.80268242   
     51100  -6124.9831     -6187.7801      62.797024      29028.344      375.14974      8235.171       1.5692932      0.80268242   
     51200  -6124.9115     -6186.5829      61.671463      26378.417      368.42564      8208.724       1.5743492      0.80268242   
     51300  -6121.3445     -6186.5665      65.221982      25083.151      389.63646      8177.5641      1.5803481      0.80268242   
     51400  -6119.0661     -6185.8618      66.795698      30016.833      399.03785      8151.0547      1.5854878      0.80268242   
     51500  -6117.0974     -6182.2259      65.128521      34838.192      389.07812      8138.0089      1.5880295      0.80268242   
     51600  -6116.8769     -6184.8263      67.949432      27475.146      405.93025      8144.6572      1.5867332      0.80268242   
     51700  -6117.3352     -6183.4189      66.083724      27461.248      394.78451      8170.6655      1.5816824      0.80268242   
     51800  -6117.8676     -6184.8664      66.998773      28237.554      400.25101      8209.523       1.5741959      0.80268242   
     51900  -6118.5734     -6185.634       67.060648      27334.506      400.62066      8251.026       1.5662777      0.80268242   
     52000  -6118.9678     -6186.3607      67.392937      28346.809      402.60576      8284.0898      1.5600263      0.95995841   
     52100  -6121.8969     -6185.8867      63.989857      29049.639      382.27574      8302.132       1.556636       0.95995841   
     52200  -6121.9128     -6186.6281      64.715244      27259.231      386.6092       8303.1358      1.5564479      0.95995841   
     52300  -6119.4506     -6185.5393      66.08869       26687.119      394.81418      8285.5091      1.5597591      0.95995841   
     52400  -6118.1446     -6185.702       67.557455      28104.419      403.58858      8256.2973      1.5652777      0.95995841   
     52500  -6118.8667     -6184.6746      65.807892      32158.713      393.13669      8224.9816      1.5712373      0.95995841   
     52600  -6118.6385     -6186.0899      67.451349      28212.299      402.95471      8197.4463      1.5765151      0.95995841   
     52700  -6118.6516     -6184.1287      65.477041      29417.226      391.16018      8178.58        1.5801518      0.95995841   
     52800  -6118.982      -6186.2724      67.290391      29439.762      401.99314      8172.9166      1.5812468      0.95995841   
     52900  -6119.9173     -6185.0499      65.13251       30936.205      389.10195      8176.8295      1.5804901      0.95995841   
     53000  -6118.8912     -6186.8681      67.976911      29851.739      406.09442      8188.4453      1.5782481      0.93197497   
     53100  -6119.6535     -6188.1141      68.460587      29962.922      408.9839       8205.3383      1.5749988      0.93197497   
     53200  -6121.3401     -6184.5699      63.229738      32476.793      377.73478      8221.0996      1.5719792      0.93197497   
     53300  -6119.2473     -6184.7203      65.47301       32294.974      391.1361       8235.7247      1.5691877      0.93197497   
     53400  -6117.6409     -6184.5863      66.945424      29552.281      399.93231      8246.8863      1.5670639      0.93197497   
     53500  -6118.7454     -6185.5286      66.783285      31546.281      398.96369      8251.3856      1.5662094      0.93197497   
     53600  -6117.8345     -6184.8453      67.010809      31936.643      400.32292      8247.9066      1.56687        0.93197497   
     53700  -6116.5638     -6185.5122      68.948371      28194.58       411.89792      8237.1909      1.5689084      0.93197497   
     53800  -6117.4041     -6183.7842      66.380085      23553.124      396.55497      8224.9538      1.5712426      0.93197497   
     53900  -6117.4646     -6183.3465      65.88188       25739.17       393.57869      8214.7112      1.5732017      0.93197497   
     54000  -6119.0817     -6185.3413      66.25962       29258.743      395.83531      8207.3092      1.5746206      0.77125911   
     54100  -6118.9227     -6186.8568      67.934117      27716.021      405.83876      8198.7645      1.5762616      0.77125911   
     54200  -6120.3728     -6185.7814      65.408615      31317.546      390.7514       8192.7796      1.5774131      0.77125911   
     54300  -6120.0804     -6186.8732      66.792841      27201.441      399.02078      8191.7765      1.5776063      0.77125911   
     54400  -6121.2359     -6186.4641      65.22821       33044.208      389.67366      8192.0746      1.5775489      0.77125911   
     54500  -6119.8364     -6186.1363      66.299824      31108.526      396.07549      8195.9243      1.5768079      0.77125911   
     54600  -6119.091      -6184.5118      65.420799      31460.628      390.82419      8204.0129      1.5752532      0.77125911   
     54700  -6118.3466     -6184.977       66.630419      25947.196      398.05047      8213.587       1.5734171      0.77125911   
     54800  -6116.224      -6183.3075      67.083535      27277.791      400.75738      8223.085       1.5715997      0.77125911   
     54900  -6116.5065     -6183.7586      67.252115      29453.817      401.76448      8231.5481      1.5699839      0.77125911   
     55000  -6118.0515     -6187.032       68.980498      27214.933      412.08985      8238.0216      1.5687502      0.82889723   
     55100  -6115.385      -6181.3438      65.958746      28233.34       394.03789      8240.9895      1.5681852      0.82889723   
     55200  -6115.6468     -6183.3204      67.673652      27617.771      404.28274      8242.612       1.5678765      0.82889723   
     55300  -6115.3684     -6182.5898      67.221325      26297.409      401.58054      8242.7473      1.5678508      0.82889723   
     55400  -6114.9944     -6181.9467      66.952264      27062.097      399.97317      8244.387       1.567539       0.82889723   
     55500  -6116.7089     -6184.0467      67.337721      27091.386      402.27589      8246.6826      1.5671026      0.82889723   
[...]
   2006000  -6123.0839     -6189.684       66.600176      27140.574      397.86979      8231.6605      1.5699625      0.93286428   
   2006100  -6122.4256     -6188.0704      65.644769      29386.711      392.16219      8223.8872      1.5714464      0.93286428   
   2006200  -6121.5241     -6186.3906      64.866522      31466.272      387.51294      8206.1781      1.5748376      0.93286428   
   2006300  -6119.0062     -6186.3903      67.384074      28995.22       402.5528       8182.745       1.5793475      0.93286428   
   2006400  -6120.5126     -6183.6394      63.12683       29739.628      377.12001      8161.6148      1.5834364      0.93286428   
   2006500  -6120.1078     -6186.225       66.117212      30548.878      394.98456      8147.49        1.5861815      0.93286428   
   2006600  -6119.2059     -6186.4196      67.213706      32475.019      401.53503      8141.8237      1.5872854      0.93286428   
   2006700  -6119.8213     -6186.3112      66.48991       31428.002      397.21107      8149.2846      1.5858322      0.93286428   
   2006800  -6120.591      -6186.2856      65.694607      31684.423      392.45992      8168.385       1.582124       0.93286428   
   2006900  -6122.5352     -6187.9716      65.436397      29934.884      390.91737      8193.6704      1.5772416      0.93286428   
   2007000  -6121.0441     -6186.7293      65.685154      25711.432      392.40345      8213.7178      1.573392       0.86583357   
   2007100  -6120.4628     -6184.9971      64.534362      26958.246      385.52861      8227.6114      1.5707351      0.86583357   
   2007200  -6120.1849     -6185.0585      64.873607      23942.147      387.55527      8233.9297      1.5695298      0.86583357   
   2007300  -6119.7699     -6184.2226      64.452703      27513.772      385.04078      8232.0946      1.5698797      0.86583357   
   2007400  -6119.8602     -6186.5646      66.704394      28621.988      398.49239      8224.5868      1.5713127      0.86583357   
   2007500  -6121.0059     -6184.4511      63.445231      25891.012      379.02214      8214.8746      1.5731704      0.86583357   
   2007600  -6121.9938     -6188.338       66.34425       24489.367      396.34089      8202.3785      1.5755671      0.86583357   
   2007700  -6123.8095     -6188.5771      64.767682      27384.444      386.92247      8184.8008      1.5789508      0.86583357   
   2007800  -6122.0479     -6187.8374      65.789472      27623.78       393.02664      8167.4128      1.5823123      0.86583357   
   2007900  -6120.3478     -6186.3149      65.967117      30677.092      394.0879       8156.331       1.5844622      0.86583357   
   2008000  -6117.5257     -6183.1035      65.577842      30224.549      391.76237      8154.9235      1.5847356      0.83642139   
   2008100  -6118.6738     -6184.3372      65.663426      30022.793      392.27365      8164.0186      1.5829702      0.83642139   
   2008200  -6120.3892     -6186.3139      65.924741      27067.946      393.83474      8178.5131      1.5801647      0.83642139   
   2008300  -6120.1472     -6186.2362      66.089078      26693.925      394.81649      8191.8677      1.5775887      0.83642139   
   2008400  -6120.8554     -6187.9144      67.058953      30290.887      400.61053      8203.9643      1.5752626      0.83642139   
   2008500  -6119.9291     -6185.9298      66.000683      29744.027      394.28842      8211.8698      1.5737461      0.83642139   
   2008600  -6119.6929     -6184.3345      64.641655      29734.936      386.16958      8216.5472      1.5728502      0.83642139   
   2008700  -6118.6493     -6185.6909      67.041528      27622.051      400.50643      8214.8183      1.5731812      0.83642139   
   2008800  -6120.4551     -6185.8714      65.416261      24708.351      390.79708      8207.068       1.5746668      0.83642139   
   2008900  -6120.852      -6187.8291      66.977125      27246.987      400.12169      8196.3221      1.5767313      0.83642139   
   2009000  -6120.9413     -6187.5616      66.620212      30311.801      397.98949      8182.4529      1.5794039      0.86785885   
   2009100  -6121.4896     -6187.1361      65.646534      29355.228      392.17273      8165.9703      1.5825918      0.86785885   
   2009200  -6121.5219     -6187.1688      65.646806      26238.914      392.17436      8151.4644      1.5854081      0.86785885   
   2009300  -6118.7562     -6184.1771      65.420855      29491.178      390.82453      8146.0559      1.5864607      0.86785885   
   2009400  -6118.5876     -6184.7562      66.168596      29004.354      395.29153      8153.4852      1.5850152      0.86785885   
   2009500  -6118.8172     -6185.3767      66.559499      26692.395      397.62679      8171.5585      1.5815096      0.86785885   
   2009600  -6119.1897     -6186.3741      67.184427      24369.81       401.36011      8194.3954      1.5771021      0.86785885   
   2009700  -6120.0468     -6186.4669      66.420085      21085.515      396.79393      8217.2627      1.5727132      0.86785885   
   2009800  -6118.9371     -6186.0559      67.118842      26013.54       400.96831      8234.9414      1.569337       0.86785885   
   2009900  -6118.9423     -6184.6441      65.701796      26395.203      392.50287      8243.4208      1.5677227      0.86785885   
   2010000  -6118.8959     -6186.5957      67.699848      27379.655      404.43924      8243.7167      1.5676664      0.86965829   
   2010100  -6119.9172     -6186.2463      66.32901       29007.91       396.24985      8236.3189      1.5690745      0.86965829   
   2010200  -6120.5704     -6185.7042      65.133801      26434.148      389.10966      8221.3906      1.5719236      0.86965829   
   2010300  -6121.6051     -6186.7669      65.161808      25286.763      389.27698      8198.5541      1.5763021      0.86965829   
   2010400  -6119.6448     -6186.9266      67.281765      28409.519      401.94161      8172.2381      1.581378       0.86965829   
   2010500  -6119.3287     -6186.3054      66.976616      31318.248      400.11865      8149.2919      1.5858308      0.86965829   
   2010600  -6117.7405     -6184.5067      66.766222      32728.259      398.86176      8138.4545      1.5879425      0.86965829   
   2010700  -6117.8847     -6186.0048      68.120095      31317.67       406.9498       8144.0671      1.5868482      0.86965829   
   2010800  -6118.8376     -6184.9292      66.091583      30974.659      394.83146      8161.0643      1.5835432      0.86965829   
   2010900  -6118.3089     -6184.2396      65.930762      30135.043      393.87071      8188.168       1.5783015      0.86965829   
   2011000  -6118.1231     -6185.139       67.015934      29176.321      400.35354      8224.0386      1.5714175      0.84374173   
   2011100  -6119.1795     -6185.9877      66.808164      28042.564      399.11231      8260.4257      1.5644954      0.84374173   
   2011200  -6120.6008     -6185.672       65.071184      22184.121      388.73559      8284.9576      1.5598629      0.84374173   
   2011300  -6119.3792     -6183.9176      64.53831       24956.269      385.5522       8293.9774      1.5581665      0.84374173   
   2011400  -6118.9795     -6185.564       66.584512      23121.29       397.77622      8284.9707      1.5598604      0.84374173   
   2011500  -6120.1704     -6186.8561      66.685715      25908.327      398.38081      8260.4129      1.5644978      0.84374173   
   2011600  -6120.806      -6185.2519      64.445876      26717.835      385            8221.846       1.5718365      0.84374173   
   2011700  -6122.0818     -6188.0572      65.975464      26570.55       394.13776      8176.2893      1.5805945      0.84374173   
   2011800  -6120.8408     -6187.0525      66.211695      27860.501      395.54901      8131.8905      1.5892243      0.84374173   
   2011900  -6121.7075     -6188.9352      67.227701      31976.014      401.61863      8099.8025      1.5955201      0.84374173   
   2012000  -6118.2558     -6183.3215      65.065617      35869.117      388.70233      8083.1951      1.5987982      0.84261643   
   2012100  -6119.7778     -6186.5721      66.7943        31397.056      399.02949      8093.3318      1.5967958      0.84261643   
   2012200  -6118.5024     -6182.9177      64.41535       28579.362      384.81763      8131.2102      1.5893572      0.84261643   
   2012300  -6122.9193     -6186.2161      63.296848      28043.98       378.1357       8190.0276      1.5779431      0.84261643   
   2012400  -6124.3101     -6190.9764      66.666379      25077.15       398.26529      8252.8801      1.5659258      0.84261643   
   2012500  -6123.886      -6187.8256      63.939657      27711.136      381.97584      8298.4043      1.5573353      0.84261643   
   2012600  -6122.5961     -6187.2868      64.690704      27962.155      386.4626       8319.4014      1.5534048      0.84261643   
   2012700  -6121.9003     -6185.0097      63.109454      27315.708      377.01621      8310.6283      1.5550446      0.84261643   
   2012800  -6120.19       -6186.6406      66.450684      25894.087      396.97673      8276.1009      1.5615322      0.84261643   
   2012900  -6119.9379     -6183.7004      63.762495      27142.941      380.91747      8223.7974      1.5714635      0.84261643   
   2013000  -6118.0347     -6184.7787      66.743989      28987.302      398.72893      8164.9715      1.5827854      0.78303121   
   2013100  -6116.5758     -6186.5807      70.004864      28598.486      418.20942      8113.7314      1.5927811      0.78303121   
   2013200  -6118.1346     -6184.783       66.648447      28588.819      398.15817      8084.4819      1.5985437      0.78303121   
   2013300  -6119.4373     -6185.5469      66.109659      29070.821      394.93944      8082.7727      1.5988818      0.78303121   
   2013400  -6118.3692     -6185.2227      66.853478      31011.63       399.38302      8107.2621      1.5940521      0.78303121   
   2013500  -6120.7098     -6185.3949      64.685121      29182.09       386.42925      8151.8563      1.5853319      0.78303121   
   2013600  -6121.7564     -6187.5633      65.806977      26645.533      393.13122      8207.0006      1.5746798      0.78303121   
   2013700  -6121.503      -6184.9931      63.490035      26792.526      379.2898       8255.1264      1.5654997      0.78303121   
   2013800  -6120.8192     -6187.0567      66.23751       27783.487      395.70322      8288.7926      1.5591412      0.78303121   
   2013900  -6119.813      -6185.8157      66.002757      29674.668      394.30081      8302.8217      1.5565067      0.78303121   
   2014000  -6119.0829     -6187.1692      68.086225      31362.458      406.74746      8295.5597      1.5578693      0.91840338   
   2014100  -6121.9775     -6186.3389      64.361355      28143.667      384.49506      8270.1117      1.562663       0.91840338   
   2014200  -6121.5457     -6186.1652      64.61948       25849.08       386.03711      8232.2444      1.5698511      0.91840338   
   2014300  -6119.458      -6186.0697      66.61172       24172.964      397.93876      8189.923       1.5779633      0.91840338   
   2014400  -6118.1472     -6182.6668      64.519603      26616.594      385.44044      8154.9497      1.5847306      0.91840338   
   2014500  -6119.4553     -6184.7828      65.327466      30060.419      390.26662      8138.9894      1.5878382      0.91840338   
   2014600  -6118.1153     -6185.6708      67.555483      26821.307      403.5768       8141.0133      1.5874434      0.91840338   
   2014700  -6119.8327     -6186.7169      66.884235      29044.056      399.56676      8160.1442      1.5837218      0.91840338   
   2014800  -6120.4931     -6185.3487      64.855632      34046.561      387.44788      8191.2218      1.5777131      0.91840338   
   2014900  -6120.3959     -6185.9679      65.572007      28102.452      391.72751      8225.6642      1.5711069      0.91840338   
   2015000  -6120.0943     -6186.9659      66.871613      23733.091      399.49136      8255.3471      1.5654578      0.91049494   
   2015100  -6122.0653     -6186.6322      64.566906      25074.792      385.72303      8275.0068      1.5617386      0.91049494   
   2015200  -6121.9469     -6188.5402      66.593342      23028.875      397.82897      8280.1749      1.5607639      0.91049494   
   2015300  -6120.164      -6185.5198      65.355813      23974.535      390.43597      8268.7678      1.562917       0.91049494   
   2015400  -6119.0676     -6186.4874      67.419827      24053.751      402.76639      8248.5544      1.566747       0.91049494   
   2015500  -6119.635      -6187.0724      67.437347      26710.622      402.87106      8224.0691      1.5714116      0.91049494   
   2015600  -6119.1206     -6185.3708      66.250155      29615.911      395.77877      8200.3252      1.5759616      0.91049494   
   2015700  -6118.6267     -6186.459       67.832343      32683.815      405.23077      8182.6223      1.5793712      0.91049494   
   2015800  -6117.6523     -6183.895       66.242662      31160.149      395.73401      8176.9199      1.5804726      0.91049494   
   2015900  -6115.5163     -6186.0154      70.499099      28850.037      421.16198      8184.4906      1.5790107      0.91049494   
   2016000  -6116.3876     -6183.9841      67.596456      28469.698      403.82158      8201.3831      1.5757583      0.82629715   
   2016100  -6117.0031     -6183.9613      66.958128      26887.491      400.0082       8224.6847      1.571294       0.82629715   
   2016200  -6116.3546     -6184.5289      68.174243      27899.428      407.27328      8246.5961      1.5671191      0.82629715   
   2016300  -6116.3177     -6185.4129      69.095185      25582.146      412.77499      8268.5664      1.5629551      0.82629715   
   2016400  -6117.5916     -6184.122       66.530391      28318.424      397.4529       8286.0645      1.5596545      0.82629715   
   2016500  -6120.21       -6186.1562      65.946188      27469.872      393.96286      8293.0238      1.5583457      0.82629715   
   2016600  -6119.4351     -6187.2201      67.784992      27742.892      404.94789      8284.6472      1.5599213      0.82629715   
   2016700  -6119.568      -6184.5478      64.979823      28418.892      388.1898       8262.7252      1.56406        0.82629715   
   2016800  -6117.9663     -6187.5374      69.571127      27837.288      415.61827      8234.594       1.5694032      0.82629715   
   2016900  -6118.3744     -6186.0717      67.697267      26970.559      404.42382      8204.9477      1.5750738      0.82629715   
   2017000  -6117.6397     -6183.5155      65.875746      26480.663      393.54205      8180.714       1.5797396      0.83713274   
   2017100  -6118.1836     -6186.2236      68.04          32883.503      406.47131      8167.1591      1.5823615      0.83713274   
   2017200  -6118.8334     -6185.351       66.517651      29607.118      397.37679      8166.8655      1.5824184      0.83713274   
   2017300  -6118.6323     -6186.7788      68.146506      29979.942      407.10758      8178.3696      1.5801925      0.83713274   
   2017400  -6120.7479     -6187.7438      66.995927      28267.691      400.23401      8197.8169      1.5764438      0.83713274   
   2017500  -6122.004      -6186.77        64.766045      29336.465      386.91269      8218.9924      1.5723823      0.83713274   
   2017600  -6122.1675     -6188.2757      66.108203      25893.309      394.93074      8236.0556      1.5691247      0.83713274   
   2017700  -6121.075      -6186.0727      64.997667      25340.981      388.29639      8246.5573      1.5671264      0.83713274   
   2017800  -6120.8581     -6185.0574      64.19928       26093.2        383.52683      8250.7729      1.5663257      0.83713274   
   2017900  -6119.6892     -6186.448       66.758803      26255.671      398.81743      8246.2252      1.5671895      0.83713274   
   2018000  -6118.7945     -6184.6362      65.841776      27755.036      393.33911      8231.2458      1.5700415      0.8030846    
   2018100  -6120.6221     -6187.3539      66.731755      23296.242      398.65585      8212.5467      1.5736164      0.8030846    
   2018200  -6118.8556     -6186.1306      67.27498       26132.383      401.90107      8188.6598      1.5782067      0.8030846    
   2018300  -6120.5153     -6185.2137      64.69847       26845.334      386.50899      8167.4096      1.5823129      0.8030846    
   2018400  -6123.3496     -6187.2888      63.939227      27059.078      381.97327      8153.6904      1.5849753      0.8030846    
   2018500  -6122.1192     -6187.7375      65.618257      31456.434      392.00381      8144.6709      1.5867305      0.8030846    
   2018600  -6123.903      -6187.9896      64.086636      30417.686      382.85389      8145.5466      1.5865599      0.8030846    
   2018700  -6122.2899     -6186.8904      64.60045       28794.854      385.92342      8157.2253      1.5842885      0.8030846    
   2018800  -6122.2366     -6187.6856      65.448958      32339.016      390.99241      8179.978       1.5798817      0.8030846    
   2018900  -6123.5376     -6187.6359      64.098227      28875.332      382.92314      8210.045       1.5740959      0.8030846    
   2019000  -6123.237      -6188.1028      64.865866      28387.391      387.50902      8241.5337      1.5680817      0.82947812   
   2019100  -6121.6789     -6187.5574      65.878507      27596.472      393.55854      8267.8654      1.5630876      0.82947812   
   2019200  -6121.2653     -6188.0984      66.833121      27045.78       399.26141      8282.7193      1.5602844      0.82947812   
   2019300  -6120.3877     -6187.0071      66.619366      27511.55       397.98444      8282.8537      1.5602591      0.82947812   
   2019400  -6120.7692     -6187.6598      66.890548      24234.191      399.60448      8269.5885      1.5627619      0.82947812   
   2019500  -6119.2509     -6186.9269      67.676057      26658.592      404.29711      8243.9345      1.567625       0.82947812   
   2019600  -6118.4565     -6183.8271      65.370578      28112.233      390.52417      8212.1047      1.5737011      0.82947812   
   2019700  -6118.3403     -6185.3829      67.042568      27798.073      400.51265      8182.8624      1.5793248      0.82947812   
   2019800  -6118.9311     -6183.89        64.958982      25933.982      388.06529      8162.7444      1.5832173      0.82947812   
   2019900  -6119.6309     -6184.5464      64.915452      26509.524      387.80525      8157.1668      1.5842998      0.82947812   
   2020000  -6120.5753     -6185.7108      65.13545       29606.73       389.11951      8166.7001      1.5824504      0.89285191   
   2020033  -6119.865      -6186.1658      66.300742      27507.86       396.08097      8172.0525      1.581414       0.89285191   
Loop time of 8653.93 on 1 procs for 2000000 steps with 1296 atoms

Performance: 9.984 ns/day, 2.404 hours/ns, 231.109 timesteps/s, 299.517 katom-step/s
99.8% CPU use with 1 MPI tasks x 1 OpenMP threads

MPI task timing breakdown:
Section |  min time  |  avg time  |  max time  |%varavg| %total
---------------------------------------------------------------
Pair    | 6621.9     | 6621.9     | 6621.9     |   0.0 | 76.52
Neigh   | 87.722     | 87.722     | 87.722     |   0.0 |  1.01
Comm    | 88.312     | 88.312     | 88.312     |   0.0 |  1.02
Output  | 5.2749     | 5.2749     | 5.2749     |   0.0 |  0.06
Modify  | 1805.9     | 1805.9     | 1805.9     |   0.0 | 20.87
Other   |            | 44.77      |            |       |  0.52

Nlocal:           1296 ave        1296 max        1296 min
Histogram: 1 0 0 0 0 0 0 0 0 0
Nghost:           4454 ave        4454 max        4454 min
Histogram: 1 0 0 0 0 0 0 0 0 0
Neighs:              0 ave           0 max           0 min
Histogram: 1 0 0 0 0 0 0 0 0 0
FullNghs:       235236 ave      235236 max      235236 min
Histogram: 1 0 0 0 0 0 0 0 0 0

Total # of neighbors = 235236
Ave neighs/atom = 181.50926
Neighbor list builds = 200000
Dangerous builds = 200000
Total wall time: 2:25:41
