LAMMPS (29 Aug 2024 - Update 1)
OMP_NUM_THREADS environment is not set. Defaulting to 1 thread. (src/comm.cpp:98)
  using 1 OpenMP thread(s) per MPI task

units		metal						## E in [eV], t in [ps], P in [10000 Pa], l in [A]
atom_style	atomic						## mass x y z vx vy vz

neighbor	0.5 bin						## neighbor list, skin = 0.5 Angstrom
neigh_modify	every 2 delay 10 check yes			## update of neighbor list

############################## main variables
variable        seed equal 71092

variable	temperature equal 275
variable	tempDamp equal 0.1

variable        pressure equal 5000
variable        pressureDamp equal 1.0 				# This is 1 ps

##############################

read_data water.dat
Reading data file ...
  triclinic box = (0 0 0) to (18.047441 22.912981 19.549222) with tilt (-0.10697296 -6.2467562 -0.022549581)
  2 by 7 by 2 MPI processor grid
  reading atoms ...
  1008 atoms
  read_data CPU = 0.040 seconds

mass		1 1.008    # H
mass		2 15.9994  # O


pair_style	pace/extrapolation
ACE/AL version: 2023.11.25
pair_coeff	* * /home/users/saadie5f/phase_diagram/pot_dir/interim_potential_ladder_step_1.yaml /home/users/saadie5f/phase_diagram/pot_dir/interim_potential_ladder_step_1.asi H O
Loading /home/users/saadie5f/phase_diagram/pot_dir/interim_potential_ladder_step_1.yaml
Total number of basis functions
	H: 23 (r=1) 664 (r>1)
	O: 23 (r=1) 664 (r>1)
Mapping LAMMPS atom type #1(H) -> ACE species type #0
Mapping LAMMPS atom type #2(O) -> ACE species type #1
Loading ASI /home/users/saadie5f/phase_diagram/pot_dir/interim_potential_ladder_step_1.asi
LINEAR ASI is loaded

fix pace_gamma all pair 1000 pace/extrapolation gamma 1
compute max_pace_gamma all reduce max f_pace_gamma
variable dump_skip equal "c_max_pace_gamma < 10"

dump pace_dump all custom 1000 extrapolative_structures.dump id type x y z f_pace_gamma
dump_modify pace_dump skip v_dump_skip
dump_modify pace_dump element H O

variable max_pace_gamma equal c_max_pace_gamma

timestep	0.0005						## timestep = 0.0005*ps = 0.5 fs

thermo		100
thermo_style custom step etotal pe ke press temp vol density c_max_pace_gamma


min_style cg
minimize 0.0 5.0e-4 10000 100000

CITE-CITE-CITE-CITE-CITE-CITE-CITE-CITE-CITE-CITE-CITE-CITE-CITE

Your simulation uses code contributions which should be cited:

- Type Label Framework: https://doi.org/10.1021/acs.jpcb.3c08419

@Article{Gissinger24,
 author = {Jacob R. Gissinger, Ilia Nikiforov, Yaser Afshar, Brendon Waters, Moon-ki Choi, Daniel S. Karls, Alexander Stukowski, Wonpil Im, Hendrik Heinz, Axel Kohlmeyer, and Ellad B. Tadmor},
 title = {Type Label Framework for Bonded Force Fields in LAMMPS},
 journal = {J. Phys. Chem. B},
 year =    2024,
 volume =  128,
 number =  13,
 pages =   {3282–-3297}
}

CITE-CITE-CITE-CITE-CITE-CITE-CITE-CITE-CITE-CITE-CITE-CITE-CITE

Switching to 'neigh_modify every 1 delay 0 check yes' setting during minimization
Neighbor list info ...
  update: every = 1 steps, delay = 0 steps, check = yes
  max neighbors/atom: 2000, page size: 100000
  master list distance cutoff = 6.5
  ghost atom cutoff = 6.5
  binsize = 3.25, bins = 8 8 7
  1 neighbor lists, perpetual/occasional/extra = 1 0 0
  (1) pair pace/extrapolation, perpetual
      attributes: full, newton on
      pair build: full/bin/atomonly
      stencil: full/bin/3d
      bin: standard
Per MPI rank memory allocation (min/avg/max) = 4.348 | 4.35 | 4.351 Mbytes
   Step         TotEng         PotEng         KinEng         Press           Temp          Volume        Density     c_max_pace_gamma
         0  -4859.3795     -4859.3795      0             -15249.985      0              8084.0073      1.2433848      0.6550148    
       100  -4870.181      -4870.181       0             -8271.4786      0              8084.0073      1.2433848      0.6550148    
       200  -4870.1941     -4870.1941      0             -8252.9859      0              8084.0073      1.2433848      0.6550148    
       300  -4870.1942     -4870.1942      0             -8253.5114      0              8084.0073      1.2433848      0.6550148    
       340  -4870.1942     -4870.1942      0             -8253.6325      0              8084.0073      1.2433848      0.6550148    
Loop time of 6.87752 on 28 procs for 340 steps with 1008 atoms

99.4% CPU use with 28 MPI tasks x 1 OpenMP threads

Minimization stats:
  Stopping criterion = force tolerance
  Energy initial, next-to-last, final = 
     -4859.37950969087  -4870.19417354635  -4870.19417355022
  Force two-norm initial, final = 9.3928037 0.00045185036
  Force max component initial, final = 0.67588365 4.4621563e-05
  Final line search alpha, max atom move = 1 4.4621563e-05
  Iterations, force evaluations = 340 680

MPI task timing breakdown:
Section |  min time  |  avg time  |  max time  |%varavg| %total
---------------------------------------------------------------
Pair    | 5.464      | 6.0296     | 6.6594     |  12.6 | 87.67
Neigh   | 0.00072054 | 0.00078224 | 0.00086078 |   0.0 |  0.01
Comm    | 0.18476    | 0.78589    | 1.3803     |  36.4 | 11.43
Output  | 0.00024576 | 0.00025141 | 0.00034201 |   0.0 |  0.00
Modify  | 0.00069537 | 0.0009722  | 0.0012458  |   0.0 |  0.01
Other   |            | 0.06003    |            |       |  0.87

Nlocal:             36 ave          40 max          33 min
Histogram: 2 3 9 0 4 4 0 2 3 1
Nghost:           1014 ave        1031 max        1000 min
Histogram: 4 5 4 1 3 1 0 4 4 2
Neighs:              0 ave           0 max           0 min
Histogram: 28 0 0 0 0 0 0 0 0 0
FullNghs:      5234.93 ave        5831 max        4785 min
Histogram: 2 3 6 3 4 3 1 2 3 1

Total # of neighbors = 146578
Ave neighs/atom = 145.41468
Neighbor list builds = 5
Dangerous builds = 0

################## equilibration of main calculation
# Equilibrate to specified number of ice

fix             3 all nph tri ${pressure} ${pressure} ${pressureDamp}
fix             3 all nph tri 5000 ${pressure} ${pressureDamp}
fix             3 all nph tri 5000 5000 ${pressureDamp}
fix             3 all nph tri 5000 5000 1
fix             4 all temp/csvr ${temperature} ${temperature} ${tempDamp} ${seed}
fix             4 all temp/csvr 275 ${temperature} ${tempDamp} ${seed}
fix             4 all temp/csvr 275 275 ${tempDamp} ${seed}
fix             4 all temp/csvr 275 275 0.1 ${seed}
fix             4 all temp/csvr 275 275 0.1 71092
velocity 	all create ${temperature} ${seed} dist gaussian
velocity 	all create 275 ${seed} dist gaussian
velocity 	all create 275 71092 dist gaussian

run 200000
Per MPI rank memory allocation (min/avg/max) = 3.489 | 3.491 | 3.492 Mbytes
   Step         TotEng         PotEng         KinEng         Press           Temp          Volume        Density     c_max_pace_gamma
       340  -4834.3988     -4870.1942      35.795366     -3524.0893      275            8084.0073      1.2433848      0.6550148    
       400  -4830.1136     -4852.9983      22.884706      5176.0309      175.8131       8061.9008      1.2467943      0.6550148    
       500  -4822.8318     -4845.3869      22.555147      3757.423       173.28124      7958.3259      1.2630209      0.6550148    
       600  -4816.5041     -4842.4774      25.973324      5500.0353      199.54159      7811.9293      1.28669        0.6550148    
       700  -4812.0156     -4840.4697      28.45408       5692.1114      218.60014      7688.9877      1.3072633      0.6550148    
       800  -4809.5365     -4840.4097      30.873209      12802.244      237.18524      7618.6615      1.3193304      0.6550148    
       900  -4807.1091     -4838.1381      31.029006      12100.182      238.38216      7608.8457      1.3210324      0.6550148    
      1000  -4804.1671     -4836.3796      32.212544      7418.4058      247.47476      7651.7028      1.3136333      0.82587986   
      1100  -4802.2415     -4835.6694      33.42783       4143.3069      256.81127      7729.3249      1.3004411      0.82587986   
      1200  -4802.2695     -4835.918       33.648428      5233.5886      258.50602      7823.6514      1.2847622      0.82587986   
      1300  -4801.5816     -4835.6493      34.067726      6044.9184      261.7273       7915.524       1.2698504      0.82587986   
      1400  -4800.8527     -4835.1728      34.320115      2840.1296      263.6663       7987.9033      1.2583442      0.82587986   
      1500  -4799.213      -4833.5493      34.33638       3117.3146      263.79126      8029.7909      1.25178        0.82587986   
      1600  -4798.1534     -4832.9102      34.756812      842.20777      267.02125      8034.1857      1.2510953      0.82587986   
      1700  -4797.0921     -4832.4087      35.316661      6401.3888      271.32233      8004.1947      1.255783       0.82587986   
      1800  -4797.4757     -4832.4478      34.97212       1331.1644      268.67537      7950.9506      1.2641924      0.82587986   
      1900  -4797.7867     -4833.5595      35.77282       3548.7013      274.82679      7885.038       1.2747601      0.82587986   
      2000  -4796.8032     -4833.1405      36.337251      9153.5995      279.16306      7824.3671      1.2846447      0.67191483   
      2100  -4797.2071     -4832.0904      34.883271      8896.7404      267.99278      7794.6225      1.289547       0.67191483   
      2200  -4796.9269     -4833.7973      36.870449      9201.8397      283.25939      7797.239       1.2891142      0.67191483   
      2300  -4796.8177     -4833.3216      36.50389       7061.5285      280.44328      7829.2402      1.2838451      0.67191483   
      2400  -4796.0555     -4833.1469      37.091418      6626.8238      284.957        7879.6313      1.2756348      0.67191483   
      2500  -4796.2239     -4832.1893      35.965366      6847.2567      276.30604      7933.1594      1.2670276      0.67191483   
      2600  -4796.0555     -4832.9295      36.873928      6081.3753      283.28612      7979.1817      1.2597196      0.67191483   
      2700  -4795.7007     -4831.5591      35.858441      2774.8909      275.48458      8009.2303      1.2549935      0.67191483   
      2800  -4797.729      -4833.3859      35.656842      2193.509       273.93579      8018.9318      1.2534751      0.67191483   
      2900  -4797.0106     -4832.2399      35.229301      2538.508       270.65117      8005.9623      1.2555057      0.67191483   
      3000  -4796.6393     -4833.2911      36.651853      6973.4601      281.58002      7970.0998      1.2611551      0.68949354   
      3100  -4796.2854     -4832.3027      36.017374      5819.2545      276.7056       7922.0671      1.2688016      0.68949354   
      3200  -4797.2868     -4832.9623      35.675508      3686.7861      274.07919      7877.1559      1.2760356      0.68949354   
      3300  -4794.8013     -4831.4175      36.616213      1803.058       281.30621      7844.1388      1.2814067      0.68949354   
      3400  -4795.6386     -4832.2989      36.660273      6560.4926      281.6447       7833.6305      1.2831256      0.68949354   
      3500  -4796.798      -4833.0704      36.272353      6941.8527      278.66448      7849.0577      1.2806036      0.68949354   
      3600  -4797.0777     -4833.8433      36.765619      9266.5388      282.45403      7886.8973      1.2744596      0.68949354   
      3700  -4797.6237     -4832.9905      35.366804      3142.5945      271.70755      7941.3242      1.2657249      0.68949354   
      3800  -4798.0107     -4832.7388      34.728194      1968.7093      266.80139      7994.8365      1.2572529      0.68949354   
      3900  -4796.5413     -4832.5275      35.98623       4185.1698      276.46633      8023.0269      1.2528353      0.68949354   
      4000  -4796.2386     -4831.9087      35.670056      1202.0435      274.0373       8022.873       1.2528594      0.73312291   
      4100  -4796.7387     -4832.9011      36.162462      726.18894      277.82024      7997.8827      1.2567741      0.73312291   
      4200  -4797.9196     -4833.2718      35.352239      2965.0168      271.59565      7951.9681      1.2640307      0.73312291   
      4300  -4797.7676     -4832.8441      35.076493      6931.6474      269.47722      7897.3025      1.2727804      0.73312291   
      4400  -4798.7759     -4832.7855      34.00955       7889.0353      261.28036      7844.3061      1.2813793      0.73312291   
      4500  -4798.2758     -4834.5851      36.309266      8193.8926      278.94807      7808.5473      1.2872473      0.73312291   
      4600  -4796.5673     -4833.2343      36.666932      9058.1771      281.69586      7794.23        1.2896119      0.73312291   
      4700  -4798.1388     -4833.6113      35.472419      4307.7057      272.51894      7810.6763      1.2868965      0.73312291   
      4800  -4797.2792     -4832.1249      34.84572       7683.1986      267.70429      7852.6276      1.2800214      0.73312291   
      4900  -4797.315      -4832.4907      35.175739      5458.8622      270.23968      7909.6697      1.2707903      0.73312291   
      5000  -4797.8678     -4833.0425      35.174695      3784.0078      270.23166      7966.6507      1.2617011      0.73191985   
      5100  -4797.8294     -4834.0488      36.219367      1452.919       278.25742      8008.2851      1.2551416      0.73191985   
      5200  -4797.0491     -4832.5275      35.478434      240.96118      272.56515      8025.8382      1.2523965      0.73191985   
      5300  -4797.0024     -4832.5154      35.513073      2285.9682      272.83127      8016.4008      1.2538709      0.73191985   
      5400  -4795.7266     -4831.2033      35.476613      2650.8797      272.55117      7983.7449      1.2589996      0.73191985   
      5500  -4796.9699     -4833.4077      36.437862      3132.9967      279.93602      7932.7585      1.2670916      0.73191985   
      5600  -4797.3875     -4833.8154      36.427827      5256.7108      279.85892      7873.7265      1.2765914      0.73191985   
      5700  -4797.445      -4833.9373      36.492225      9498.7542      280.35367      7820.2077      1.285328       0.73191985   
      5800  -4796.9246     -4833.8669      36.942267      5944.7878      283.81113      7785.4052      1.2910737      0.73191985   
      5900  -4796.1419     -4832.1622      36.020371      11483.404      276.72861      7782.7785      1.2915094      0.73191985   
      6000  -4795.1359     -4830.6492      35.51335       7826.3005      272.8334       7818.3335      1.2856361      0.64864545   
      6100  -4794.3225     -4831.2139      36.891428      6814.9198      283.42057      7880.4402      1.2755038      0.64864545   
      6200  -4794.1936     -4830.5966      36.402957      6602.4499      279.66786      7953.853       1.2637311      0.64864545   
      6300  -4793.392      -4829.284       35.891969      3372.1735      275.74216      8019.7936      1.2533405      0.64864545   
      6400  -4794.3692     -4830.5788      36.20964       5647.9187      278.18269      8067.463       1.2459346      0.64864545   
      6500  -4794.3768     -4831.254       36.877224      2028.7259      283.31144      8085.8239      1.2431054      0.64864545   
      6600  -4793.9642     -4830.6034      36.639217      4565.9948      281.48293      8070.1501      1.2455198      0.64864545   
      6700  -4793.9223     -4830.543       36.620699      1149.0296      281.34067      8025.685       1.2524204      0.64864545   
      6800  -4793.5729     -4830.0464      36.473537      4613.6213      280.21009      7966.8647      1.2616672      0.64864545   
      6900  -4793.3566     -4830.9485      37.591847      4251.2439      288.80158      7907.5407      1.2711325      0.64864545   
      7000  -4793.531      -4831.3846      37.853629      3747.1125      290.81273      7863.6788      1.2782226      0.64438417   
      7100  -4795.1885     -4831.5402      36.351725      4981.9801      279.27426      7846.3308      1.2810487      0.64438417   
      7200  -4795.9366     -4832.5574      36.620768      2942.3072      281.3412       7851.1148      1.2802681      0.64438417   
      7300  -4796.1315     -4831.6184      35.486897      8023.6409      272.63017      7867.837       1.277547       0.64438417   
      7400  -4796.6062     -4833.3971      36.79093       8768.7866      282.64848      7897.4003      1.2727646      0.64438417   
      7500  -4797.3621     -4833.4014      36.039318      6469.3242      276.87418      7935.5964      1.2666385      0.64438417   
      7600  -4797.656      -4833.1691      35.513086      1731.7579      272.83137      7971.0157      1.2610101      0.64438417   
      7700  -4797.4508     -4831.9337      34.48283       772.89894      264.91637      7991.0574      1.2578475      0.64438417   
      7800  -4799.1898     -4832.6967      33.506921      983.16323      257.41889      7993.4787      1.2574665      0.64438417   
      7900  -4798.6368     -4833.1391      34.502335      5078.3552      265.06622      7972.2313      1.2608179      0.64438417   
      8000  -4797.3449     -4832.5664      35.221484      5996.7909      270.59112      7935.247       1.2666942      0.71507969   
      8100  -4799.0221     -4833.8238      34.801699      10057.459      267.3661       7897.9496      1.2726761      0.71507969   
      8200  -4799.0883     -4834.9199      35.831553      5385.5287      275.27802      7868.5787      1.2774266      0.71507969   
      8300  -4800.4362     -4835.128       34.691747      3633.6269      266.52138      7852.3302      1.2800699      0.71507969   
      8400  -4800.016      -4834.3122      34.296165      6012.5927      263.4823       7845.3691      1.2812057      0.71507969   
      8500  -4800.3986     -4835.6574      35.258826      4665.0259      270.878        7840.0197      1.2820799      0.71507969   
      8600  -4799.6392     -4834.3036      34.664397      2215.465       266.31126      7840.6792      1.2819721      0.71507969   
      8700  -4798.7037     -4833.9032      35.199544      2468.5195      270.42256      7854.0744      1.2797856      0.71507969   
      8800  -4799.1125     -4834.3641      35.251584      7895.8261      270.82236      7882.2422      1.2752122      0.71507969   
      8900  -4799.8334     -4832.867       33.033603      7005.1648      253.7826       7916.3394      1.2697196      0.71507969   
      9000  -4798.5267     -4833.1574      34.630656      6146.0579      266.05205      7952.1653      1.2639993      0.63750288   
      9100  -4797.5708     -4833.1777      35.606913      1425.7964      273.5522       7978.0053      1.2599054      0.63750288   
      9200  -4798.3349     -4832.1777      33.842791      1682.5541      259.99923      7984.5186      1.2588776      0.63750288   
      9300  -4797.2016     -4831.9497      34.748037      5689.5562      266.95384      7971.6514      1.2609096      0.63750288   
      9400  -4797.5224     -4832.777       35.254601      3778.1801      270.84555      7944.8333      1.2651658      0.63750288   
      9500  -4797.3993     -4832.6433      35.244011      4309.9281      270.76419      7909.9295      1.2707486      0.63750288   
      9600  -4797.533      -4833.1794      35.646378      7254.56        273.85539      7872.8877      1.2767274      0.63750288   
      9700  -4797.4341     -4833.5285      36.094324      4206.1679      277.29676      7847.4351      1.2808684      0.63750288   
      9800  -4797.911      -4833.1692      35.258198      8725.7847      270.87318      7840.5225      1.2819977      0.63750288   
      9900  -4797.9006     -4832.9978      35.09716       5200.3254      269.636        7856.8867      1.2793276      0.63750288   
     10000  -4798.0442     -4834.3147      36.270542      6770.302       278.65057      7892.3583      1.2735777      0.62596      
     10100  -4798.8821     -4832.9714      34.089283      6263.5244      261.89292      7934.079       1.2668807      0.62596      
     10200  -4798.4743     -4833.5465      35.072188      4496.0642      269.44414      7967.6032      1.2615502      0.62596      
     10300  -4797.8223     -4832.5879      34.765603      4828.8992      267.08879      7987.0144      1.2584842      0.62596      
     10400  -4797.0335     -4833.8074      36.773896      2932.5277      282.51762      7992.5597      1.2576111      0.62596      
     10500  -4795.8872     -4832.3109      36.42369       3546.6456      279.82714      7984.6046      1.2588641      0.62596      
     10600  -4796.1246     -4832.1645      36.039888      4782.3104      276.87855      7968.4177      1.2614213      0.62596      
     10700  -4796.5703     -4833.8129      37.24253       2157.7004      286.11792      7947.8123      1.2646916      0.62596      
     10800  -4794.4805     -4832.8814      38.400874      4403.8098      295.01697      7918.2041      1.2694206      0.62596      
     10900  -4795.795      -4831.6943      35.899336      7317.9179      275.79876      7892.3246      1.2735832      0.62596      
     11000  -4795.0486     -4831.8754      36.82675       5549.7459      282.92367      7881.8273      1.2752794      0.65523074   
     11100  -4796.1732     -4833.6033      37.430099      6067.5008      287.55893      7888.0715      1.2742699      0.65523074   
     11200  -4796.757      -4833.4879      36.730959      8615.3062      282.18775      7907.9479      1.271067       0.65523074   
     11300  -4798.6125     -4833.5087      34.896149      3362.5387      268.09171      7937.0557      1.2664056      0.65523074   
     11400  -4798.9296     -4835.2875      36.357871      1539.4641      279.32148      7962.7077      1.2623258      0.65523074   
     11500  -4798.4272     -4832.5268      34.099604      3235.8314      261.97221      7975.6978      1.2602699      0.65523074   
     11600  -4798.181      -4832.9227      34.741644      5261.5458      266.90472      7975.3804      1.26032        0.65523074   
     11700  -4798.0702     -4832.8421      34.771921      3675.2567      267.13733      7967.2017      1.2616138      0.65523074   
     11800  -4797.3997     -4831.9291      34.529493      1956.5231      265.27486      7950.9503      1.2641925      0.65523074   
     11900  -4796.2796     -4831.8671      35.587487      3662.1289      273.40296      7931.5452      1.2672854      0.65523074   
     12000  -4797.8395     -4832.5648      34.725267      6752.6505      266.7789       7919.9449      1.2691416      0.7255955    
     12100  -4798.0602     -4833.6009      35.540671      5128.6247      273.04329      7916.1395      1.2697517      0.7255955    
     12200  -4796.0278     -4831.8054      35.777656      4021.2201      274.86394      7912.2176      1.2703811      0.7255955    
     12300  -4796.5982     -4832.8795      36.281311      9953.4955      278.7333       7912.7497      1.2702957      0.7255955    
     12400  -4797.5619     -4833.1225      35.560644      6876.7532      273.19674      7920.501       1.2690525      0.7255955    
     12500  -4796.9468     -4832.4088      35.462069      2708.7181      272.43943      7931.7948      1.2672456      0.7255955    
     12600  -4797.9923     -4833.8212      35.828857      3658.5076      275.2573       7941.5701      1.2656857      0.7255955    
     12700  -4796.9587     -4832.7286      35.769978      6565.8362      274.80495      7950.2481      1.2643041      0.7255955    
     12800  -4796.3352     -4831.4743      35.139096      5882.4342      269.95817      7956.7703      1.2632678      0.7255955    
     12900  -4796.562      -4831.7617      35.199657      4462.2502      270.42344      7958.5367      1.2629874      0.7255955    
     13000  -4795.7305     -4832.2995      36.569026      2479.1957      280.94369      7954.0322      1.2637027      0.67735801   
     13100  -4796.0074     -4832.1896      36.182233      4743.5291      277.97213      7944.3977      1.2652352      0.67735801   
     13200  -4797.6245     -4833.3849      35.760449      4773.9014      274.73175      7934.6565      1.2667885      0.67735801   
     13300  -4797.6984     -4833.6835      35.985152      5312.1242      276.45805      7924.2113      1.2684583      0.67735801   
     13400  -4796.3558     -4833.0035      36.647677      5959.277       281.54794      7915.3199      1.2698832      0.67735801   
     13500  -4796.9482     -4832.2449      35.296668      6298.3847      271.16873      7911.47        1.2705011      0.67735801   
     13600  -4797.8697     -4833.2493      35.379613      4621.9642      271.80595      7914.9036      1.26995        0.67735801   
     13700  -4797.6499     -4832.9488      35.298859      3725.2711      271.18556      7919.5419      1.2692062      0.67735801   
     13800  -4797.0861     -4833.3185      36.232368      4873.6179      278.3573       7924.6324      1.2683909      0.67735801   
     13900  -4797.2444     -4832.9601      35.715753      4523.0529      274.38837      7929.5994      1.2675964      0.67735801   
     14000  -4798.5335     -4833.6397      35.10624       4258.6578      269.70575      7927.9969      1.2678526      0.62929083   
     14100  -4797.9349     -4832.6608      34.725938      7253.1691      266.78406      7919.0815      1.26928        0.62929083   
     14200  -4797.7818     -4833.7017      35.919934      4653.7997      275.95701      7908.9669      1.2709032      0.62929083   
     14300  -4797.1919     -4832.7638      35.571843      4477.1299      273.28278      7900.073       1.272334       0.62929083   
     14400  -4797.046      -4832.3911      35.34503       5414.7074      271.54027      7895.1758      1.2731232      0.62929083   
     14500  -4797.6251     -4834.5028      36.877696      5472.2265      283.31507      7896.6512      1.2728854      0.62929083   
     14600  -4795.5527     -4832.799       37.246257      7003.2041      286.14656      7900.3753      1.2722853      0.62929083   
     14700  -4795.8501     -4833.4457      37.595613      7075.7947      288.83051      7907.3213      1.2711677      0.62929083   
     14800  -4796.6428     -4832.1168      35.47399       4948.3703      272.53102      7912.9311      1.2702666      0.62929083   
     14900  -4797.8967     -4833.3666      35.469894      4870.6502      272.49955      7916.7466      1.2696543      0.62929083   
     15000  -4798.5172     -4832.6139      34.096715      2114.9317      261.95002      7920.2583      1.2690914      0.70749813   
     15100  -4798.5703     -4833.6179      35.047633      2414.3725      269.2555       7919.8944      1.2691497      0.70749813   
     15200  -4798.3078     -4834.3425      36.034678      2565.157       276.83853      7918.7568      1.269332       0.70749813   
     15300  -4797.9299     -4832.3468      34.416921      1511.8248      264.41001      7914.1567      1.2700698      0.70749813   
     15400  -4798.039      -4832.9106      34.87163       6242.0355      267.90335      7907.8423      1.271084       0.70749813   
     15500  -4797.4969     -4833.582       36.085132      4059.5508      277.22615      7903.4276      1.271794       0.70749813   
     15600  -4796.7487     -4833.0139      36.265247      2477.8633      278.60989      7900.0253      1.2723417      0.70749813   
     15700  -4795.6263     -4833.5793      37.952914      5339.6053      291.57549      7898.6851      1.2725576      0.70749813   
     15800  -4795.7611     -4832.6476      36.886448      6216.2125      283.38231      7901.8141      1.2720537      0.70749813   
     15900  -4796.0843     -4832.864       36.779682      8115.5865      282.56207      7915.3163      1.2698838      0.70749813   
     16000  -4794.544      -4832.1783      37.634321      4993.5075      289.12789      7937.0005      1.2664144      0.65173305   
     16100  -4795.771      -4832.0429      36.271899      4748.1309      278.661        7961.1592      1.2625714      0.65173305   
     16200  -4797.3862     -4832.7447      35.358499      5157.9881      271.64375      7979.9497      1.2595984      0.65173305   
     16300  -4796.304      -4831.4517      35.147687      4635.1904      270.02417      7978.7233      1.259792       0.65173305   
     16400  -4796.2968     -4832.8244      36.527667      2029.4122      280.62594      7963.0806      1.2622667      0.65173305   
     16500  -4796.3495     -4831.0992      34.749648      6168.9904      266.96621      7933.949       1.2669015      0.65173305   
     16600  -4797.1325     -4832.6577      35.525171      6396.7683      272.92422      7905.0164      1.2715384      0.65173305   
     16700  -4796.753      -4832.8461      36.093067      4463.1021      277.28711      7880.6111      1.2754762      0.65173305   
     16800  -4797.7378     -4833.5082      35.770307      6833.3374      274.80749      7865.7148      1.2778917      0.65173305   
     16900  -4797.5889     -4832.2647      34.675716      5608.3878      266.39823      7864.9868      1.27801        0.65173305   
     17000  -4797.9687     -4833.7636      35.794858      4200.1092      274.9961       7875.4957      1.2763046      0.64458057   
     17100  -4798.2098     -4833.1257      34.91593       4688.3276      268.24369      7890.0706      1.273947       0.64458057   
     17200  -4796.4027     -4833.939       37.53632       3305.4553      288.37498      7905.1586      1.2715155      0.64458057   
     17300  -4796.9359     -4833.5553      36.619392      8296.3486      281.33063      7920.7581      1.2690113      0.64458057   
     17400  -4796.0559     -4832.3604      36.304413      4557.4475      278.91078      7933.6412      1.2669506      0.64458057   
     17500  -4795.6678     -4832.682       37.014162      5614.1161      284.36348      7944.1136      1.2652805      0.64458057   
     17600  -4796.2181     -4831.5839      35.365788      4910.9935      271.69974      7947.2176      1.2647863      0.64458057   
     17700  -4795.5006     -4832.3133      36.81279       5349.6233      282.81642      7943.3968      1.2653946      0.64458057   
     17800  -4796.2228     -4831.9647      35.741954      3936.6112      274.58966      7934.3612      1.2668357      0.64458057   
     17900  -4795.957      -4833.0441      37.087112      6661.966       284.92392      7920.2563      1.2690917      0.64458057   
     18000  -4796.2215     -4832.8334      36.611842      4504.0354      281.27263      7903.9639      1.2717077      0.67874192   
     18100  -4795.712      -4831.666       35.953985      5460.7256      276.2186       7896.5608      1.2728999      0.67874192   
     18200  -4797.8615     -4832.4143      34.552844      8614.9214      265.45425      7898.8237      1.2725353      0.67874192   
     18300  -4797.5831     -4834.3798      36.796707      4620.6227      282.69286      7909.0723      1.2708863      0.67874192   
     18400  -4798.3924     -4833.7509      35.358491      5716.2157      271.64368      7920.2504      1.2690927      0.67874192   
     18500  -4798.0639     -4834.534       36.470076      5189.7828      280.1835       7932.128       1.2671923      0.67874192   
     18600  -4798.4599     -4833.7202      35.260281      4452.0121      270.88918      7939.5415      1.2660091      0.67874192   
     18700  -4797.3549     -4833.3142      35.959348      5251.4309      276.25981      7937.8276      1.2662824      0.67874192   
     18800  -4798.4978     -4834.7105      36.212726      5826.3904      278.2064       7930.225       1.2674964      0.67874192   
     18900  -4797.8358     -4833.0839      35.248108      5744.6282      270.79566      7918.5227      1.2693696      0.67874192   
     19000  -4796.6322     -4833.0604      36.428247      6030.3442      279.86215      7907.1149      1.2712009      0.74438051   
     19100  -4794.5423     -4831.7584      37.216081      6107.6786      285.91473      7903.1837      1.2718332      0.74438051   
     19200  -4796.1733     -4832.4571      36.283802      5189.8435      278.75244      7911.2394      1.2705382      0.74438051   
     19300  -4796.1894     -4832.559       36.369595      1905.5111      279.41155      7929.1141      1.267674       0.74438051   
     19400  -4796.7671     -4832.5428      35.775733      5460.3377      274.84917      7948.2576      1.2646208      0.74438051   
     19500  -4796.9553     -4832.2886      35.333273      2985.1205      271.44995      7963.7357      1.2621629      0.74438051   
     19600  -4797.3074     -4832.809       35.501541      2206.4728      272.74267      7973.844       1.2605629      0.74438051   
     19700  -4796.7564     -4832.2415      35.485093      7638.9608      272.61632      7972.9073      1.260711       0.74438051   
     19800  -4795.7373     -4833.4367      37.699319      6747.9273      289.62723      7965.0694      1.2619516      0.74438051   
     19900  -4796.6714     -4832.3761      35.7047        4361.4576      274.30346      7957.5018      1.2631517      0.74438051   
     20000  -4797.1779     -4832.4287      35.250753      5578.4848      270.81598      7950.3006      1.2642958      0.63631174   
     20100  -4797.5425     -4833.3993      35.856824      5502.0641      275.47216      7941.6122      1.265679       0.63631174   
     20200  -4798.1022     -4834.3715      36.269279      6041.8883      278.64087      7926.2412      1.2681335      0.63631174   
     20300  -4798.0997     -4833.9258      35.826177      3655.3084      275.23671      7908.0425      1.2710518      0.63631174   
     20400  -4797.2136     -4832.2211      35.007445      3448.6801      268.94675      7891.8738      1.2736559      0.63631174   
     20500  -4797.34       -4832.9496      35.609615      4732.1109      273.57296      7890.7687      1.2738343      0.63631174   
     20600  -4796.453      -4831.9663      35.513308      4968.1         272.83308      7902.0376      1.2720177      0.63631174   
     20700  -4797.3249     -4833.1958      35.870958      3277.2931      275.58074      7923.045       1.268645       0.63631174   
     20800  -4797.1875     -4833.0363      35.848763      3810.1423      275.41023      7947.4542      1.2647486      0.63631174   
     20900  -4797.6199     -4832.9595      35.339525      5032.0601      271.49798      7968.7434      1.2613697      0.63631174   
     21000  -4796.5385     -4833.5469      37.00838       3022.8837      284.31906      7978.1599      1.2598809      0.67381644   
     21100  -4795.9323     -4832.1803      36.247923      4267.5266      278.4768       7969.6006      1.261234       0.67381644   
     21200  -4794.0738     -4831.615       37.541179      3419.1454      288.41232      7951.4662      1.2641105      0.67381644   
     21300  -4794.4383     -4831.6284      37.190034      4844.619       285.71462      7930.9709      1.2673772      0.67381644   
     21400  -4794.5965     -4830.6514      36.054916      6279.0783      276.99401      7914.352       1.2700385      0.67381644   
     21500  -4793.9055     -4830.524       36.618531      4441.1739      281.32402      7910.2322      1.2707         0.67381644   
     21600  -4794.3267     -4831.4851      37.15836       4811.8348      285.47128      7914.1145      1.2700766      0.67381644   
     21700  -4794.4035     -4832.7988      38.395272      7301.8932      294.97393      7926.7546      1.2680513      0.67381644   
     21800  -4795.4706     -4831.3538      35.883167      2450.7823      275.67454      7944.6123      1.265201       0.67381644   
     21900  -4797.0802     -4832.7098      35.62957       937.80227      273.72626      7960.7356      1.2626386      0.67381644   
     22000  -4797.7149     -4832.9534      35.238511      471.07518      270.72193      7965.5685      1.2618725      0.67535647   
     22100  -4797.8821     -4832.4538      34.571605     -521.99246      265.59839      7959.687       1.2628049      0.67535647   
     22200  -4797.419      -4831.3756      33.956608      3415.0599      260.87364      7946.859       1.2648433      0.67535647   
     22300  -4797.3701     -4831.3465      33.976421      4126.1435      261.02585      7931.7477      1.2672531      0.67535647   
     22400  -4796.358      -4832.3211      35.963167      4864.8562      276.28914      7917.9986      1.2694536      0.67535647   
     22500  -4796.005      -4831.368       35.363         5945.7279      271.67833      7906.2298      1.2713432      0.67535647   
     22600  -4797.3503     -4833.7496      36.399323      1779.9051      279.63994      7899.8675      1.2723671      0.67535647   
     22700  -4797.6747     -4833.3941      35.719483      4848.8277      274.41702      7899.7538      1.2723854      0.67535647   
     22800  -4796.9549     -4832.7165      35.761584      5801.1901      274.74047      7905.0383      1.2715348      0.67535647   
     22900  -4797.4859     -4832.6802      35.194298      4866.5859      270.38226      7913.8081      1.2701258      0.67535647   
     23000  -4797.0002     -4832.564       35.563854      4703.3501      273.2214       7919.8162      1.2691622      0.68321996   
     23100  -4798.1417     -4832.687       34.545345      5931.0679      265.39664      7920.014       1.2691305      0.68321996   
     23200  -4798.9715     -4833.7847      34.813221      3694.1931      267.45462      7916.8676      1.2696349      0.68321996   
     23300  -4799.0678     -4834.2504      35.182559      5353.1227      270.29208      7911.6348      1.2704747      0.68321996   
     23400  -4799.4131     -4835.0584      35.645256      4884.7199      273.84678      7906.4353      1.2713102      0.68321996   
     23500  -4799.2469     -4833.6898      34.442884      1860.5209      264.60948      7897.923       1.2726804      0.68321996   
     23600  -4799.1589     -4833.8295      34.67068       2555.2696      266.35954      7886.7645      1.274481       0.68321996   
     23700  -4798.8519     -4831.9032      33.051347      2911.5708      253.91892      7879.991       1.2755765      0.68321996   
     23800  -4798.7078     -4833.1586      34.450843      4156.1415      264.67063      7881.2212      1.2753774      0.68321996   
     23900  -4798.5517     -4835.6109      37.059224      5738.7929      284.70967      7887.4989      1.2743624      0.68321996   
     24000  -4797.9338     -4833.6379      35.704057      3960.5246      274.29851      7899.2397      1.2724682      0.71152179   
     24100  -4798.3411     -4833.168       34.826882      6341.5756      267.55957      7914.3598      1.2700372      0.71152179   
     24200  -4799.1953     -4834.5654      35.37011       8019.8854      271.73295      7927.5328      1.2679268      0.71152179   
     24300  -4798.0777     -4833.9074      35.829687      3928.8671      275.26367      7936.9689      1.2664194      0.71152179   
     24400  -4798.0025     -4834.4839      36.481427      4695.7772      280.27071      7941.9383      1.265627       0.71152179   
     24500  -4797.5521     -4832.0542      34.502095      4787.8969      265.06437      7941.7427      1.2656582      0.71152179   
     24600  -4799.0063     -4834.2059      35.199583      6148.1673      270.42286      7938.0081      1.2662536      0.71152179   
     24700  -4799.6291     -4833.8952      34.266077      2267.1098      263.25115      7927.708       1.2678988      0.71152179   
     24800  -4799.7098     -4834.1902      34.480344      2213.939       264.89727      7913.4264      1.270187       0.71152179   
     24900  -4799.1454     -4834.6886      35.543153      6348.1246      273.06236      7896.3223      1.2729384      0.71152179   
     25000  -4798.5197     -4834.0128      35.493157      4023.3527      272.67826      7885.2723      1.2747222      0.73313944   
     25100  -4798.6966     -4834.7144      36.017762      7320.9226      276.70857      7882.9488      1.2750979      0.73313944   
     25200  -4797.6779     -4832.9707      35.29281       4091.9981      271.13908      7891.9933      1.2736366      0.73313944   
     25300  -4797.2147     -4833.0467      35.832076      3705.6783      275.28203      7911.5076      1.2704951      0.73313944   
     25400  -4796.378      -4832.2191      35.841064      3776.8132      275.35108      7935.2148      1.2666994      0.73313944   
     25500  -4796.9067     -4833.4134      36.506674      4879.8553      280.46467      7957.7594      1.2631108      0.73313944   
     25600  -4796.4661     -4831.003       34.536905      2504.4363      265.3318       7973.7329      1.2605804      0.73313944   
     25700  -4796.616      -4832.5107      35.894725      3742.8248      275.76334      7979.7669      1.2596272      0.73313944   
     25800  -4796.774      -4832.4336      35.6596        3196.6404      273.95697      7973.4285      1.2606286      0.73313944   
     25900  -4797.5062     -4833.1415      35.635298      3878.7592      273.77027      7956.9296      1.2632425      0.73313944   
     26000  -4798.6639     -4834.5697      35.905789      2689.6206      275.84833      7927.9448      1.267861       0.74784419   
     26100  -4798.908      -4834.2214      35.313401      6676.3802      271.29728      7895.0107      1.2731499      0.74784419   
     26200  -4797.3818     -4833.3194      35.937621      3196.8726      276.09288      7864.65        1.2780647      0.74784419   
     26300  -4797.81       -4832.7142      34.904231      4913.2603      268.15381      7843.0688      1.2815815      0.74784419   
     26400  -4798.5767     -4833.8235      35.246823      4058.5569      270.78579      7837.0114      1.282572       0.74784419   
     26500  -4797.5533     -4833.168       35.614669      4992.9343      273.61179      7846.0908      1.2810879      0.74784419   
     26600  -4797.933      -4832.4303      34.497346      6942.0055      265.02789      7872.169       1.276844       0.74784419   
     26700  -4797.0816     -4832.7932      35.711588      6191.8831      274.35637      7914.9928      1.2699357      0.74784419   
     26800  -4797.1821     -4832.1655      34.983378      4451.9499      268.76185      7964.0432      1.2621142      0.74784419   
     26900  -4797.7263     -4832.9146      35.188321      3122.1815      270.33634      8009.2214      1.2549949      0.74784419   
     27000  -4798.1453     -4832.7377      34.5924        1274.8166      265.75814      8032.0409      1.2514293      0.69109075   
     27100  -4797.025      -4832.8014      35.77642       3275.1922      274.85445      8024.5405      1.252599       0.69109075   
     27200  -4797.2965     -4832.2619      34.965367      2592.7515      268.62349      7987.6126      1.25839        0.69109075   
     27300  -4796.4871     -4831.9316      35.444425      3126.4866      272.30388      7934.2255      1.2668573      0.69109075   
     27400  -4795.0632     -4831.9405      36.877276      5008.0858      283.31184      7883.5055      1.2750079      0.69109075   
     27500  -4796.0106     -4832.0873      36.07671       7024.1775      277.16144      7844.5862      1.2813336      0.69109075   
     27600  -4796.4467     -4832.3503      35.903602      5490.7779      275.83153      7829.5106      1.2838008      0.69109075   
     27700  -4796.7081     -4833.271       36.562842      2971.5964      280.89618      7838.3596      1.2823514      0.69109075   
     27800  -4797.4877     -4831.9101      34.422369      6681.0082      264.45187      7869.9531      1.2772035      0.69109075   
     27900  -4797.3316     -4833.9796      36.648053      5767.3326      281.55082      7914.4356      1.2700251      0.69109075   
     28000  -4798.9889     -4834.5716      35.582701      6884.3163      273.36619      7955.2353      1.2635116      0.67716279   
     28100  -4797.8649     -4834.0548      36.189877      6841.0656      278.03086      7979.9782      1.2595939      0.67716279   
     28200  -4797.95       -4833.2537      35.303655      3990.2962      271.22241      7986.3396      1.2585906      0.67716279   
     28300  -4796.5925     -4832.941       36.348563      3678.4799      279.24997      7979.4214      1.2596818      0.67716279   
     28400  -4795.4779     -4831.7218      36.24396       5386.8366      278.44635      7965.2179      1.261928       0.67716279   
     28500  -4794.3261     -4831.4941      37.168004      8257.4082      285.54538      7945.0937      1.2651244      0.67716279   
     28600  -4795.6127     -4831.8668      36.254097      7786.8543      278.52423      7921.7709      1.2688491      0.67716279   
     28700  -4795.9081     -4831.6618      35.753709      4504.9256      274.67997      7907.2016      1.271187       0.67716279   
     28800  -4795.3579     -4832.4566      37.098628      6821.3038      285.01239      7900.3259      1.2722933      0.67716279   
     28900  -4794.7928     -4832.284       37.491215      5078.1869      288.02847      7901.5973      1.2720886      0.67716279   
     29000  -4795.8759     -4832.2516      36.375633      9854.5659      279.45794      7909.2992      1.2708499      0.69875675   
     29100  -4794.8741     -4831.5751      36.701055      5522.1371      281.95801      7925.5868      1.2682382      0.69875675   
     29200  -4795.8326     -4832.262       36.429378      7268.0486      279.87084      7943.9754      1.2653025      0.69875675   
     29300  -4796.8775     -4832.9813      36.103825      1863.8676      277.36975      7960.3691      1.2626967      0.69875675   
     29400  -4796.3243     -4832.3437      36.0194        6431.4666      276.72116      7967.2671      1.2616034      0.69875675   
     29500  -4797.0381     -4832.2563      35.218217      6878.8613      270.56602      7964.6898      1.2620117      0.69875675   
     29600  -4797.0075     -4831.9983      34.990802      6387.4367      268.8189       7955.3337      1.2634959      0.69875675   
     29700  -4796.5315     -4832.7094      36.177841      6829.0384      277.93839      7939.8253      1.2659638      0.69875675   
     29800  -4796.3475     -4832.4705      36.123017      8551.4669      277.5172       7921.1486      1.2689488      0.69875675   
     29900  -4795.8034     -4831.5715      35.768125      5236.3172      274.79072      7907.8923      1.271076       0.69875675   
     30000  -4796.1513     -4832.3459      36.1946        4906.133       278.06714      7903.2974      1.2718149      0.7160393    
     30100  -4796.5757     -4833.5536      36.977851      876.94073      284.08451      7905.354       1.2714841      0.7160393    
     30200  -4796.5709     -4832.216       35.645184      4343.1418      273.84622      7910.7892      1.2706105      0.7160393    
     30300  -4795.762      -4833.4376      37.675607      7136.6783      289.44507      7921.7554      1.2688516      0.7160393    
     30400  -4795.7955     -4831.6723      35.876813      6318.1056      275.62572      7935.3522      1.2666774      0.7160393    
     30500  -4795.1174     -4830.9106      35.79315       6390.8429      274.98298      7947.9684      1.2646668      0.7160393    
     30600  -4795.1161     -4831.4538      36.337672      3703.4287      279.1663       7952.7022      1.263914       0.7160393    
     30700  -4795.0601     -4831.2638      36.203636      6335.1241      278.13656      7948.4727      1.2645865      0.7160393    
     30800  -4795.5243     -4830.939       35.414658      6697.4695      272.07519      7937.8813      1.2662739      0.7160393    
     30900  -4794.79       -4830.4784      35.688435      7762.1752      274.1785       7921.2681      1.2689296      0.7160393    
     31000  -4794.3097     -4831.8001      37.490372      4071.0136      288.02198      7907.7421      1.2711001      0.64769243   
     31100  -4794.2944     -4832.1466      37.852136      5941.4972      290.80126      7904.3215      1.2716502      0.64769243   
     31200  -4794.6361     -4830.9036      36.267483      5767.23        278.62707      7903.4822      1.2717852      0.64769243   
     31300  -4796.0856     -4833.0203      36.934711      4606.9053      283.75309      7907.67        1.2711117      0.64769243   
     31400  -4793.9679     -4832.3288      38.360931      4016.2153      294.71011      7911.7604      1.2704545      0.64769243   
     31500  -4795.2793     -4833.1255      37.846158      4314.3723      290.75534      7916.9149      1.2696274      0.64769243   
     31600  -4796.0387     -4831.4017      35.362967      6560.6357      271.67807      7922.7299      1.2686955      0.64769243   
     31700  -4796.4909     -4832.7864      36.295504      8862.3665      278.84234      7927.91        1.2678665      0.64769243   
     31800  -4795.3297     -4832.4247      37.095054      2487.0559      284.98493      7931.7464      1.2672533      0.64769243   
     31900  -4793.3914     -4830.9303      37.538969      8979.8902      288.39533      7934.5024      1.2668131      0.64769243   
     32000  -4794.0614     -4831.0249      36.963472      5187.9887      283.97405      7934.847       1.2667581      0.76107407   
     32100  -4793.6386     -4832.1044      38.465831      2414.3782      295.51601      7932.006       1.2672118      0.76107407   
     32200  -4793.5787     -4831.3721      37.793415      5147.6999      290.35013      7931.922       1.2672252      0.76107407   
     32300  -4794.9354     -4830.6955      35.760121      2764.0618      274.72923      7940.8624      1.2657985      0.76107407   
     32400  -4795.55       -4831.504       35.954036      7758.8994      276.219        7956.3147      1.2633401      0.76107407   
     32500  -4796.9745     -4833.1939      36.219406      4581.5696      278.25771      7965.2905      1.2619165      0.76107407   
     32600  -4795.9454     -4833.0387      37.093389      4417.9571      284.97214      7966.0665      1.2617936      0.76107407   
     32700  -4795.0613     -4832.2079      37.146553      4808.3029      285.38057      7959.7652      1.2627925      0.76107407   
     32800  -4794.4379     -4830.2091      35.771242      82.638027      274.81467      7951.0598      1.2641751      0.76107407   
     32900  -4793.915      -4830.2779      36.362888      3857.6901      279.36002      7940.2684      1.2658932      0.76107407   
     33000  -4793.9969     -4831.9183      37.921424      7804.3804      291.33357      7931.327       1.2673203      0.81028225   
     33100  -4794.634      -4831.5485      36.914533      4944.1546      283.59807      7926.195       1.2681409      0.81028225   
     33200  -4795.4924     -4831.8461      36.353721      1242.5589      279.2896       7922.3328      1.2687591      0.81028225   
     33300  -4796.5621     -4832.705       36.142818      5701.1522      277.66932      7923.1667      1.2686255      0.81028225   
     33400  -4798.3124     -4832.4127      34.100249      6182.3908      261.97717      7925.0806      1.2683192      0.81028225   
     33500  -4797.1723     -4833.2302      36.05793       4833.4945      277.01717      7920.5328      1.2690474      0.81028225   
     33600  -4798.3073     -4833.5065      35.199201      6878.6104      270.41993      7909.3915      1.270835       0.81028225   
     33700  -4798.227      -4833.2668      35.039741      2967.6434      269.19487      7894.0599      1.2733032      0.81028225   
     33800  -4796.816      -4832.4492      35.633181      3857.7744      273.75401      7880.2448      1.2755355      0.81028225   
     33900  -4795.4343     -4832.1908      36.756482      3846.6525      282.38383      7875.1183      1.2763658      0.81028225   
     34000  -4796.2945     -4832.675       36.380509      7167.4996      279.4954       7882.7586      1.2751287      0.68561731   
     34100  -4796.7993     -4833.6236      36.824344      8426.6348      282.90519      7896.7076      1.2728763      0.68561731   
     34200  -4796.768      -4831.9676      35.199596      9376.0836      270.42297      7914.0427      1.2700881      0.68561731   
     34300  -4797.3518     -4832.5315      35.179703      7316.7073      270.27013      7934.477       1.2668172      0.68561731   
     34400  -4795.5267     -4832.2285      36.701846      2170.6791      281.96409      7949.9928      1.2643448      0.68561731   
     34500  -4795.6573     -4832.1651      36.507757      4811.1983      280.47299      7958.5744      1.2629814      0.68561731   
     34600  -4795.7615     -4831.7219      35.960402      3464.5286      276.2679       7956.302       1.2633421      0.68561731   
     34700  -4795.9054     -4831.9306      36.025283      3925.8546      276.76636      7945.7514      1.2650196      0.68561731   
     34800  -4797.0093     -4834.0225      37.013219      4463.7288      284.35623      7932.6919      1.2671022      0.68561731   
     34900  -4797.0201     -4833.4681      36.447983      2709.1906      280.01377      7920.5352      1.269047       0.68561731   
     35000  -4798.7286     -4833.9079      35.179268      6033.1098      270.26679      7909.4526      1.2708252      0.6724093    
     35100  -4797.8512     -4833.3789      35.527741      3733.3242      272.94396      7900.5258      1.2722611      0.6724093    
     35200  -4799.146      -4833.7568      34.610857      3648.818       265.89994      7898.6189      1.2725683      0.6724093    
     35300  -4799.5604     -4834.1533      34.592955      7259.9687      265.76241      7903.3807      1.2718015      0.6724093    
     35400  -4798.9897     -4833.4302      34.440488      2252.2736      264.59107      7909.3025      1.2708493      0.6724093    
     35500  -4798.0972     -4833.624       35.526859      105.54848      272.93718      7916.1658      1.2697475      0.6724093    
     35600  -4797.0783     -4831.9646      34.886349      2518.6237      268.01643      7925.8042      1.2682034      0.6724093    
     35700  -4797.0771     -4832.5534      35.476281      3374.2126      272.54861      7936.2173      1.2665394      0.6724093    
     35800  -4797.8615     -4833.8274      35.965942      5460.1255      276.31046      7943.2279      1.2654215      0.6724093    
     35900  -4798.0045     -4832.9971      34.992591      7071.882       268.83264      7944.1347      1.2652771      0.6724093    
     36000  -4797.293      -4834.3721      37.07908       3938.2644      284.86221      7939.0194      1.2660923      0.71934495   
     36100  -4796.2059     -4832.7006      36.494691      4865.9941      280.37261      7927.1096      1.2679945      0.71934495   
     36200  -4794.9548     -4830.6139      35.659109      6443.3105      273.9532       7914.7349      1.2699771      0.71934495   
     36300  -4796.3498     -4832.1664      35.816603      6946.6158      275.16316      7909.4274      1.2708293      0.71934495   
     36400  -4795.5506     -4832.0231      36.472508      3927.5187      280.20219      7912.9481      1.2702638      0.71934495   
     36500  -4796.4128     -4832.6741      36.26125       6514.3044      278.57919      7923.4171      1.2685855      0.71934495   
     36600  -4796.0898     -4832.7124      36.622598      3985.1374      281.35526      7939.2539      1.2660549      0.71934495   
     36700  -4797.0947     -4831.4016      34.306922      6060.8903      263.56495      7957.2404      1.2631932      0.71934495   
     36800  -4795.7        -4832.8673      37.16732       4395.8679      285.54012      7969.7408      1.2612119      0.71934495   
     36900  -4796.5473     -4831.8614      35.314112      4259.0999      271.30274      7973.9212      1.2605507      0.71934495   
     37000  -4796.4674     -4831.831       35.363575      4050.1292      271.68274      7968.3067      1.2614389      0.66504763   
     37100  -4796.22       -4832.1941      35.974106      8377.8937      276.37318      7953.6476      1.2637638      0.66504763   
     37200  -4797.519      -4833.1588      35.639768      4752.4662      273.80461      7933.4037      1.2669885      0.66504763   
     37300  -4797.7028     -4834.0942      36.391356      2731.2987      279.57873      7913.7588      1.2701337      0.66504763   
     37400  -4796.4978     -4832.1689      35.67113       4848.3814      274.04555      7897.6028      1.272732       0.66504763   
     37500  -4795.7216     -4831.9209      36.199243      7292.3879      278.10281      7893.0444      1.273467       0.66504763   
     37600  -4795.0582     -4831.7212      36.662949      4181.0233      281.66526      7903.8558      1.2717251      0.66504763   
     37700  -4795.0302     -4832.5566      37.526344      3148.1476      288.29834      7920.0959      1.2691174      0.66504763   
     37800  -4796.034      -4833.8878      37.853738      4147.3977      290.81357      7939.5935      1.2660008      0.66504763   
     37900  -4796.135      -4832.2196      36.084537      3789.1821      277.22158      7963.409       1.2622147      0.66504763   
     38000  -4796.3704     -4832.7222      36.351766      3378.3791      279.27458      7984.3276      1.2589077      0.70356006   
     38100  -4797.5964     -4833.3161      35.719617      7360.3854      274.41805      7994.5525      1.2572976      0.70356006   
     38200  -4798.0963     -4833.3133      35.216964      4942.6595      270.5564       7992.6809      1.257592       0.70356006   
     38300  -4798.0816     -4833.8747      35.793137      3501.5508      274.98288      7973.852       1.2605616      0.70356006   
     38400  -4797.1509     -4833.2744      36.123466      4985.2742      277.52065      7941.8913      1.2656345      0.70356006   
     38500  -4796.547      -4832.1543      35.607326      7629.3835      273.55537      7907.754       1.2710982      0.70356006   
     38600  -4796.0022     -4831.7011      35.698971      11509.695      274.25944      7880.6565      1.2754688      0.70356006   
     38700  -4795.7088     -4832.1426      36.433822      7568.875       279.90498      7869.0221      1.2773546      0.70356006   
     38800  -4796.5404     -4831.6658      35.125367      5749.9063      269.85269      7875.8701      1.276244       0.70356006   
     38900  -4795.9758     -4831.4057      35.429874      3699.5784      272.19209      7894.9742      1.2731557      0.70356006   
     39000  -4798.1933     -4834.3663      36.173002      3777.7784      277.90121      7924.8872      1.2683501      0.74193331   
     39100  -4797.4569     -4834.1097      36.652794      5348.8902      281.58724      7951.8185      1.2640545      0.74193331   
     39200  -4797.509      -4833.4231      35.914088      3570.5194      275.91209      7963.5873      1.2621864      0.74193331   
     39300  -4796.9779     -4830.859       33.881049      910.78577      260.29315      7959.2858      1.2628686      0.74193331   
     39400  -4797.3384     -4832.2175      34.879121      2387.3446      267.9609       7945.944       1.264989       0.74193331   
     39500  -4797.6734     -4833.4685      35.795075      6430.8313      274.99777      7927.967       1.2678574      0.74193331   
     39600  -4797.1937     -4833.173       35.979292      6307.2938      276.41303      7911.4971      1.2704968      0.74193331   
     39700  -4797.8878     -4832.7526      34.864865      4693.2154      267.85137      7898.4294      1.2725988      0.74193331   
     39800  -4796.9705     -4832.9153      35.944799      6049.971       276.14803      7887.5482      1.2743544      0.74193331   
     39900  -4797.6165     -4832.7802      35.163622      7332.0636      270.14659      7877.8785      1.2759186      0.74193331   
     40000  -4796.6581     -4832.6617      36.003621      7721.8048      276.59993      7872.2435      1.2768319      0.70163938   
     40100  -4798.4488     -4833.8413      35.392442      6420.0125      271.90452      7880.0445      1.2755679      0.70163938   
     40200  -4798.6903     -4833.8649      35.174632      3325.4228      270.23118      7898.1973      1.2726362      0.70163938   
     40300  -4798.3597     -4834.6787      36.318922     -1570.121       279.02225      7924.0757      1.26848        0.70163938   
     40400  -4798.0186     -4833.7456      35.727         7081.3899      274.47477      7952.3917      1.2639634      0.70163938   
     40500  -4797.5678     -4833.3381      35.770222      9293.5763      274.80683      7974.801       1.2604116      0.70163938   
     40600  -4796.8206     -4832.2383      35.417695      6890.4955      272.09852      7989.3127      1.2581222      0.70163938   
     40700  -4795.8529     -4832.3688      36.51598       2803.3395      280.53616      7993.0395      1.2575356      0.70163938   
     40800  -4797.417      -4834.0768      36.659798      4205.3001      281.64106      7984.9523      1.2588092      0.70163938   
     40900  -4797.7042     -4832.9051      35.20095       5571.5594      270.43336      7964.3204      1.2620702      0.70163938   
     41000  -4797.4434     -4832.9823      35.538847      3632.325       273.02928      7935.4469      1.2666623      0.61911293   
     41100  -4796.849      -4832.3347      35.485682      4957.3299      272.62083      7904.3834      1.2716402      0.61911293   
     41200  -4796.5625     -4832.4826      35.920158      4016.7409      275.95873      7881.1987      1.2753811      0.61911293   
     41300  -4797.2256     -4833.1177      35.892118      6248.8945      275.74331      7869.8461      1.2772209      0.61911293   
     41400  -4796.5595     -4832.4686      35.909145      8449.5572      275.87412      7874.7327      1.2764283      0.61911293   
     41500  -4797.2037     -4833.2111      36.007454      6301.7027      276.62938      7894.8131      1.2731817      0.61911293   
     41600  -4797.634      -4833.7672      36.133166      4037.8124      277.59517      7926.1153      1.2681536      0.61911293   
     41700  -4798.0091     -4833.4928      35.483634      6320.4532      272.60511      7960.6499      1.2626522      0.61911293   
     41800  -4796.6855     -4832.6871      36.00156       2649.8779      276.5841       7992.6728      1.2575933      0.61911293   
     41900  -4795.8017     -4832.8042      37.00245       908.28883      284.2735       8010.553       1.2547862      0.61911293   
     42000  -4797.1427     -4833.0354      35.892706      2378.3064      275.74782      8008.5188      1.255105       0.64038824   
     42100  -4795.8889     -4831.5295      35.640539      7037.833       273.81053      7983.0214      1.2591137      0.64038824   
     42200  -4796.1282     -4834.384       38.255732      5113.4719      293.90191      7946.2974      1.2649327      0.64038824   
     42300  -4796.9137     -4832.4923      35.57862       3889.8665      273.33484      7907.8733      1.271079       0.64038824   
     42400  -4796.9578     -4833.5486      36.590765      7276.0033      281.1107       7875.6524      1.2762792      0.64038824   
     42500  -4796.1286     -4832.1585      36.029843      7610.0948      276.80139      7857.529       1.279223       0.64038824   
     42600  -4796.6607     -4833.3975      36.736829      6351.0605      282.23285      7858.5396      1.2790585      0.64038824   
     42700  -4796.0754     -4833.0763      37.000936      5391.9901      284.26186      7876.6144      1.2761234      0.64038824   
     42800  -4795.9099     -4833.0391      37.129209      7773.9549      285.24733      7904.5957      1.271606       0.64038824   
     42900  -4796.6307     -4832.0844      35.453757      5614.0427      272.37557      7937.1196      1.2663954      0.64038824   
     43000  -4796.9246     -4832.9728      36.048187      756.08208      276.94232      7967.4195      1.2615793      0.63792391   
     43100  -4796.5365     -4832.1576      35.62108       4625.7897      273.66104      7983.8712      1.2589797      0.63792391   
     43200  -4795.8558     -4832.582       36.726257      5140.93        282.15163      7989.4556      1.2580997      0.63792391   
     43300  -4796.5055     -4832.6894      36.183904      3770.5344      277.98497      7989.8697      1.2580345      0.63792391   
     43400  -4796.0784     -4831.2625      35.184082      2844.7399      270.30378      7980.0612      1.2595808      0.63792391   
     43500  -4796.2585     -4831.4337      35.175189      2925.8791      270.23546      7957.8713      1.263093       0.63792391   
     43600  -4796.2074     -4832.7312      36.523792      9209.828       280.59618      7931.567       1.267282       0.63792391   
     43700  -4797.07       -4833.1641      36.094081      6727.297       277.2949       7906.5912      1.2712851      0.63792391   
     43800  -4797.0754     -4831.5426      34.467279      5023.0923      264.7969       7891.3954      1.2737331      0.63792391   
     43900  -4798.4422     -4833.5855      35.143295      7239.5017      269.99043      7890.4822      1.2738805      0.63792391   
     44000  -4798.4885     -4833.0961      34.607631      8988.8683      265.87516      7901.6882      1.2720739      0.6822006    
     44100  -4798.7955     -4834.1172      35.321792      2595.3804      271.36174      7922.3789      1.2687517      0.6822006    
     44200  -4798.6333     -4834.6729      36.03966       3355.7237      276.87681      7938.5693      1.2661641      0.6822006    
     44300  -4798.8605     -4833.3409      34.480393      477.45379      264.89764      7948.0831      1.2646485      0.6822006    
     44400  -4798.9303     -4833.4612      34.530936      3722.9546      265.28595      7949.9585      1.2643502      0.6822006    
     44500  -4798.6815     -4833.1825      34.50096       4007.311       265.05565      7944.2         1.2652667      0.6822006    
     44600  -4797.9739     -4832.9214      34.947542      5575.9028      268.48654      7934.4049      1.2668287      0.6822006    
     44700  -4796.8909     -4832.0215      35.130606      2078.9511      269.89295      7923.0152      1.2686498      0.6822006    
     44800  -4796.8266     -4833.5299      36.703288      3182.6806      281.97517      7915.6176      1.2698354      0.6822006    
     44900  -4795.6731     -4832.3023      36.629196      8362.6817      281.40595      7912.9312      1.2702665      0.6822006    
     45000  -4794.772      -4830.6354      35.863337      7047.4394      275.52219      7916.515       1.2696915      0.6773       
     45100  -4794.4299     -4830.5803      36.150382      5893.0877      277.72743      7926.6537      1.2680675      0.6773       
     45200  -4795.3871     -4832.4276      37.040526      4522.2221      284.56602      7939.8054      1.265967       0.6773       
     45300  -4796.8119     -4834.2968      37.484967      4570.6191      287.98046      7950.3584      1.2642866      0.6773       
     45400  -4797.0636     -4833.2136      36.149922      5268.8244      277.7239       7953.8922      1.2637249      0.6773       
     45500  -4798.7094     -4834.153       35.443666      4338.7978      272.29804      7953.6826      1.2637582      0.6773       
     45600  -4798.9652     -4833.6541      34.68891       1854.2249      266.49959      7945.4193      1.2650725      0.6773       
     45700  -4799.0439     -4833.1206      34.076709      2926.9781      261.79632      7930.4758      1.2674563      0.6773       
     45800  -4798.8672     -4834.2209      35.353752      9581.0611      271.60728      7911.464       1.2705021      0.6773       
     45900  -4798.3797     -4833.8923      35.512557      6633.5391      272.8273       7891.8462      1.2736604      0.6773       
     46000  -4798.0789     -4833.7052      35.62629       8519.3016      273.70107      7881.3081      1.2753634      0.68561084   
     46100  -4797.8362     -4832.8838      35.047575      5505.664       269.25506      7885.6604      1.2746595      0.68561084   
     46200  -4798.2783     -4832.9457      34.667399      9021.9302      266.33433      7902.7894      1.2718967      0.68561084   
     46300  -4797.6803     -4833.357       35.676697      5243.2226      274.08832      7928.0642      1.2678419      0.68561084   
     46400  -4797.8477     -4834.1605      36.312719      5814.6499      278.97459      7957.6209      1.2631328      0.68561084   
     46500  -4797.9971     -4833.759       35.761865      1208.0031      274.74263      7985.3593      1.2587451      0.68561084   
     46600  -4798.6776     -4833.6184      34.940809      2858.5634      268.43482      8002.2103      1.2560944      0.68561084   
     46700  -4797.8525     -4832.8929      35.040348      4632.0258      269.19953      8005.5316      1.2555733      0.68561084   
     46800  -4797.2741     -4833.1386      35.864494      7857.4336      275.53108      7992.4448      1.2576292      0.68561084   
     46900  -4796.9605     -4831.6485      34.688068      8575.2112      266.49312      7971.8874      1.2608723      0.68561084   
     47000  -4795.164      -4830.9208      35.756763      4638.1912      274.70343      7947.1144      1.2648027      0.67759687   
     47100  -4795.7439     -4831.4175      35.673588      6411.337       274.06443      7925.114       1.2683138      0.67759687   
     47200  -4795.7188     -4832.5683      36.849481      7293.6788      283.0983       7909.0524      1.2708895      0.67759687   
     47300  -4796.3285     -4832.3418      36.013312      4014.2054      276.67438      7901.8326      1.2720507      0.67759687   
     47400  -4796.8766     -4832.6585      35.781919      2355.8697      274.8967       7905.4842      1.2714631      0.67759687   
     47500  -4796.1974     -4831.6747      35.477335      4762.6336      272.55671      7916.8546      1.269637       0.67759687   
     47600  -4797.4695     -4833.5289      36.05936       4969.8047      277.02815      7935.7656      1.2666115      0.67759687   
     47700  -4797.1512     -4832.9031      35.751913      4269.1124      274.66617      7951.5955      1.2640899      0.67759687   
     47800  -4797.5359     -4832.8287      35.292799      8510.9099      271.139        7961.8964      1.2624545      0.67759687   
     47900  -4796.0471     -4831.3591      35.311927      5552.4413      271.28596      7963.5459      1.262193       0.67759687   
     48000  -4796.5975     -4832.6999      36.102416      5149.7327      277.35893      7960.4532      1.2626833      0.67685476   
     48100  -4795.9831     -4831.9877      36.004574      4679.531       276.60725      7951.0604      1.264175       0.67685476   
     48200  -4794.4834     -4831.635       37.15153       3761.6294      285.41882      7943.2139      1.2654238      0.67685476   
     48300  -4794.8546     -4832.4837      37.629123      4880.4833      289.08795      7942.396       1.2655541      0.67685476   
     48400  -4794.9949     -4831.8509      36.855987      5210.837       283.14828      7943.7607      1.2653367      0.67685476   
     48500  -4796.0791     -4832.7811      36.702026      8901.3677      281.96547      7943.4204      1.2653909      0.67685476   
     48600  -4797.8923     -4832.5914      34.699096      4228.0714      266.57784      7945.774       1.2650161      0.67685476   
     48700  -4797.9383     -4830.6444      32.706077      2431.1788      251.26635      7943.4876      1.2653802      0.67685476   
     48800  -4798.5094     -4833.9401      35.430688      3685.455       272.19834      7937.5722      1.2663232      0.67685476   
     48900  -4798.0136     -4833.1336      35.11995       6222.9323      269.81108      7931.1812      1.2673436      0.67685476   
     49000  -4797.1076     -4832.1628      35.055135      6917.5154      269.31313      7924.9729      1.2683364      0.83483295   
     49100  -4796.8872     -4832.8455      35.958356      5802.8225      276.25218      7921.7891      1.2688462      0.83483295   
     49200  -4797.4994     -4833.7117      36.212271      4515.0694      278.2029       7922.3633      1.2687542      0.83483295   
     49300  -4796.3732     -4831.4889      35.115693      6443.5436      269.77837      7927.6059      1.2679152      0.83483295   
     49400  -4797.0611     -4832.2653      35.204288      6939.3997      270.45901      7934.1826      1.2668642      0.83483295   
     49500  -4796.8302     -4833.4532      36.622975      3519.8026      281.35816      7942.0169      1.2656145      0.83483295   
     49600  -4797.7781     -4834.2273      36.44921       4322.6926      280.0232       7945.2365      1.2651016      0.83483295   
     49700  -4798.0005     -4832.0615      34.06102       6777.5618      261.67579      7947.8858      1.2646799      0.83483295   
     49800  -4796.5358     -4831.791       35.255273      6665.0833      270.8507       7949.3485      1.2644472      0.83483295   
     49900  -4797.2907     -4833.8267      36.536028      6931.5375      280.69018      7948.5971      1.2645668      0.83483295   
     50000  -4796.056      -4833.4517      37.395708      1366.9882      287.29472      7941.5959      1.2656816      0.60850906   
     50100  -4797.9949     -4831.9526      33.957688      3533.4814      260.88193      7929.9681      1.2675375      0.60850906   
     50200  -4798.1453     -4834.083       35.937705      1012.4149      276.09353      7917.8799      1.2694726      0.60850906   
     50300  -4797.8852     -4832.6919      34.806691      7551.1964      267.40445      7909.0338      1.2708925      0.60850906   
     50400  -4797.4879     -4833.4788      35.990841      7198.3262      276.50175      7909.8935      1.2707544      0.60850906   
     50500  -4798.4367     -4832.8647      34.427989      4703.2956      264.49505      7920.8219      1.2690011      0.60850906   
     50600  -4799.1418     -4833.9221      34.780258      3901.005       267.20137      7936.2395      1.2665358      0.60850906   
     50700  -4798.9773     -4832.8412      33.863898      3068.4469      260.16139      7944.4401      1.2652285      0.60850906   
     50800  -4799.0901     -4835.2059      36.115795      4200.1717      277.46172      7942.4558      1.2655446      0.60850906   
     50900  -4797.7738     -4832.2057      34.431895      3661.7289      264.52506      7929.8647      1.267554       0.60850906   
     51000  -4797.9744     -4832.3677      34.393336      4053.6684      264.22883      7911.543       1.2704894      0.63407897   
     51100  -4798.8524     -4834.3567      35.504356      6324.3124      272.7643       7892.0062      1.2736345      0.63407897   
     51200  -4797.8131     -4832.9282      35.115126      5680.8765      269.77402      7876.3442      1.2761671      0.63407897   
     51300  -4797.0418     -4833.5085      36.466651      6885.3567      280.15719      7874.215       1.2765122      0.63407897   
     51400  -4797.1414     -4834.005       36.863622      6157.0715      283.20694      7883.2105      1.2750556      0.63407897   
     51500  -4796.7379     -4832.7278      35.989944      7339.3037      276.49486      7897.917       1.2726814      0.63407897   
     51600  -4795.8021     -4832.9804      37.178306      5270.4076      285.62452      7920.8704      1.2689933      0.63407897   
     51700  -4796.7742     -4832.392       35.617767      806.02234      273.63559      7946.7685      1.2648577      0.63407897   
     51800  -4797.4966     -4832.2362      34.739581      1526.7255      266.88888      7966.2858      1.2617589      0.63407897   
     51900  -4797.973      -4833.3423      35.369391      7926.1571      271.72742      7974.6399      1.2604371      0.63407897   
     52000  -4798.8065     -4832.4089      33.60245       6658.3389      258.1528       7969.2298      1.2612927      0.67653158   
     52100  -4797.9829     -4832.5479      34.565008      4900.4574      265.54771      7948.3407      1.2646075      0.67653158   
     52200  -4797.5467     -4831.9013      34.354588      5328.5532      263.93114      7919.5857      1.2691992      0.67653158   
     52300  -4797.294      -4832.2569      34.962938      1294.6024      268.60483      7888.0904      1.2742668      0.67653158   
     52400  -4797.391      -4832.8094      35.418335      2612.4812      272.10344      7858.7564      1.2790232      0.67653158   
     52500  -4798.296      -4832.5172      34.221212      5208.5985      262.90647      7838.1434      1.2823868      0.67653158   
     52600  -4796.635      -4832.0894      35.454357      7200.2694      272.38018      7832.9279      1.2832407      0.67653158   
     52700  -4795.6055     -4832.3178      36.712244      9064.944       282.04398      7849.5525      1.2805229      0.67653158   
     52800  -4797.2134     -4833.0144      35.801021      6155.4378      275.04345      7888.4174      1.274214       0.67653158   
     52900  -4798.0389     -4833.8658      35.826913      3530.3203      275.24236      7935.1645      1.2667074      0.67653158   
     53000  -4797.7719     -4833.3726      35.600651      3789.0593      273.5041       7979.1017      1.2597322      0.68960636   
     53100  -4795.0721     -4830.9415      35.869374      7307.6279      275.56858      8007.9194      1.2551989      0.68960636   
     53200  -4795.3727     -4832.6645      37.291836     -728.99209      286.49672      8018.5662      1.2535323      0.68960636   
     53300  -4795.2564     -4832.4547      37.198297      604.78676      285.7781       8008.1781      1.2551584      0.68960636   
     53400  -4794.4847     -4831.4721      36.98738       3309.0476      284.15772      7980.1439      1.2595677      0.68960636   
     53500  -4795.7134     -4831.3961      35.682681      6969.5138      274.13429      7946.312       1.2649304      0.68960636   
     53600  -4795.6108     -4832.6636      37.052866      8716.2202      284.66082      7916.699       1.269662       0.68960636   
     53700  -4795.7524     -4832.8462      37.093791      8703.6438      284.97523      7893.0264      1.2734699      0.68960636   
     53800  -4795.3001     -4833.1098      37.809763      4244.3508      290.47573      7880.3266      1.2755222      0.68960636   
     53900  -4795.4131     -4831.3532      35.940108      6102.7704      276.11199      7880.1766      1.2755465      0.68960636   
     54000  -4796.0905     -4831.8204      35.729878      6115.4868      274.49689      7895.6691      1.2730437      0.70599005   
     54100  -4797.0145     -4831.4216      34.407141      4821.2872      264.33488      7918.2515      1.269413       0.70599005   
     54200  -4797.3907     -4832.7664      35.37561       2317.8824      271.7752       7942.4388      1.2655473      0.70599005   
     54300  -4798.1392     -4833.1867      35.047584      6326.7786      269.25512      7961.8855      1.2624562      0.70599005   
     54400  -4797.5477     -4832.5945      35.046795      8485.5223      269.24906      7975.9721      1.2602265      0.70599005   
     54500  -4796.8396     -4833.14        36.300363      4170.2364      278.87967      7982.163       1.2592491      0.70599005   
     54600  -4796.7333     -4833.2855      36.552249      5943.2399      280.8148       7975.3215      1.2603293      0.70599005   
     54700  -4795.4341     -4832.0518      36.617741      6045.5532      281.31795      7957.5877      1.263138       0.70599005   
     54800  -4795.4911     -4831.5581      36.067004      5189.1028      277.08688      7937.7317      1.2662977      0.70599005   
     54900  -4795.1932     -4830.539       35.345855      2379.6221      271.54661      7917.7437      1.2694945      0.70599005   
     55000  -4796.6554     -4832.8122      36.156856      5887.1753      277.77717      7905.6661      1.2714339      0.68129956   
     55100  -4795.8347     -4832.6768      36.842074      4487.4452      283.0414       7902.912       1.271877       0.68129956   
     55200  -4795.2925     -4832.3374      37.044952      3024.5687      284.60002      7910.646       1.2706335      0.68129956   
     55300  -4794.8363     -4830.5818      35.745433      3915.6688      274.61639      7925.9014      1.2681878      0.68129956   
     55400  -4795.7776     -4833.2133      37.435661      5261.6606      287.60166      7941.9212      1.2656297      0.68129956   
     55500  -4795.4465     -4832.2547      36.808236      4278.3956      282.78144      7958.2223      1.2630373      0.68129956   
     55600  -4796.5762     -4831.7632      35.187047      1376.0685      270.32656      7975.4052      1.2603161      0.68129956   
     55700  -4796.4593     -4831.9631      35.503785      3209.8664      272.75992      7983.9113      1.2589734      0.68129956   
[...]
    386300  -4796.3698     -4832.9616      36.591825      9133.3771      281.11885      7941.3914      1.2657142      0.74939969   
    386400  -4798.1513     -4833.6633      35.51196       3864.4101      272.82272      7945.0997      1.2651234      0.74939969   
    386500  -4799.719      -4834.6382      34.919115      1396.4725      268.26815      7937.7508      1.2662947      0.74939969   
    386600  -4798.8549     -4833.4806      34.625729      3460.9822      266.0142       7921.5282      1.268888       0.74939969   
    386700  -4798.2577     -4833.1426      34.884942      2176.3177      268.00562      7903.8989      1.2717181      0.74939969   
    386800  -4797.5383     -4833.1673      35.629012      7416.1718      273.72198      7888.6857      1.2741706      0.74939969   
    386900  -4796.4329     -4832.204       35.771144      4360.9651      274.81392      7884.2759      1.2748833      0.74939969   
    387000  -4797.7856     -4832.8378      35.052258      4213.276       269.29103      7892.1128      1.2736173      0.77593254   
    387100  -4796.3686     -4831.9121      35.543463      823.13691      273.06474      7905.2501      1.2715008      0.77593254   
    387200  -4796.1015     -4831.2092      35.107719      6676.86        269.71711      7920.1075      1.2691156      0.77593254   
    387300  -4794.5573     -4832.1815      37.624263      6657.1409      289.05061      7937.4411      1.2663441      0.77593254   
    387400  -4796.2233     -4831.7764      35.553107      4992.0958      273.13883      7954.5142      1.2636261      0.77593254   
    387500  -4797.1539     -4833.1122      35.958339      7478.8108      276.25206      7966.7457      1.261686       0.77593254   
    387600  -4798.0899     -4833.5325      35.442582      3144.6675      272.28972      7971.4101      1.2609478      0.77593254   
    387700  -4797.7816     -4833.6517      35.870076      1834.3638      275.57396      7962.3034      1.2623899      0.77593254   
    387800  -4798.0859     -4833.471       35.38502       3441.4347      271.8475       7940.5416      1.2658496      0.77593254   
    387900  -4798.145      -4832.5954      34.450456      3201.1337      264.66765      7913.9038      1.2701104      0.77593254   
    388000  -4796.9423     -4833.0264      36.084088      5463.1957      277.21813      7888.7359      1.2741625      0.67358155   
    388100  -4797.2887     -4833.7281      36.439348      8387.0662      279.94743      7867.1906      1.277652       0.67358155   
    388200  -4795.9072     -4832.7405      36.833278      8159.613       282.97382      7855.9128      1.2794862      0.67358155   
    388300  -4795.4622     -4832.4835      37.02137       7141.3234      284.41885      7857.7014      1.2791949      0.67358155   
    388400  -4796.143      -4831.8288      35.685739      6783.4977      274.15778      7873.5095      1.2766266      0.67358155   
    388500  -4795.5533     -4830.973       35.419712      5535.7344      272.11402      7899.4462      1.272435       0.67358155   
    388600  -4796.0672     -4833.3187      37.251455      5325.3047      286.18649      7928.2443      1.2678131      0.67358155   
    388700  -4796.7669     -4832.797       36.030068      5153.675       276.80312      7950.9005      1.2642004      0.67358155   
    388800  -4796.8751     -4833.4164      36.541246      3308.4121      280.73027      7958.9557      1.2629209      0.67358155   
    388900  -4796.1055     -4832.9708      36.865259      2518.9646      283.21952      7955.7243      1.2634339      0.67358155   
    389000  -4796.1622     -4831.8737      35.711522      6125.6052      274.35587      7943.4599      1.2653846      0.65984577   
    389100  -4794.5841     -4831.4544      36.870259      1896.5176      283.25793      7928.2382      1.267814       0.65984577   
    389200  -4795.7771     -4832.7234      36.946327      4093.5033      283.84233      7910.9256      1.2705886      0.65984577   
    389300  -4796.6505     -4833.3377      36.687223      3552.1619      281.85174      7894.1636      1.2732865      0.65984577   
    389400  -4796.5479     -4832.7325      36.184609      2636.1734      277.99039      7881.3083      1.2753633      0.65984577   
    389500  -4796.7064     -4831.016       34.309543      7488.2676      263.58508      7873.4725      1.2766326      0.65984577   
    389600  -4796.4863     -4834.1461      37.659864      8251.3837      289.32412      7874.5667      1.2764552      0.65984577   
    389700  -4796.9241     -4834.039       37.114823      8404.125       285.13681      7885.2359      1.2747281      0.65984577   
    389800  -4796.94       -4832.5086      35.568599      4236.4988      273.25785      7904.2414      1.2716631      0.65984577   
    389900  -4797.8187     -4834.0371      36.218421      723.38699      278.25015      7923.1564      1.2686272      0.65984577   
    390000  -4798.1974     -4833.345       35.14761       2682.3176      270.02358      7932.0835      1.2671994      0.70861832   
    390100  -4798.0064     -4833.4923      35.485902      5167.8309      272.62253      7933.2252      1.2670171      0.70861832   
    390200  -4796.484      -4833.2417      36.757713      6253.253       282.39329      7925.8475      1.2681965      0.70861832   
    390300  -4795.7735     -4833.2282      37.45473       6342.7657      287.74816      7915.8946      1.269791       0.70861832   
    390400  -4795.1692     -4831.6925      36.523293      4858.3763      280.59235      7906.3609      1.2713221      0.70861832   
    390500  -4795.0885     -4830.8886      35.800172      4449.3491      275.03693      7896.199       1.2729583      0.70861832   
    390600  -4795.9826     -4832.59        36.607398      7548.4273      281.23849      7887.7524      1.2743214      0.70861832   
    390700  -4796.1471     -4833.7364      37.589328      2870.9674      288.78222      7889.7141      1.2740046      0.70861832   
    390800  -4797.0168     -4833.1941      36.177249      6981.1691      277.93384      7898.3963      1.2726041      0.70861832   
    390900  -4797.0902     -4833.1663      36.076114      4031.0994      277.15687      7909.8739      1.2707575      0.70861832   
    391000  -4797.3542     -4833.2036      35.849483      6699.0865      275.41576      7920.2514      1.2690925      0.68257098   
    391100  -4797.4869     -4832.3082      34.821291      6071.9625      267.51661      7929.3198      1.2676411      0.68257098   
    391200  -4798.1094     -4834.0358      35.92637       2672.3889      276.00645      7937.0903      1.2664001      0.68257098   
    391300  -4797.0506     -4834.4547      37.40413       5963.2995      287.35943      7939.1751      1.2660675      0.68257098   
    391400  -4796.0728     -4831.5126      35.439748      5947.4231      272.26795      7934.2265      1.2668572      0.68257098   
    391500  -4796.7958     -4833.2495      36.453711      4173.1515      280.05777      7923.9511      1.2685         0.68257098   
    391600  -4796.0212     -4832.5758      36.554628      4422.4133      280.83308      7912.611       1.2703179      0.68257098   
    391700  -4795.6088     -4831.0217      35.412868      3745.5087      272.06144      7902.5257      1.2719391      0.68257098   
    391800  -4796.1293     -4831.1271      34.997787      6160.8235      268.87256      7894.2225      1.273277       0.68257098   
    391900  -4796.8204     -4834.3687      37.548345      4461.4885      288.46737      7887.2659      1.2744         0.68257098   
    392000  -4796.861      -4832.1673      35.306365      8087.6756      271.24322      7883.6852      1.2749788      0.72053267   
    392100  -4797.1224     -4832.0299      34.907519      2599.0337      268.17907      7884.6503      1.2748228      0.72053267   
    392200  -4798.2589     -4832.3999      34.140977      6466.9354      262.29006      7887.4297      1.2743735      0.72053267   
    392300  -4796.2875     -4833.6497      37.362207      3448.7147      287.03735      7889.3497      1.2740634      0.72053267   
    392400  -4796.9564     -4833.1863      36.229902      7919.1258      278.33835      7888.8807      1.2741391      0.72053267   
    392500  -4795.6662     -4833.0094      37.343207      8332.5983      286.89139      7891.5733      1.2737044      0.72053267   
    392600  -4794.9121     -4831.6727      36.760583      5574.0265      282.41534      7896.859       1.2728519      0.72053267   
    392700  -4793.8993     -4831.7922      37.89288       5620.5139      291.11428      7904.922       1.2715536      0.72053267   
    392800  -4794.4004     -4831.2211      36.820795      3073.922       282.87792      7917.8737      1.2694736      0.72053267   
    392900  -4793.5458     -4829.7681      36.22234       4094.3695      278.28026      7929.3444      1.2676372      0.72053267   
    393000  -4793.9543     -4830.9395      36.985162      4924.3077      284.14068      7935.4477      1.2666622      0.74066693   
    393100  -4793.5707     -4831.9305      38.359877      8957.0508      294.70201      7938.436       1.2661854      0.74066693   
    393200  -4794.1458     -4829.6687      35.522893      6407.6579      272.90671      7941.5732      1.2656852      0.74066693   
    393300  -4795.6609     -4831.7376      36.076742      4141.9581      277.16169      7945.1972      1.2651079      0.74066693   
    393400  -4796.3521     -4831.461       35.108926      3039.9697      269.72639      7946.9963      1.2648215      0.74066693   
    393500  -4797.8316     -4832.6734      34.841861      4114.0916      267.67464      7942.6713      1.2655102      0.74066693   
    393600  -4796.988      -4833.3315      36.343407      2101.6814      279.21036      7930.8302      1.2673997      0.74066693   
    393700  -4798.4442     -4834.2948      35.850646      1674.1442      275.42469      7916.2456      1.2697347      0.74066693   
    393800  -4799.0054     -4833.8061      34.800765      7528.4016      267.35892      7899.4644      1.2724321      0.74066693   
    393900  -4797.8643     -4833.2063      35.342012      7103.5307      271.51708      7888.327       1.2742286      0.74066693   
    394000  -4797.0058     -4833.1467      36.140897      8420.5644      277.65457      7886.2383      1.2745661      0.65042307   
    394100  -4797.8828     -4835.075       37.192152      7273.8919      285.73089      7895.0945      1.2731363      0.65042307   
    394200  -4797.863      -4833.2191      35.356115      5693.6484      271.62543      7914.3868      1.2700329      0.65042307   
    394300  -4798.9642     -4833.5254      34.561258      2462.7759      265.51889      7933.6431      1.2669503      0.65042307   
    394400  -4798.9372     -4834.1041      35.166894      3551.009       270.17173      7948.5074      1.264581       0.65042307   
    394500  -4799.4265     -4834.1199      34.693419      5886.3599      266.53423      7956.1738      1.2633625      0.65042307   
    394600  -4799.1044     -4834.8669      35.762459      7236.1957      274.7472       7952.4327      1.2639568      0.65042307   
    394700  -4798.8992     -4834.1077      35.208475      5946.9403      270.49118      7937.3732      1.2663549      0.65042307   
    394800  -4799.266      -4834.1964      34.930401      7070.5009      268.35486      7914.7614      1.2699728      0.65042307   
    394900  -4798.181      -4832.0458      33.864866      6940.7701      260.16882      7893.2418      1.2734352      0.65042307   
    395000  -4797.7355     -4834.2187      36.48328       4675.7039      280.28494      7879.892       1.2755926      0.67640946   
    395100  -4797.2202     -4834.0459      36.825725      5246.8516      282.9158       7877.0195      1.2760577      0.67640946   
    395200  -4797.0592     -4833.5438      36.484537      6355.6228      280.2946       7886.143       1.2745815      0.67640946   
    395300  -4796.9086     -4832.8672      35.958552      5102.5588      276.25369      7903.9238      1.2717141      0.67640946   
    395400  -4795.7874     -4832.6957      36.908367      3814.31        283.5507       7924.2492      1.2684522      0.67640946   
    395500  -4797.6046     -4832.1769      34.572352      6348.1016      265.60413      7946.8714      1.2648414      0.67640946   
    395600  -4797.9343     -4833.0189      35.084543      2310.27        269.53906      7963.0461      1.2622722      0.67640946   
    395700  -4796.0164     -4831.8986      35.882152      4853.9459      275.66674      7971.4658      1.2609389      0.67640946   
    395800  -4795.5764     -4832.0823      36.505924      4379.6022      280.45891      7969.2813      1.2612846      0.67640946   
    395900  -4796.15       -4832.2106      36.060521      2249.3157      277.03707      7956.2416      1.2633517      0.67640946   
    396000  -4796.3614     -4832.6251      36.263703      3410.6576      278.59803      7931.3505      1.2673165      0.62812552   
    396100  -4796.441      -4833.388       36.947007      5896.2518      283.84756      7905.6247      1.2714405      0.62812552   
    396200  -4796.6126     -4831.9579      35.345343      7042.0351      271.54267      7886.1747      1.2745763      0.62812552   
    396300  -4796.4171     -4832.2119      35.794758      6680.996       274.99533      7875.8394      1.2762489      0.62812552   
    396400  -4795.7577     -4831.8669      36.109237      5673.7532      277.41134      7873.6717      1.2766003      0.62812552   
    396500  -4796.3124     -4832.4096      36.097224      7160.7145      277.31905      7886.9819      1.2744459      0.62812552   
    396600  -4798.6162     -4834.2998      35.68361       5074.7808      274.14143      7907.8467      1.2710833      0.62812552   
    396700  -4799.0727     -4833.3523      34.279625      3496.1387      263.35523      7928.7155      1.2677377      0.62812552   
    396800  -4798.6632     -4833.1763      34.513053      3012.4533      265.14856      7941.8473      1.2656415      0.62812552   
    396900  -4799.3662     -4833.7566      34.39045       4376.1986      264.20665      7944.3837      1.2652374      0.62812552   
    397000  -4799.0847     -4834.0042      34.919557      5183.7442      268.27155      7937.2998      1.2663666      0.68772819   
    397100  -4798.4587     -4833.5327      35.074019      6470.3964      269.45821      7919.4574      1.2692197      0.68772819   
    397200  -4797.6367     -4834.0207      36.384015      2759.3607      279.52233      7898.9216      1.2725195      0.68772819   
    397300  -4795.7671     -4831.3508      35.583677      2323.6239      273.37369      7878.4148      1.2758317      0.68772819   
    397400  -4794.7737     -4831.1912      36.417499      5051.1981      279.77957      7866.4005      1.2777803      0.68772819   
    397500  -4794.2894     -4831.8398      37.550457      6266.4856      288.48359      7867.6589      1.2775759      0.68772819   
    397600  -4794.9587     -4831.2414      36.282699      5842.7706      278.74397      7887.2131      1.2744085      0.68772819   
    397700  -4796.8232     -4832.4461      35.622945      5931.5952      273.67537      7919.6797      1.2691841      0.68772819   
    397800  -4797.5124     -4832.5606      35.048228      2158.5729      269.26007      7951.0497      1.2641767      0.68772819   
    397900  -4797.6825     -4832.7296      35.047065      4770.4878      269.25113      7975.2375      1.2603426      0.68772819   
    398000  -4798.4658     -4834.9122      36.446409      2602.9056      280.00168      7985.4132      1.2587366      0.71217661   
    398100  -4796.7638     -4833.2473      36.483454      3861.9194      280.28628      7972.5129      1.2607733      0.71217661   
    398200  -4796.9784     -4833.8726      36.894213      7982.6511      283.44196      7945.1835      1.2651101      0.71217661   
    398300  -4797.6846     -4833.7744      36.089799      6825.6209      277.262        7910.5249      1.2706529      0.71217661   
    398400  -4798.8755     -4834.7335      35.857974      7369.3768      275.481        7875.2886      1.2763382      0.71217661   
    398500  -4799.8381     -4834.032       34.19388       7633.4149      262.69649      7845.1615      1.2812396      0.71217661   
    398600  -4799.4499     -4833.8609      34.410966      5910.3447      264.36427      7833.6694      1.2831192      0.71217661   
    398700  -4799.0134     -4833.2655      34.252141      6131.8828      263.14409      7842.762       1.2816316      0.71217661   
    398800  -4798.2987     -4833.4616      35.162845      3233.9932      270.14062      7865.7397      1.2778877      0.71217661   
    398900  -4799.7814     -4833.1058      33.324476      4086.3387      256.01724      7898.2742      1.2726238      0.71217661   
    399000  -4800.6176     -4834.2022      33.584581      3901.3211      258.01552      7930.9079      1.2673873      0.72110309   
    399100  -4800.8345     -4834.2837      33.449287      2970.7576      256.97612      7951.0378      1.2641786      0.72110309   
    399200  -4800.3367     -4833.6566      33.319937      3591.0242      255.98238      7954.3517      1.2636519      0.72110309   
    399300  -4799.2147     -4834.1764      34.961743      5845.7406      268.59564      7946.2695      1.2649372      0.72110309   
    399400  -4799.1598     -4834.0868      34.926945      2177.1684      268.3283       7929.5683      1.2676014      0.72110309   
    399500  -4795.7057     -4832.2825      36.576823      3092.0705      281.0036       7913.491       1.2701767      0.72110309   
    399600  -4795.4365     -4831.6688      36.232364      5937.068       278.35727      7901.4349      1.2721147      0.72110309   
    399700  -4796.0265     -4832.1623      36.135791      7045.1476      277.61534      7898.5181      1.2725845      0.72110309   
    399800  -4797.3109     -4833.3335      36.022637      6547.1275      276.74603      7906.7843      1.2712541      0.72110309   
    399900  -4797.5664     -4832.9739      35.407513      3354.1037      272.0203       7918.5377      1.2693672      0.72110309   
    400000  -4797.4735     -4834.0043      36.530781      5321.9001      280.64987      7927.7555      1.2678912      0.63350326   
    400100  -4798.2591     -4833.7449      35.485889      4953.5038      272.62242      7936.9215      1.266427       0.63350326   
    400200  -4799.6093     -4833.7703      34.161011      3669.1497      262.44397      7941.1344      1.2657551      0.63350326   
    400300  -4798.9662     -4834.3482      35.382052      8262.6909      271.8247       7940.0485      1.2659282      0.63350326   
    400340  -4798.8551     -4833.4654      34.61026       9044.4462      265.89536      7937.5986      1.266319       0.63350326   
Loop time of 2165.18 on 28 procs for 200000 steps with 1008 atoms

Performance: 3.990 ns/day, 6.014 hours/ns, 92.371 timesteps/s, 93.110 katom-step/s
99.5% CPU use with 28 MPI tasks x 1 OpenMP threads

MPI task timing breakdown:
Section |  min time  |  avg time  |  max time  |%varavg| %total
---------------------------------------------------------------
Pair    | 1761.7     | 1851.8     | 1969.5     | 132.6 | 85.53
Neigh   | 3.3073     | 3.4874     | 3.6804     |   5.6 |  0.16
Comm    | 155.49     | 284.19     | 374.4      | 354.1 | 13.13
Output  | 0.13491    | 1.4055     | 2.5575     |  99.4 |  0.06
Modify  | 15.284     | 23.097     | 35.19      | 120.6 |  1.07
Other   |            | 1.164      |            |       |  0.05

Nlocal:             36 ave          42 max          29 min
Histogram: 1 0 1 6 2 8 6 2 1 1
Nghost:        1037.07 ave        1053 max        1016 min
Histogram: 2 2 3 1 2 2 2 7 5 2
Neighs:              0 ave           0 max           0 min
Histogram: 28 0 0 0 0 0 0 0 0 0
FullNghs:      5302.36 ave        6207 max        4307 min
Histogram: 1 0 1 6 4 7 5 2 1 1

Total # of neighbors = 148466
Ave neighs/atom = 147.2877
Neighbor list builds = 19873
Dangerous builds = 19241

unfix		3
unfix		4
Total wall time: 1:12:37
