LAMMPS (27 Jun 2024)
KOKKOS mode with Kokkos version 4.3.1 is enabled (src/KOKKOS/kokkos.cpp:72)
  will use up to 1 GPU(s) per node
WARNING: When using a single thread, the Kokkos Serial backend (i.e. Makefile.kokkos_mpi_only) gives better performance than the OpenMP backend (src/KOKKOS/kokkos.cpp:202)
  using 1 OpenMP thread(s) per MPI task
Reading data file ...
  orthogonal box = (0 0 0) to (20.13213 20.132272 35.107669)
  1 by 1 by 1 MPI processor grid
  reading atoms ...
  2160 atoms
  read_data CPU = 0.017 seconds
ACE/AL version: 2023.11.25
Loading /pc2/users/a/acepdw01/work/phase_diagram/pot_dir/interim_potential_ladder_step_1.yaml
Total number of basis functions
	H: 23 (r=1) 664 (r>1)
	O: 23 (r=1) 664 (r>1)
Mapping LAMMPS atom type #1(H) -> ACE species type #0
Mapping LAMMPS atom type #2(O) -> ACE species type #1
Loading ASI /pc2/users/a/acepdw01/work/phase_diagram/pot_dir/interim_potential_ladder_step_1.asi
LINEAR ASI is loaded

CITE-CITE-CITE-CITE-CITE-CITE-CITE-CITE-CITE-CITE-CITE-CITE-CITE

Your simulation uses code contributions which should be cited:
- Type Label Framework: https://doi.org/10.1021/acs.jpcb.3c08419
The log file lists these citations in BibTeX format.

CITE-CITE-CITE-CITE-CITE-CITE-CITE-CITE-CITE-CITE-CITE-CITE-CITE

Switching to 'neigh_modify every 1 delay 0 check yes' setting during minimization
Neighbor list info ...
  update: every = 1 steps, delay = 0 steps, check = yes
  max neighbors/atom: 2000, page size: 100000
  master list distance cutoff = 6.5
  ghost atom cutoff = 6.5
  binsize = 6.5, bins = 4 4 6
  1 neighbor lists, perpetual/occasional/extra = 1 0 0
  (1) pair pace/extrapolation/kk, perpetual
      attributes: full, newton on, kokkos_device
      pair build: full/bin/kk/device
      stencil: full/bin/3d
      bin: kk/device
Setting up cg/kk style minimization ...
  Unit style    : metal
  Current step  : 0
WARNING: Fix with atom-based arrays not compatible with sending data in Kokkos communication, switching to classic exchange/border communication (src/KOKKOS/comm_kokkos.cpp:754)
WARNING: Fix with atom-based arrays not compatible with Kokkos sorting on device, switching to classic host sorting (src/KOKKOS/atom_kokkos.cpp:216)
Per MPI rank memory allocation (min/avg/max) = 1808 | 1808 | 1808 Mbytes
   Step         TotEng         PotEng         KinEng         Press           Temp          Volume        Density     c_max_pace_gamma
         0  -10394.812     -10394.812      0              10356.492      0              14229.332      1.513704       0.94301683   
       100  -10405.399     -10405.399      0              6153.7788      0              14229.332      1.513704       0.94301683   
       200  -10407.585     -10407.585      0              6517.8061      0              14229.332      1.513704       0.94301683   
       300  -10408.546     -10408.546      0              6308.0682      0              14229.332      1.513704       0.94301683   
       400  -10408.808     -10408.808      0              6401.0345      0              14229.332      1.513704       0.94301683   
       500  -10408.847     -10408.847      0              6350.1359      0              14229.332      1.513704       0.94301683   
       600  -10408.847     -10408.847      0              6348.185       0              14229.332      1.513704       0.94301683   
       700  -10408.848     -10408.848      0              6349.4203      0              14229.332      1.513704       0.94301683   
       800  -10408.849     -10408.849      0              6349.5993      0              14229.332      1.513704       0.94301683   
       900  -10408.849     -10408.849      0              6350.8376      0              14229.332      1.513704       0.94301683   
       921  -10408.849     -10408.849      0              6350.8878      0              14229.332      1.513704       0.94301683   
Loop time of 8.89673 on 1 procs for 921 steps with 2160 atoms

99.8% CPU use with 1 MPI tasks x 1 OpenMP threads

Minimization stats:
  Stopping criterion = force tolerance
  Energy initial, next-to-last, final = 
     -10394.8116753497  -10408.8486802728  -10408.8486802793
  Force two-norm initial, final = 17.431636 0.00042543435
  Force max component initial, final = 3.1552255 0.0001407337
  Final line search alpha, max atom move = 1 0.0001407337
  Iterations, force evaluations = 921 1838

MPI task timing breakdown:
Section |  min time  |  avg time  |  max time  |%varavg| %total
---------------------------------------------------------------
Pair    | 8.2011     | 8.2011     | 8.2011     |   0.0 | 92.18
Neigh   | 0.022262   | 0.022262   | 0.022262   |   0.0 |  0.25
Comm    | 0.053976   | 0.053976   | 0.053976   |   0.0 |  0.61
Output  | 0.0012123  | 0.0012123  | 0.0012123  |   0.0 |  0.01
Modify  | 0.37989    | 0.37989    | 0.37989    |   0.0 |  4.27
Other   |            | 0.2383     |            |       |  2.68

Nlocal:           2160 ave        2160 max        2160 min
Histogram: 1 0 0 0 0 0 0 0 0 0
Nghost:           5977 ave        5977 max        5977 min
Histogram: 1 0 0 0 0 0 0 0 0 0
Neighs:              0 ave           0 max           0 min
Histogram: 1 0 0 0 0 0 0 0 0 0
FullNghs:       373398 ave      373398 max      373398 min
Histogram: 1 0 0 0 0 0 0 0 0 0

Total # of neighbors = 373398
Ave neighs/atom = 172.86944
Neighbor list builds = 51
Dangerous builds = 0
Setting up Verlet run ...
  Unit style    : metal
  Current step  : 921
  Time step     : 0.0005
WARNING: Fix with atom-based arrays not compatible with Kokkos sorting on device, switching to classic host sorting (src/KOKKOS/atom_kokkos.cpp:216)
Per MPI rank memory allocation (min/avg/max) = 1810 | 1810 | 1810 Mbytes
   Step         TotEng         PotEng         KinEng         Press           Temp          Volume        Density     c_max_pace_gamma
       921  -10288.847     -10408.849      120.00124      15358.721      430            14229.332      1.513704       0.94301683   
      1000  -10266.274     -10332.979      66.704541      37291.636      239.02213      14181.261      1.5188351      0.82583461   
      1100  -10240.289     -10324.665      84.375437      32780.007      302.34219      14061.537      1.5317668      0.82583461   
      1200  -10217.875     -10311.597      93.721654      33710.395      335.83245      13925.421      1.5467394      0.82583461   
      1300  -10205.357     -10303.042      97.685132      37016.317      350.03477      13818.96       1.5586554      0.82583461   
      1400  -10194.88      -10298.627      103.74671      39367.719      371.75521      13775.342      1.5635906      0.82583461   
      1500  -10186.221     -10294.754      108.53325      37885.734      388.90678      13801.369      1.560642       0.82583461   
      1600  -10181.093     -10290.865      109.77187      37408.733      393.34515      13883.421      1.5514186      0.82583461   
      1700  -10177.239     -10289.054      111.81494      34622.862      400.66607      14003.861      1.5380756      0.82583461   
      1800  -10177.192     -10290.079      112.88659      29293.7        404.5061       14133.437      1.5239744      0.82583461   
      1900  -10175.928     -10287.399      111.47137      27450.788      399.43493      14237.887      1.5127945      0.82583461   
      2000  -10175.911     -10290.814      114.90384      28696.479      411.7345       14303.599      1.5058446      0.88532586   
      2100  -10174.79      -10285.862      111.0726       25752.603      398.00602      14326.46       1.5034416      0.88532586   
      2200  -10170.506     -10287.103      116.59664      27676.998      417.80029      14314.853      1.5046607      0.88532586   
      2300  -10166.938     -10285.103      118.1659       27947.996      423.42342      14278.214      1.5085217      0.88532586   
      2400  -10163.84      -10281.805      117.96453      29847.73       422.70188      14230.679      1.5135607      0.88532586   
      2500  -10163.168     -10284.536      121.36793      30346.481      434.89726      14187.277      1.518191       0.88532586   
      2600  -10164.281     -10283.095      118.81426      29397.976      425.7467       14154.028      1.5217574      0.88532586   
      2700  -10159.535     -10280.684      121.14816      34120.636      434.10975      14135.59       1.5237423      0.88532586   
      2800  -10160.785     -10279.511      118.72666      33369.766      425.43281      14138.863      1.5233896      0.88532586   
      2900  -10159.26      -10279.763      120.50297      30705.672      431.79786      14161.134      1.5209938      0.88532586   
      3000  -10162.316     -10283.695      121.37919      28878.514      434.9376       14194.501      1.5174184      0.81338582   
      3100  -10160.104     -10281.915      121.8107       28091.557      436.48381      14227.163      1.5139347      0.81338582   
      3200  -10159.152     -10279.43       120.27806      27975.408      430.99192      14253.288      1.5111598      0.81338582   
      3300  -10159.426     -10280.595      121.16963      28847.421      434.1867       14270.483      1.509339       0.81338582   
      3400  -10160.447     -10277.969      117.52205      27814.388      421.11632      14272.339      1.5091427      0.81338582   
      3500  -10162.071     -10280.883      118.81203      31311.319      425.73872      14261.81       1.5102569      0.81338582   
      3600  -10160.771     -10283.191      122.42015      30214.382      438.66765      14238.407      1.5127392      0.81338582   
      3700  -10164.792     -10283.986      119.19447      27131.681      427.10909      14202.057      1.516611       0.81338582   
      3800  -10165.977     -10284.482      118.50504      27779.297      424.63868      14159.016      1.5212213      0.81338582   
      3900  -10164.815     -10285.581      120.76671      29893.292      432.74291      14116.206      1.5258346      0.81338582   
      4000  -10162.012     -10281.344      119.33181      29559.577      427.60124      14081.982      1.529543       0.79395545   
      4100  -10160.022     -10282.045      122.02247      31723.324      437.24266      14064.461      1.5314484      0.79395545   
      4200  -10160.913     -10283.744      122.83192      31994.795      440.14318      14064.268      1.5314694      0.79395545   
      4300  -10165.58      -10284.477      118.89656      31559.211      426.04159      14080.971      1.5296528      0.79395545   
      4400  -10169.601     -10287.098      117.49733      31222.771      421.02774      14108.838      1.5266315      0.79395545   
      4500  -10170.912     -10288.943      118.03077      27417.416      422.93922      14134.856      1.5238214      0.79395545   
      4600  -10171.205     -10289.552      118.3462       27545.232      424.06951      14142.394      1.5230092      0.79395545   
      4700  -10168.147     -10287.808      119.66033      25852.543      428.77841      14127.904      1.5245713      0.79395545   
      4800  -10166.751     -10287.995      121.24466      30553.042      434.45555      14096.872      1.5279273      0.79395545   
      4900  -10167.101     -10286.746      119.64438      29331.015      428.72126      14056.689      1.5322952      0.79395545   
      5000  -10162.64      -10286.232      123.59175      31944.469      442.86586      14010.977      1.5372944      0.99255617   
      5100  -10164.51      -10286.263      121.7532       31403.411      436.27777      13969.688      1.5418381      0.99255617   
      5200  -10165.695     -10288.853      123.15776      29909.202      441.31075      13943          1.5447893      0.99255617   
      5300  -10168.634     -10290.24       121.60545      30118.73       435.74836      13924.991      1.5467871      0.99255617   
      5400  -10167.344     -10291.877      124.53244      30914.791      446.23664      13918.971      1.5474561      0.99255617   
      5500  -10169.296     -10287.87       118.57367      31674.574      424.88459      13925.775      1.5467         0.99255617   
      5600  -10167.404     -10288.696      121.2916       31038.342      434.62373      13944.693      1.5446017      0.99255617   
      5700  -10167.245     -10286.918      119.67233      28592.199      428.8214       13967.46       1.5420839      0.99255617   
      5800  -10167.97      -10288.848      120.87771      28163.319      433.14065      13991.652      1.5394176      0.99255617   
      5900  -10168.689     -10286.787      118.09807      30543.846      423.18037      14010.025      1.5373989      0.99255617   
      6000  -10168.408     -10290.348      121.93993      27453.084      436.94689      14022.75       1.5360038      0.88827787   
      6100  -10170.356     -10291.653      121.29726      27188.732      434.64402      14025.979      1.5356502      0.88827787   
      6200  -10171.395     -10290.271      118.87608      29015.198      425.96823      14013.284      1.5370413      0.88827787   
      6300  -10170.753     -10288.281      117.52796      29456.22       421.1375       13986.973      1.5399326      0.88827787   
      6400  -10169.291     -10290.012      120.72175      33444.559      432.5818       13958.601      1.5430627      0.88827787   
      6500  -10170.679     -10290.798      120.11869      29658.672      430.42085      13931.498      1.5460647      0.88827787   
      6600  -10171.56      -10292.593      121.03255      29972.307      433.69547      13900.912      1.5494664      0.88827787   
      6700  -10171.352     -10289.525      118.17251      30868.394      423.44713      13872.373      1.5526541      0.88827787   
      6800  -10169.838     -10287.632      117.79345      32933.286      422.08882      13856.601      1.5544214      0.88827787   
      6900  -10168.945     -10291.004      122.05897      27361.621      437.37345      13857.124      1.5543627      0.88827787   
      7000  -10170.324     -10288.668      118.34407      29091.906      424.06185      13866.515      1.55331        0.87671064   
      7100  -10172.66      -10293.28       120.62059      32093.815      432.2193       13881.69       1.551612       0.87671064   
      7200  -10173.166     -10293.388      120.2222       31499.697      430.79176      13898.332      1.5497541      0.87671064   
      7300  -10174.32      -10292.605      118.28556      30615.89       423.85221      13911.564      1.54828        0.87671064   
      7400  -10174.092     -10294.82       120.72737      27393.617      432.60194      13919.023      1.5474503      0.87671064   
      7500  -10174.291     -10292.034      117.74367      29664.098      421.91044      13918.112      1.5475516      0.87671064   
      7600  -10175.357     -10293.92       118.56316      28242.18       424.84695      13906.287      1.5488676      0.87671064   
      7700  -10174.383     -10296.957      122.57318      32687.119      439.21602      13881.842      1.5515949      0.87671064   
      7800  -10171.237     -10294.109      122.87208      34712.137      440.28708      13847.046      1.555494       0.87671064   
      7900  -10170.779     -10293.889      123.11034      32894.79       441.14082      13814.818      1.5591227      0.87671064   
      8000  -10172.715     -10295.453      122.73818      34208.793      439.80726      13793.899      1.5614871      0.84463008   
      8100  -10172.382     -10291.931      119.54842      33351.472      428.3774       13784.524      1.5625492      0.84463008   
      8200  -10172.253     -10292.403      120.15001      31536.526      430.53308      13790.702      1.5618492      0.84463008   
      8300  -10175.248     -10297.679      122.43051      29303.716      438.70479      13810.106      1.5596547      0.84463008   
      8400  -10173.98      -10295.264      121.28334      28008.379      434.59414      13838.181      1.5564904      0.84463008   
      8500  -10177.242     -10295.452      118.21039      29490.918      423.58284      13872.659      1.552622       0.84463008   
      8600  -10176.66      -10296.555      119.89545      28931.413      429.62091      13903.828      1.5491415      0.84463008   
      8700  -10177.986     -10294.92       116.93381      32244.727      419.00848      13924.971      1.5467893      0.84463008   
      8800  -10177.163     -10296.474      119.31037      30176.709      427.52439      13930.207      1.5462079      0.84463008   
      8900  -10172.309     -10290.312      118.0028       28770.732      422.83899      13911.295      1.5483099      0.84463008   
      9000  -10171.023     -10294.019      122.99599      29051.173      440.73107      13879.499      1.5518569      0.83872851   
      9100  -10171.597     -10290.383      118.78689      30115.259      425.64861      13841.238      1.5561467      0.83872851   
      9200  -10173.432     -10293.048      119.6157       29533.107      428.61849      13803.128      1.5604432      0.83872851   
      9300  -10174.806     -10292.954      118.14824      30473.609      423.36016      13772.085      1.5639604      0.83872851   
      9400  -10177.437     -10294.12       116.68253      31356.543      418.10809      13750.362      1.5664313      0.83872851   
      9500  -10176.532     -10294.737      118.20403      30852.855      423.56006      13736.25       1.5680405      0.83872851   
      9600  -10177.114     -10296.582      119.46831      31735.113      428.09034      13730.537      1.5686929      0.83872851   
      9700  -10177.156     -10295.116      117.95961      29871.367      422.68422      13740.198      1.56759        0.83872851   
      9800  -10175.673     -10294.94       119.26651      29897.154      427.36725      13764.657      1.5648044      0.83872851   
      9900  -10174.087     -10295.819      121.73203      34667.403      436.20192      13800.033      1.5607931      0.83872851   
     10000  -10176.905     -10297.438      120.53354      32595.089      431.90738      13838.941      1.556405       0.78394955   
     10100  -10179.365     -10298.796      119.43076      31976.39       427.95581      13867.273      1.5532251      0.78394955   
     10200  -10178.577     -10298.566      119.98913      29381.016      429.95662      13878.275      1.5519938      0.78394955   
     10300  -10177.915     -10295.191      117.27631      29091.918      420.23576      13869.268      1.5530017      0.78394955   
     10400  -10173.669     -10294.426      120.75693      30262.025      432.70785      13842.841      1.5559665      0.78394955   
     10500  -10173.385     -10295.105      121.72052      28383.333      436.16069      13812.317      1.559405       0.78394955   
     10600  -10174.792     -10292.009      117.21704      33725.095      420.0234       13786.355      1.5623416      0.78394955   
     10700  -10175.164     -10295.281      120.11655      31209.329      430.41318      13770.124      1.5641832      0.78394955   
     10800  -10172.571     -10295.339      122.76798      29254.941      439.91405      13765.997      1.5646522      0.78394955   
     10900  -10173.054     -10292.784      119.7298       31761.578      429.02735      13778.27       1.5632584      0.78394955   
     11000  -10175.865     -10295.77       119.90473      28260.193      429.65416      13806.338      1.5600804      0.91165503   
     11100  -10179.411     -10298.045      118.63393      30905.583      425.10051      13835.518      1.55679        0.91165503   
     11200  -10179.727     -10296.125      116.39853      27239.277      417.09042      13858.916      1.5541617      0.91165503   
     11300  -10176.294     -10299.914      123.6201       28283.939      442.96745      13871.122      1.5527941      0.91165503   
     11400  -10177.307     -10296.557      119.25011      25024.843      427.30849      13869.982      1.5529217      0.91165503   
     11500  -10176.95      -10295.592      118.64278      28358.409      425.13223      13854.986      1.5546026      0.91165503   
     11600  -10176.348     -10296.272      119.92418      29244.973      429.72388      13829.045      1.5575187      0.91165503   
     11700  -10175.544     -10294.978      119.43439      29146.145      427.96879      13800.034      1.560793       0.91165503   
     11800  -10173.821     -10293.934      120.11344      31476.502      430.40203      13770.645      1.564124       0.91165503   
     11900  -10172.274     -10294.046      121.77138      31460.276      436.34292      13752.501      1.5661876      0.91165503   
     12000  -10174.134     -10293.986      119.85245      32338.469      429.46685      13749.398      1.5665411      0.86248459   
     12100  -10173.727     -10296.038      122.3111       31458.867      438.27691      13758.464      1.5655088      0.86248459   
     12200  -10173.792     -10291.887      118.09469      30894.118      423.16826      13777.406      1.5633564      0.86248459   
     12300  -10173.354     -10295.697      122.34284      29343.979      438.39064      13800.596      1.5607294      0.86248459   
     12400  -10173.632     -10294.813      121.18186      32399.768      434.23051      13823.318      1.558164       0.86248459   
     12500  -10176.683     -10293.923      117.24028      32242.698      420.10666      13843.406      1.555903       0.86248459   
     12600  -10178.828     -10300.397      121.56883      30273.954      435.61713      13857.256      1.5543478      0.86248459   
     12700  -10177.93      -10297.06       119.13048      28464.138      426.87982      13855.539      1.5545405      0.86248459   
     12800  -10174.965     -10291.074      116.10854      33525.386      416.0513       13842.811      1.5559699      0.86248459   
     12900  -10178.233     -10296.534      118.30148      29441.063      423.90926      13827.921      1.5576453      0.86248459   
     13000  -10179.854     -10299.277      119.42313      29942.093      427.92846      13804.381      1.5603015      0.83853329   
     13100  -10178.58      -10297.728      119.14806      31245.361      426.94281      13775.253      1.5636008      0.83853329   
     13200  -10176.948     -10298.076      121.12832      31109.674      434.03864      13748.951      1.566592       0.83853329   
     13300  -10177.025     -10293.896      116.8711       30573.563      418.78377      13733.525      1.5683516      0.83853329   
     13400  -10176.999     -10296.246      119.24708      30175.924      427.29763      13732.667      1.5684497      0.83853329   
     13500  -10174.917     -10294.251      119.33365      31005.78       427.60781      13744.255      1.5671273      0.83853329   
     13600  -10172.779     -10295.056      122.27737      32620.965      438.15604      13773.155      1.563839       0.83853329   
     13700  -10177.254     -10295.925      118.67156      34160.195      425.23536      13811.322      1.5595173      0.83853329   
     13800  -10176.807     -10295.532      118.72487      31197.185      425.42639      13844.392      1.5557922      0.83853329   
     13900  -10173.749     -10294.41       120.66094      31717.68       432.36389      13866.407      1.5533221      0.83853329   
     14000  -10176.892     -10293.97       117.07839      30207.789      419.52655      13875.034      1.5523563      0.8876998    
     14100  -10178.588     -10298.097      119.50947      30628.08       428.23785      13873.281      1.5525524      0.8876998    
     14200  -10178.191     -10296.932      118.74076      32914.366      425.48332      13855.809      1.5545103      0.8876998    
     14300  -10178.476     -10295.967      117.49175      33092.288      421.00773      13828.819      1.5575442      0.8876998    
     14400  -10179.805     -10298.717      118.91155      31982.714      426.09533      13796.919      1.5611454      0.8876998    
     14500  -10177.891     -10299.102      121.21155      33677.617      434.33691      13764.855      1.5647819      0.8876998    
     14600  -10180.165     -10297.776      117.61061      33040.925      421.43366      13739.776      1.5676381      0.8876998    
     14700  -10176.374     -10294.644      118.26977      36296.751      423.79562      13726.065      1.569204       0.8876998    
     14800  -10177.691     -10296.234      118.5433       28565.986      424.77577      13730.173      1.5687346      0.8876998    
     14900  -10181.435     -10296.741      115.30634      25299.496      413.17676      13747.557      1.5667508      0.8876998    
     15000  -10181.257     -10300.834      119.5775       28060.993      428.4816       13771.243      1.5640561      0.86477235   
     15100  -10179.534     -10297.218      117.68389      29350.089      421.69623      13796.983      1.5611382      0.86477235   
     15200  -10179.622     -10299.46       119.83809      30366.262      429.41539      13823.831      1.5581062      0.86477235   
     15300  -10179.534     -10296.872      117.33871      28468.869      420.45936      13846.943      1.5555056      0.86477235   
     15400  -10178.845     -10298.656      119.81124      26828.205      429.31918      13863.432      1.5536554      0.86477235   
     15500  -10178.346     -10298.571      120.22494      27692.673      430.80158      13866.813      1.5532766      0.86477235   
     15600  -10178.142     -10296.242      118.10065      28908.626      423.18963      13858.342      1.554226       0.86477235   
     15700  -10178.754     -10299.468      120.71367      27091.423      432.55286      13838.019      1.5565087      0.86477235   
     15800  -10177.167     -10293.369      116.2021       30567.403      416.38654      13802.72       1.5604893      0.86477235   
     15900  -10176.595     -10298.011      121.41657      32391.199      435.07155      13764.43       1.5648303      0.86477235   
     16000  -10175.493     -10293.916      118.42262      31566.37       424.34334      13732.635      1.5684533      0.85124005   
     16100  -10174.597     -10294.314      119.71652      32228.156      428.97975      13715.614      1.5703998      0.85124005   
     16200  -10174.04      -10297.277      123.23702      30686.063      441.59474      13718.756      1.57004        0.85124005   
     16300  -10172.951     -10291.751      118.80026      33319.254      425.69653      13737.826      1.5678606      0.85124005   
     16400  -10173.629     -10295.895      122.26548      32860.5        438.11346      13773.99       1.5637442      0.85124005   
     16500  -10179.569     -10296.017      116.44781      32415.525      417.267        13818.832      1.5586698      0.85124005   
     16600  -10178.756     -10298.302      119.54627      31063.013      428.36971      13861.051      1.5539223      0.85124005   
     16700  -10177.917     -10300.346      122.42828      28838.961      438.69682      13889.171      1.5507762      0.85124005   
     16800  -10176.528     -10296.843      120.31518      29348.665      431.12493      13898.412      1.5497451      0.85124005   
     16900  -10176.696     -10299.91       123.21385      27201.833      441.51174      13886.26       1.5511013      0.85124005   
     17000  -10174.299     -10295.553      121.25381      31755.418      434.48831      13855.536      1.5545408      0.86012696   
     17100  -10173.615     -10293.432      119.81695      30032.825      429.33963      13816.883      1.5588897      0.86012696   
     17200  -10173.664     -10293.638      119.97432      29021.466      429.90353      13777.421      1.5633547      0.86012696   
     17300  -10173.474     -10296.28       122.80582      31491.757      440.04965      13744.091      1.567146       0.86012696   
     17400  -10175.949     -10298.903      122.9539       30745.288      440.58025      13722.881      1.5695681      0.86012696   
     17500  -10172.744     -10295.041      122.29728      34883.11       438.22738      13717.635      1.5701684      0.86012696   
     17600  -10178.042     -10297.656      119.61458      32591.331      428.61449      13735.59       1.5681159      0.86012696   
     17700  -10178.034     -10297.268      119.2336       33230.537      427.24931      13769.096      1.5643         0.86012696   
     17800  -10177.977     -10297.339      119.36209      30398.78       427.70972      13811.732      1.5594711      0.86012696   
     17900  -10177.695     -10300.188      122.49344      28061.326      438.93029      13853.64       1.5547536      0.86012696   
     18000  -10173.155     -10291.85       118.69464      29189.932      425.31805      13885.818      1.5511507      0.89296158   
     18100  -10174.07      -10295.593      121.52314      29592.633      435.4534       13910.659      1.5483807      0.89296158   
     18200  -10174.691     -10294.76       120.06908      28941.087      430.24308      13916.878      1.5476888      0.89296158   
     18300  -10174.146     -10295.277      121.13113      26798.944      434.04871      13905.649      1.5489386      0.89296158   
     18400  -10172.17      -10297.227      125.05688      28885.573      448.11584      13880.853      1.5517055      0.89296158   
     18500  -10175.005     -10295.019      120.01392      30721.128      430.04545      13841.288      1.556141       0.89296158   
     18600  -10171.814     -10294.551      122.7364       31003.454      439.80087      13794.702      1.5613963      0.89296158   
     18700  -10172.455     -10295.58       123.12514      31907.081      441.19387      13752.885      1.5661439      0.89296158   
     18800  -10172.419     -10296.132      123.71329      33125.855      443.30137      13724.607      1.5693708      0.89296158   
     18900  -10172.993     -10292.377      119.38403      32638.985      427.78835      13714.381      1.5705409      0.89296158   
     19000  -10172.061     -10296.67       124.60973      34886.467      446.51357      13723.55       1.5694916      0.81905138   
     19100  -10171.653     -10296.461      124.8073       32196.366      447.22153      13748.871      1.5666011      0.81905138   
     19200  -10174.828     -10295.438      120.61004      31869.807      432.18152      13785.494      1.5624392      0.81905138   
     19300  -10174.06      -10295.102      121.04206      29167.943      433.72955      13820.018      1.5585361      0.81905138   
     19400  -10174.579     -10293.455      118.87547      28428.529      425.96604      13847.088      1.5554893      0.81905138   
     19500  -10176.192     -10297.834      121.64225      28192.968      435.88021      13864.724      1.5535107      0.81905138   
     19600  -10178.382     -10296.326      117.9439       25806.742      422.62794      13865.303      1.5534458      0.81905138   
     19700  -10176.095     -10297.834      121.73964      27283.488      436.22921      13847.816      1.5554075      0.81905138   
     19800  -10175.59      -10296.943      121.35303      30517.037      434.84384      13818.041      1.5587591      0.81905138   
     19900  -10175.994     -10294.474      118.4798       29873.136      424.54824      13784.422      1.5625607      0.81905138   
     20000  -10177.713     -10298.219      120.50562      32430.224      431.80733      13750.105      1.5664605      0.90558077   
     20100  -10176.198     -10300.232      124.03419      28761.962      444.45124      13720.817      1.5698043      0.90558077   
     20200  -10175.789     -10294.219      118.42987      30087.818      424.36933      13701.52       1.5720151      0.90558077   
     20300  -10174.901     -10297.52       122.61905      30638.688      439.3804       13701.486      1.572019       0.90558077   
     20400  -10176.583     -10294.118      117.53488      28329.153      421.16228      13718.251      1.5700979      0.90558077   
     20500  -10178.653     -10300.521      121.86826      29886.112      436.69008      13748.451      1.5666489      0.90558077   
     20600  -10177.997     -10298.271      120.27445      32874.263      430.97898      13779.445      1.5631252      0.90558077   
     20700  -10177.831     -10299.42       121.5889       28918.092      435.68907      13806.826      1.5600252      0.90558077   
     20800  -10177.776     -10300.181      122.40508      31471.211      438.61367      13823.43       1.5581514      0.90558077   
     20900  -10179.702     -10299.423      119.72076      28606.637      428.99496      13823.693      1.5581217      0.90558077   
     21000  -10178.902     -10298.137      119.23493      26063.178      427.25409      13809.107      1.5597675      0.80803898   
     21100  -10179.454     -10299.519      120.06546      25365.04       430.23013      13786.314      1.5623463      0.80803898   
     21200  -10178.628     -10298.186      119.55887      27993.98       428.41486      13757.168      1.5656563      0.80803898   
     21300  -10177.212     -10297.791      120.57875      28593.311      432.0694       13732.518      1.5684666      0.80803898   
     21400  -10175.976     -10296.476      120.49948      28780.77       431.78534      13713.543      1.5706369      0.80803898   
     21500  -10179.953     -10300.421      120.46721      30705.713      431.66972      13707.408      1.5713399      0.80803898   
     21600  -10182.396     -10300.695      118.29982      29908.94       423.90329      13708.526      1.5712117      0.80803898   
     21700  -10181.957     -10299.175      117.21818      30306.359      420.02746      13712.781      1.5707242      0.80803898   
     21800  -10182.801     -10302.677      119.8758       31585.107      429.55049      13721.316      1.5697471      0.80803898   
     21900  -10182.96      -10300.825      117.86561      28522.929      422.34738      13731.158      1.568622       0.80803898   
     22000  -10183.097     -10303.189      120.09284      28305.624      430.32821      13738.591      1.5677734      0.84696986   
     22100  -10182.665     -10300.928      118.26318      29278.552      423.77202      13743.957      1.5671612      0.84696986   
     22200  -10181.951     -10303.855      121.90453      29140.98       436.82007      13749.799      1.5664954      0.84696986   
     22300  -10183.899     -10302.316      118.41734      27724.128      424.32442      13749.869      1.5664874      0.84696986   
     22400  -10181.765     -10300.439      118.67351      27745.03       425.24236      13746.488      1.5668727      0.84696986   
     22500  -10181.871     -10300.486      118.61531      28538.581      425.0338       13745.407      1.5669959      0.84696986   
     22600  -10184.4       -10300.793      116.39304      29047.511      417.07074      13740.72       1.5675304      0.84696986   
     22700  -10183.048     -10301.483      118.43464      29965.846      424.38642      13733.67       1.5683351      0.84696986   
     22800  -10184.901     -10301.606      116.70507      25973.059      418.18886      13724.607      1.5693708      0.84696986   
     22900  -10182.122     -10300.111      117.989        27248.552      422.78954      13713.158      1.570681       0.84696986   
     23000  -10179.95      -10298.718      118.76802      32549.688      425.58102      13712.046      1.5708084      0.86232096   
     23100  -10180.217     -10302.746      122.52942      31718.364      439.0592       13721.848      1.5696863      0.86232096   
     23200  -10178.607     -10299.339      120.7316       30760.051      432.61709      13736.044      1.568064       0.86232096   
     23300  -10180.319     -10297.417      117.09818      31231.251      419.59748      13758.714      1.5654803      0.86232096   
     23400  -10181.889     -10300.784      118.89533      29222.642      426.03718      13786.072      1.5623737      0.86232096   
     23500  -10182.412     -10300.764      118.35205      30381.712      424.09045      13805.054      1.5602255      0.86232096   
     23600  -10181.337     -10300.128      118.79086      32885.222      425.66286      13813.232      1.5593018      0.86232096   
     23700  -10181.977     -10301.377      119.39977      29918.807      427.84474      13810.679      1.5595899      0.86232096   
     23800  -10181.608     -10302.153      120.54463      28812.262      431.94712      13798.506      1.5609658      0.86232096   
     23900  -10184.761     -10302.677      117.91579      28686.273      422.5272       13781.126      1.5629344      0.86232096   
     24000  -10179.417     -10296.658      117.24128      32769.495      420.11024      13760.424      1.5652858      0.84499167   
     24100  -10180.445     -10298.924      118.47844      30911.694      424.54334      13744.961      1.5670468      0.84499167   
     24200  -10181.792     -10301.628      119.83555      30660.876      429.40628      13738.786      1.567751       0.84499167   
     24300  -10181.387     -10298.97       117.58342      29197.359      421.33623      13737.724      1.5678723      0.84499167   
     24400  -10179.629     -10299.878      120.24837      28479.91       430.88555      13738.699      1.567761       0.84499167   
     24500  -10178.847     -10296.017      117.16998      30698.025      419.85475      13745.676      1.5669652      0.84499167   
     24600  -10177.857     -10297.586      119.72907      30931.989      429.02474      13760.508      1.5652762      0.84499167   
     24700  -10178.655     -10300.131      121.47635      29512.016      435.28577      13779.706      1.5630955      0.84499167   
     24800  -10175.999     -10293.036      117.037        30527.172      419.37825      13799.556      1.560847       0.84499167   
     24900  -10176.965     -10297.78       120.81488      28106.014      432.91551      13823.641      1.5581275      0.84499167   
     25000  -10177.318     -10298.187      120.86987      27349.956      433.11257      13842.266      1.5560311      0.80150599   
     25100  -10176.765     -10298.527      121.76173      24956.817      436.30836      13848.546      1.5553255      0.80150599   
     25200  -10173.494     -10293.869      120.37478      28129.882      431.3385       13843.701      1.5558699      0.80150599   
     25300  -10176.099     -10297.347      121.24756      30032.41       434.46594      13829.752      1.5574391      0.80150599   
     25400  -10176.241     -10297.07       120.82888      29137.256      432.96569      13808.644      1.5598198      0.80150599   
     25500  -10178.729     -10300.862      122.13273      27652.074      437.63777      13783.156      1.5627043      0.80150599   
     25600  -10177.18      -10296.003      118.82261      27930.755      425.77662      13755.72       1.5658211      0.80150599   
     25700  -10177.942     -10299.997      122.05445      31103.059      437.35724      13727.2        1.5690743      0.80150599   
     25800  -10175.201     -10297.564      122.36257      32217.16       438.46136      13703.496      1.5717884      0.80150599   
     25900  -10177.198     -10299.469      122.27162      29998.687      438.13544      13695.806      1.572671       0.80150599   
     26000  -10176.492     -10298.846      122.35362      32611.281      438.42926      13707.623      1.5713152      0.898119     
     26100  -10176.937     -10294.873      117.93606      31121.349      422.59985      13733.612      1.5683417      0.898119     
     26200  -10177.932     -10299.411      121.47948      29017.383      435.29696      13771.809      1.5639918      0.898119     
     26300  -10177.808     -10298.792      120.98396      29950.394      433.52136      13810.812      1.559575       0.898119     
     26400  -10177.706     -10297.935      120.22882      32065.183      430.8155       13846.799      1.5555218      0.898119     
     26500  -10177.858     -10296.549      118.69092      30616.477      425.30472      13874.422      1.5524248      0.898119     
     26600  -10180.836     -10300.859      120.02386      28826.546      430.08104      13887.549      1.5509574      0.898119     
     26700  -10178.279     -10299.673      121.39445      32199.888      434.99229      13875.831      1.5522672      0.898119     
     26800  -10177.327     -10299.286      121.95852      26434.103      437.01351      13841.555      1.556111       0.898119     
     26900  -10177.379     -10297.378      119.99864      29979.877      429.99066      13792.26       1.5616727      0.898119     
     27000  -10181.275     -10302.066      120.79104      31253.05       432.83009      13740.998      1.5674987      0.82703353   
     27100  -10181.436     -10300.86       119.42472      31481.806      427.93414      13689.125      1.5734385      0.82703353   
     27200  -10178.767     -10300.602      121.83521      33181.893      436.57164      13648.358      1.5781382      0.82703353   
     27300  -10181.102     -10299.82       118.71864      32414.042      425.40406      13630.961      1.5801524      0.82703353   
     27400  -10184.077     -10299.802      115.72534      30927.362      414.67817      13639.261      1.5791909      0.82703353   
     27500  -10181.969     -10301.411      119.44134      30424.003      427.99372      13669.277      1.5757232      0.82703353   
     27600  -10181.542     -10298.634      117.09209      31972.554      419.57565      13716.499      1.5702983      0.82703353   
     27700  -10182.819     -10302.682      119.86314      28789.171      429.50515      13774.945      1.5636357      0.82703353   
     27800  -10183.174     -10303.537      120.36303      24977.89       431.29641      13827.509      1.5576917      0.82703353   
     27900  -10185.388     -10302.03       116.64139      24694.559      417.96066      13861.908      1.5538263      0.82703353   
     28000  -10184.033     -10299.503      115.46973      25783.331      413.76225      13867.336      1.5532181      0.83667549   
     28100  -10185.324     -10301.542      116.21802      28684.508      416.44359      13841.399      1.5561286      0.83667549   
     28200  -10184.328     -10300.557      116.22904      29044.383      416.4831       13792.64       1.5616297      0.83667549   
     28300  -10183.098     -10299.065      115.96681      31523.832      415.54344      13733.632      1.5683394      0.83667549   
     28400  -10179.974     -10302.385      122.41036      29611.807      438.63259      13678.17       1.5746987      0.83667549   
     28500  -10178.253     -10297.358      119.10587      31236.423      426.7916       13638.705      1.5792552      0.83667549   
     28600  -10182.539     -10303.152      120.61362      33010.434      432.19432      13629.278      1.5803476      0.83667549   
     28700  -10181.336     -10300.478      119.14158      32276.047      426.91957      13643.744      1.578672       0.83667549   
     28800  -10182.466     -10305.5        123.03363      28108.14       440.86593      13677.764      1.5747455      0.83667549   
     28900  -10182.736     -10299.306      116.5702       30623.612      417.70558      13720.91       1.5697936      0.83667549   
     29000  -10182.166     -10300.602      118.4363       29029.642      424.39236      13770.376      1.5641546      0.91207356   
     29100  -10181.571     -10302.335      120.76482      27123.519      432.73614      13814.992      1.559103       0.91207356   
     29200  -10182.449     -10300.326      117.87707      28744.588      422.38847      13840.441      1.5562363      0.91207356   
     29300  -10181.296     -10300.633      119.33653      30406.817      427.61816      13842.379      1.5560183      0.91207356   
     29400  -10180.728     -10298.634      117.90585      27687.698      422.49158      13824.198      1.5580648      0.91207356   
     29500  -10179.699     -10300.566      120.86608      25618.024      433.09899      13792.352      1.5616623      0.91207356   
     29600  -10179.622     -10300.612      120.9905       25455.928      433.54481      13748.51       1.5666422      0.91207356   
     29700  -10182.26      -10298.077      115.8165       30487.426      415.00483      13698.378      1.5723756      0.91207356   
     29800  -10182.033     -10303.536      121.50337      29521.074      435.38258      13655.76       1.5772828      0.91207356   
     29900  -10179.608     -10298.454      118.84631      32390.492      425.86156      13623.971      1.5809632      0.91207356   
     30000  -10181.695     -10301.99       120.29507      31703.13       431.05289      13610.998      1.5824701      0.91489592   
     30100  -10183.136     -10303.425      120.28926      29576.429      431.03205      13623.248      1.5810471      0.91489592   
     30200  -10184.207     -10301.078      116.87122      27665.933      418.78419      13653.626      1.5775294      0.91489592   
     30300  -10183.542     -10300.595      117.0535       29095.1        419.43736      13697.123      1.5725198      0.91489592   
     30400  -10181.327     -10299.447      118.11957      29308.563      423.25741      13748.086      1.5666905      0.91489592   
     30500  -10181.995     -10301.778      119.78301      27293.077      429.21802      13795.234      1.5613361      0.91489592   
     30600  -10182.348     -10304.032      121.68368      26940.585      436.02869      13827.663      1.5576744      0.91489592   
     30700  -10183.198     -10301.918      118.71934      25036.384      425.40657      13837.153      1.5566061      0.91489592   
     30800  -10183.777     -10301.402      117.62515      26493.509      421.48576      13822.153      1.5582953      0.91489592   
     30900  -10183.029     -10302.892      119.86281      27567.507      429.50397      13787.171      1.5622492      0.91489592   
     31000  -10183.787     -10303.678      119.89133      28323.485      429.60616      13738.463      1.5677879      0.88109418   
     31100  -10183.428     -10303.728      120.30013      28192.042      431.071        13685.476      1.573858       0.88109418   
     31200  -10183.626     -10301.257      117.63032      29857.863      421.50427      13636.636      1.5794949      0.88109418   
     31300  -10184.711     -10303.373      118.66208      32441.539      425.20138      13602.64       1.5834424      0.88109418   
     31400  -10181.461     -10299.645      118.18326      33924.129      423.48564      13587.664      1.5851876      0.88109418   
     31500  -10180.301     -10301.098      120.79749      31536.758      432.85318      13598.989      1.5838675      0.88109418   
     31600  -10178.861     -10300.169      121.30714      32028.884      434.67944      13636.78       1.5794782      0.88109418   
     31700  -10181.628     -10304.955      123.32632      29535.855      441.91474      13696.843      1.5725519      0.88109418   
     31800  -10181.682     -10300.422      118.73976      29836.878      425.47972      13757.531      1.565615       0.88109418   
     31900  -10182.845     -10301.469      118.62347      28583.511      425.06303      13811.532      1.5594937      0.88109418   
     32000  -10183.374     -10300.059      116.68518      27622.253      418.11758      13846.739      1.5555285      0.88246953   
     32100  -10184.195     -10303.491      119.29533      25318.696      427.47051      13852.408      1.5548919      0.88246953   
     32200  -10183.763     -10302.633      118.87031      28665.611      425.94753      13825.081      1.5579653      0.88246953   
     32300  -10181.83      -10300.88       119.04952      28249.387      426.58969      13772.534      1.5639095      0.88246953   
     32400  -10182.075     -10300.252      118.17617      32236.222      423.46024      13706.755      1.5714148      0.88246953   
     32500  -10180.476     -10298.122      117.64597      31211.194      421.56037      13640.161      1.5790867      0.88246953   
     32600  -10177.971     -10298.574      120.60336      34716.52       432.15756      13590.309      1.5848791      0.88246953   
     32700  -10178.333     -10299.173      120.83977      34574.458      433.00469      13568.296      1.5874504      0.88246953   
     32800  -10177.423     -10300.235      122.81205      32019.362      440.07197      13580.283      1.5860491      0.88246953   
     32900  -10177.63      -10300.404      122.77408      30337.734      439.93591      13617.845      1.5816744      0.88246953   
     33000  -10175.4       -10294.384      118.98402      31324.192      426.355        13672.824      1.5753144      0.8768097    
     33100  -10178.775     -10300.726      121.95057      28395.635      436.98502      13739.032      1.567723       0.8768097    
     33200  -10179.388     -10300.46       121.07168      24955.108      433.83569      13795.078      1.5613538      0.8768097    
     33300  -10179.639     -10298.152      118.51329      24964.91       424.66822      13826.994      1.5577498      0.8768097    
     33400  -10181.95      -10301.155      119.20509      25632.172      427.14714      13834.276      1.5569298      0.8768097    
     33500  -10186.294     -10304.204      117.91001      26373.854      422.5065       13814.79       1.5591258      0.8768097    
     33600  -10188.452     -10302.332      113.87964      28844.182      408.06449      13770.97       1.5640871      0.8768097    
     33700  -10184.84      -10301.919      117.0795       28776.966      419.53052      13710.873      1.5709428      0.8768097    
     33800  -10180.239     -10300.491      120.25141      34332.021      430.89644      13649.284      1.5780313      0.8768097    
     33900  -10179.778     -10300.186      120.40732      34347.977      431.45509      13601.345      1.5835932      0.8768097    
     34000  -10176.582     -10298.91       122.32828      32327.595      438.33847      13577.622      1.58636        0.7794848    
     34100  -10179.292     -10300.359      121.06776      31294.263      433.82165      13582.825      1.5857523      0.7794848    
     34200  -10179.565     -10296.351      116.78595      30476.97       418.47868      13611.561      1.5824046      0.7794848    
     34300  -10182.249     -10302.254      120.00557      30881.567      430.01551      13656.586      1.5771875      0.7794848    
     34400  -10183.127     -10301.781      118.65338      28997.525      425.1702       13702.157      1.571942       0.7794848    
     34500  -10184.335     -10302.338      118.00281      29692.958      422.83902      13737.433      1.5679055      0.7794848    
     34600  -10184.008     -10301.63       117.62262      26991.058      421.47669      13759.098      1.5654366      0.7794848    
     34700  -10183.334     -10304.293      120.95955      25559.321      433.43391      13764.54       1.5648178      0.7794848    
     34800  -10180.832     -10300.039      119.20697      29666.893      427.1539       13752.217      1.56622        0.7794848    
     34900  -10178.591     -10300.683      122.09193      32680.617      437.49155      13733.073      1.5684033      0.7794848    
     35000  -10179.566     -10301.648      122.08199      31560.595      437.45594      13710.003      1.5710425      0.92374939   
     35100  -10178.571     -10299.9        121.32897      29893.086      434.75766      13683.348      1.5741028      0.92374939   
     35200  -10180.094     -10300.684      120.59062      31432.902      432.11194      13660.276      1.5767614      0.92374939   
     35300  -10177.447     -10297.829      120.38164      31993.716      431.36307      13647.841      1.5781981      0.92374939   
     35400  -10178.335     -10298.507      120.17182      27158.307      430.61124      13648.137      1.5781638      0.92374939   
     35500  -10176.913     -10295.598      118.68551      33049.258      425.28533      13663.302      1.5764122      0.92374939   
     35600  -10180.006     -10299.593      119.58726      30202.708      428.5166       13693.183      1.5729722      0.92374939   
     35700  -10181.836     -10300.971      119.13525      29074.493      426.8969       13727.898      1.5689945      0.92374939   
     35800  -10179.145     -10298.681      119.53627      28845.423      428.33386      13757.078      1.5656666      0.92374939   
     35900  -10178.359     -10299.183      120.82358      27669.561      432.94667      13775.098      1.5636183      0.92374939   
     36000  -10179.938     -10301.225      121.28703      27165.134      434.60737      13782.416      1.5627881      0.92180172   
     36100  -10181.164     -10301.694      120.52988      28535.724      431.89427      13778.069      1.5632812      0.92180172   
     36200  -10181.193     -10304.028      122.83428      27240.411      440.15163      13763.212      1.5649687      0.92180172   
     36300  -10183.033     -10299.441      116.40801      28061.572      417.12439      13734.754      1.5682113      0.92180172   
     36400  -10182.12      -10300.56       118.43998      30085.884      424.40552      13699.756      1.5722175      0.92180172   
     36500  -10181.417     -10302.546      121.12949      30133.171      434.04283      13665.66       1.5761402      0.92180172   
     36600  -10181.372     -10302.671      121.29897      29140.978      434.65016      13634.071      1.5797921      0.92180172   
     36700  -10179.241     -10298.629      119.38785      31439.024      427.80203      13612.648      1.5822782      0.92180172   
     36800  -10177.827     -10297.771      119.94444      32112.69       429.79646      13610.745      1.5824995      0.92180172   
     36900  -10179.19      -10299.483      120.29271      31839.732      431.04443      13628.506      1.5804371      0.92180172   
     37000  -10177.402     -10297.93       120.52775      31256.666      431.88664      13663.451      1.576395       0.85259948   
     37100  -10178.102     -10300.063      121.96069      30976.908      437.02128      13711.735      1.570844       0.85259948   
     37200  -10178.56      -10302.232      123.67215      31583.522      443.15395      13767.408      1.5644917      0.85259948   
     37300  -10178.78      -10299.973      121.19296      31682.456      434.2703       13816.207      1.5589659      0.85259948   
     37400  -10179.665     -10298.131      118.4656       29869.227      424.49734      13845.211      1.5557001      0.85259948   
     37500  -10180.288     -10301.183      120.89481      27855.17       433.20192      13849.157      1.5552568      0.85259948   
     37600  -10181.711     -10305.313      123.60189      28082.662      442.90219      13824.659      1.5580129      0.85259948   
     37700  -10178.75      -10296.727      117.97691      30336.202      422.74624      13774.136      1.5637276      0.85259948   
     37800  -10178.465     -10299.509      121.04416      33333.762      433.7371       13713.76       1.570612       0.85259948   
     37900  -10178.456     -10299.874      121.41834      32435.027      435.07789      13656.092      1.5772446      0.85259948   
     38000  -10181.176     -10301.455      120.27904      33711.97       430.99543      13609.15       1.5826849      0.90117614   
     38100  -10180.406     -10300.997      120.59114      32180.076      432.11378      13582.895      1.5857442      0.90117614   
     38200  -10178.669     -10298.62       119.95157      31672.634      429.82202      13582.18       1.5858277      0.90117614   
     38300  -10179.964     -10301.795      121.83119      34114.222      436.55726      13612.833      1.5822567      0.90117614   
     38400  -10180.986     -10300.017      119.03131      32154.68       426.52445      13667.766      1.5758974      0.90117614   
     38500  -10182.282     -10300.572      118.29042      28943.996      423.86963      13732.637      1.5684531      0.90117614   
     38600  -10184.421     -10301.744      117.32243      25825.915      420.40102      13795.258      1.5613334      0.90117614   
     38700  -10183.68      -10302.14       118.45907      25202.318      424.47393      13840.1        1.5562746      0.90117614   
     38800  -10184.3       -10301.673      117.37327      24231.579      420.5832       13857.605      1.5543088      0.90117614   
     38900  -10183.144     -10300.187      117.04386      25393.192      419.40282      13841.266      1.5561435      0.90117614   
     39000  -10183.071     -10301.926      118.85489      26800.648      425.89227      13794.733      1.5613928      0.86163739   
     39100  -10181.86      -10303.091      121.23061      28240.064      434.40518      13728.512      1.5689244      0.86163739   
     39200  -10179.796     -10296.886      117.09         35538.037      419.56815      13655.696      1.5772903      0.86163739   
     39300  -10178.559     -10297.322      118.7625       34471.065      425.56124      13594.758      1.5843605      0.86163739   
     39400  -10181.507     -10300.164      118.65678      34542.955      425.1824       13560.358      1.5883796      0.86163739   
     39500  -10184.981     -10302.342      117.36052      32205.494      420.53753      13556.944      1.5887796      0.86163739   
     39600  -10186.068     -10305.762      119.69462      30445.429      428.90129      13581.905      1.5858598      0.86163739   
     39700  -10186.05      -10301.301      115.25074      30774.206      412.97755      13627.49       1.5805549      0.86163739   
     39800  -10184.268     -10303.005      118.73744      30218.087      425.47142      13686.598      1.573729       0.86163739   
     39900  -10181.514     -10300.783      119.26907      28030.139      427.37641      13745.036      1.5670382      0.86163739   
     40000  -10179.943     -10300.995      121.05173      26139.865      433.7642       13793.135      1.5615737      0.87106405   
     40100  -10179.539     -10299.614      120.07477      27555.879      430.26347      13824.537      1.5580266      0.87106405   
     40200  -10182.004     -10303.864      121.85941      27865.351      436.65837      13838.745      1.556427       0.87106405   
     40300  -10182.701     -10305.427      122.72618      28864.944      439.76425      13826.936      1.5577563      0.87106405   
     40400  -10178.88      -10297.167      118.28705      30440.882      423.85756      13791.257      1.5617863      0.87106405   
     40500  -10176.095     -10298.443      122.34801      28650.624      438.40917      13746.753      1.5668424      0.87106405   
     40600  -10175.714     -10298.643      122.92893      29056.655      440.49078      13700.836      1.5720936      0.87106405   
     40700  -10174.593     -10297.701      123.10729      31798.656      441.1299       13665.124      1.5762021      0.87106405   
     40800  -10172.311     -10294.508      122.19666      33286.742      437.86685      13647.34       1.5782561      0.87106405   
     40900  -10177.09      -10298.539      121.44916      27785.518      435.18832      13651.148      1.5778158      0.87106405   
     41000  -10179.057     -10303.222      124.16555      31698.947      444.92195      13671.128      1.5755098      0.84557617   
     41100  -10177.384     -10300.076      122.69228      33164.606      439.64279      13694.934      1.572771       0.84557617   
     41200  -10178.591     -10298.211      119.61985      32163.696      428.63337      13717.484      1.5701857      0.84557617   
     41300  -10180.118     -10303.791      123.67334      31161.938      443.15821      13738.92       1.5677358      0.84557617   
     41400  -10175.783     -10300.258      124.47544      33111.73       446.03239      13753.214      1.5661064      0.84557617   
     41500  -10175.035     -10300.353      125.31741      32253.297      449.04941      13763.86       1.564895       0.84557617   
     41600  -10175.809     -10297.98       122.17132      29958.208      437.77602      13772.215      1.5639457      0.84557617   
     41700  -10178.295     -10299.261      120.96599      32959.646      433.457        13773.125      1.5638423      0.84557617   
     41800  -10177.376     -10297.749      120.37234      31108.363      431.32976      13766.796      1.5645613      0.84557617   
     41900  -10175.095     -10296.619      121.52445      29007.602      435.45812      13752.212      1.5662205      0.84557617   
     42000  -10175.543     -10297.067      121.5237       32400.923      435.45542      13737.23       1.5679286      0.84343688   
     42100  -10174.991     -10295.743      120.75248      32796.671      432.69191      13727.528      1.5690367      0.84343688   
     42200  -10176.983     -10300.299      123.31605      28635.175      441.87793      13723.155      1.5695368      0.84343688   
     42300  -10175.588     -10299.067      123.479        32680.401      442.46183      13721.559      1.5697193      0.84343688   
     42400  -10179.657     -10299.01       119.35302      33047.905      427.67723      13721.372      1.5697407      0.84343688   
     42500  -10177.901     -10298.986      121.08462      28904.049      433.88208      13720.584      1.5698308      0.84343688   
     42600  -10179.423     -10297.478      118.05458      29843.775      423.02454      13718.038      1.5701222      0.84343688   
     42700  -10182.083     -10302.965      120.88152      27066.153      433.15429      13714.999      1.5704702      0.84343688   
     42800  -10180.085     -10297.691      117.60563      29149.229      421.41583      13704.021      1.5717283      0.84343688   
     42900  -10182.811     -10301.877      119.06571      30357.888      426.64773      13689.94       1.5733449      0.84343688   
     43000  -10180.846     -10301.625      120.77902      33716.707      432.787        13676.135      1.574933       0.87365796   
     43100  -10180.178     -10300.082      119.90377      30579.78       429.65072      13667.437      1.5759353      0.87365796   
     43200  -10182.52      -10302.537      120.01722      27504.997      430.05725      13664.576      1.5762652      0.87365796   
     43300  -10180.012     -10300.28       120.26831      25033.048      430.95698      13662.997      1.5764474      0.87365796   
     43400  -10178.596     -10298.275      119.6788       27774.883      428.84459      13667.615      1.5759147      0.87365796   
     43500  -10181.385     -10299.831      118.44646      26983.423      424.42877      13684.363      1.5739861      0.87365796   
     43600  -10180.683     -10300.706      120.02315      26830.428      430.07852      13708.293      1.5712384      0.87365796   
     43700  -10182.756     -10300.336      117.58033      27959.452      421.32516      13730.796      1.5686633      0.87365796   
     43800  -10184.135     -10303.24       119.1054       30849.287      426.78995      13747.708      1.5667336      0.87365796   
     43900  -10182.599     -10301.71       119.11177      32335.18       426.81275      13754.467      1.5659637      0.87365796   
     44000  -10182.492     -10303.773      121.28059      31918.202      434.58428      13744.154      1.5671387      0.84536206   
     44100  -10182.334     -10301.699      119.36504      30725.945      427.72031      13720.513      1.569839       0.84536206   
     44200  -10181.881     -10304.332      122.45073      29925.015      438.77723      13686.45       1.573746       0.84536206   
     44300  -10180.787     -10299.99       119.20289      31765.749      427.13929      13647.532      1.5782338      0.84536206   
     44400  -10181.286     -10299.316      118.03044      30470.907      422.93804      13617.079      1.5817634      0.84536206   
     44500  -10181.159     -10299.333      118.17379      29473.606      423.45172      13600.006      1.5837491      0.84536206   
     44600  -10186.091     -10304.863      118.77184      27866.678      425.59467      13598.677      1.5839038      0.84536206   
     44700  -10181.209     -10300.681      119.47214      25861.504      428.10409      13610.399      1.5825397      0.84536206   
     44800  -10181.497     -10303.255      121.75771      26487.292      436.29396      13641.36       1.5789479      0.84536206   
     44900  -10182.532     -10300.179      117.64738      30655.176      421.5654       13688.028      1.5735646      0.84536206   
     45000  -10184.618     -10303.309      118.69017      28533.725      425.30204      13741.556      1.567435       0.91240897   
     45100  -10184.248     -10303.658      119.4104       27514.056      427.88285      13787.966      1.5621591      0.91240897   
     45200  -10184.558     -10301.964      117.40596      24558.215      420.70033      13816.01       1.5589881      0.91240897   
     45300  -10183.558     -10299.1        115.54245      27137.051      414.02283      13816.159      1.5589713      0.91240897   
     45400  -10178.536     -10300.424      121.88784      29703.891      436.76025      13789.601      1.5619739      0.91240897   
     45500  -10178.151     -10298.027      119.87598      31117.574      429.55116      13743.743      1.5671857      0.91240897   
     45600  -10177.831     -10299.063      121.23193      32172.298      434.40993      13687.551      1.5736194      0.91240897   
     45700  -10175.624     -10299.454      123.82988      32502.123      443.71913      13632.234      1.5800049      0.91240897   
     45800  -10174.561     -10296.193      121.63223      36419.561      435.8443       13591.002      1.5847983      0.91240897   
     45900  -10174.745     -10297.845      123.10041      35964.182      441.10525      13576.815      1.5864543      0.91240897   
     46000  -10174.339     -10294.851      120.51205      32871.969      431.83037      13591.54       1.5847355      0.88185059   
     46100  -10176.128     -10297.313      121.18451      28216.556      434.24002      13638.412      1.5792892      0.88185059   
     46200  -10176.696     -10297.828      121.13231      27596.441      434.05295      13703.227      1.5718193      0.88185059   
     46300  -10178.148     -10298.784      120.63562      28420.398      432.27318      13772.189      1.5639487      0.88185059   
     46400  -10177.439     -10297.241      119.80228      27934.239      429.28706      13830.547      1.5573496      0.88185059   
     46500  -10179.956     -10299.63       119.67364      28225.161      428.8261       13868.811      1.5530529      0.88185059   
     46600  -10179.528     -10299.939      120.41168      25433.846      431.47073      13877.972      1.5520277      0.88185059   
     46700  -10175.903     -10297.728      121.82519      26749.16       436.53574      13855.066      1.5545936      0.88185059   
     46800  -10175.541     -10295.897      120.35606      29757.869      431.27144      13803.832      1.5603636      0.88185059   
     46900  -10177.239     -10296.069      118.82992      30227.339      425.80283      13739.106      1.5677146      0.88185059   
     47000  -10176.388     -10296.757      120.36825      31695.256      431.31511      13676.349      1.5749084      0.91515698   
     47100  -10176.886     -10297.266      120.37989      30011.877      431.35681      13627.443      1.5805604      0.91515698   
     47200  -10176.711     -10299.915      123.20409      28905.925      441.47676      13596.033      1.5842118      0.91515698   
     47300  -10174.598     -10295.903      121.30488      33002.196      434.67131      13590.984      1.5848003      0.91515698   
     47400  -10176.869     -10298.238      121.36899      31203.218      434.90106      13615.512      1.5819454      0.91515698   
     47500  -10176.48      -10299.546      123.06604      28984.381      440.9821       13660.166      1.5767742      0.91515698   
     47600  -10177.668     -10299.851      122.18302      29066.356      437.81796      13711.949      1.5708195      0.91515698   
     47700  -10177.909     -10296.768      118.85877      29613.49       425.9062       13763.775      1.5649048      0.91515698   
     47800  -10182.022     -10302.892      120.8702       28527.97       433.11373      13803.929      1.5603526      0.91515698   
     47900  -10181.816     -10300.934      119.11809      27042.372      426.8354       13817.09       1.5588664      0.91515698   
     48000  -10177.454     -10296.776      119.32191      28565.323      427.56575      13805.052      1.5602256      0.85509092   
     48100  -10177.533     -10295.692      118.15848      25527.166      423.39684      13777.023      1.5633999      0.85509092   
     48200  -10176.776     -10297.521      120.74448      24904.886      432.66323      13736.8        1.5679778      0.85509092   
     48300  -10173.374     -10295.682      122.30824      27785.984      438.26666      13696.285      1.572616       0.85509092   
     48400  -10171.904     -10295.851      123.94725      30163.58       444.13972      13665.433      1.5761664      0.85509092   
     48500  -10172.23      -10293.705      121.47488      32348.892      435.28047      13650.795      1.5778566      0.85509092   
     48600  -10173.382     -10298.337      124.95514      34915.249      447.75128      13655.829      1.5772749      0.85509092   
     48700  -10175.196     -10298.382      123.18662      37012.043      441.41415      13679.231      1.5745765      0.85509092   
     48800  -10180.997     -10299.446      118.44841      31878.033      424.43574      13712.475      1.5707593      0.85509092   
     48900  -10181.772     -10299.099      117.32685      31752.439      420.41687      13742.956      1.5672754      0.85509092   
     49000  -10183.026     -10304.394      121.36737      28503.443      434.89524      13764.529      1.564819       0.86827917   
     49100  -10182.401     -10303.138      120.73702      25829.136      432.63651      13771.504      1.5640264      0.86827917   
     49200  -10182.514     -10301.198      118.68389      28370.024      425.27953      13763.003      1.5649926      0.86827917   
     49300  -10181.9       -10303.874      121.97415      26421.692      437.06952      13740.401      1.5675668      0.86827917   
     49400  -10183.271     -10301.442      118.17059      28507.425      423.44025      13704.69       1.5716515      0.86827917   
     49500  -10177.455     -10298.384      120.92893      35502.718      433.32419      13665.365      1.5761742      0.86827917   
     49600  -10177.093     -10298.218      121.12517      32433.285      434.02737      13634.357      1.5797589      0.86827917   
     49700  -10179.757     -10296.68       116.92353      33253.923      418.97164      13618.717      1.5815731      0.86827917   
     49800  -10178.755     -10301.136      122.3809       29116.164      438.52702      13624.781      1.5808692      0.86827917   
     49900  -10182.104     -10300.742      118.63783      27783.821      425.11448      13646.529      1.5783498      0.86827917   
     50000  -10179.229     -10298.298      119.06845      27134.4        426.65754      13677.406      1.5747867      0.81113407   
     50100  -10181.692     -10302.564      120.87238      31780.225      433.12154      13712.686      1.570735       0.81113407   
     50200  -10182.883     -10301.406      118.52243      30947.012      424.70099      13745.252      1.5670135      0.81113407   
     50300  -10183.698     -10302.668      118.96963      26618.066      426.30344      13771.57       1.5640189      0.81113407   
     50400  -10181.414     -10302.583      121.16973      29485.415      434.18705      13780.283      1.5630301      0.81113407   
     50500  -10180.935     -10300.226      119.29048      26450.076      427.45312      13773.508      1.5637989      0.81113407   
     50600  -10179.384     -10298.082      118.698        29097.608      425.33009      13758.098      1.5655504      0.81113407   
     50700  -10178.372     -10301.06       122.68834      31652.626      439.62866      13734.538      1.5682359      0.81113407   
     50800  -10175.956     -10297.667      121.7108       34580.403      436.12587      13706.36       1.57146        0.81113407   
     50900  -10172.402     -10295.439      123.03662      33643.07       440.87665      13683.25       1.5741141      0.81113407   
     51000  -10175.102     -10298.222      123.12054      35869.26       441.17737      13673.139      1.5752781      0.81308665   
     51100  -10177.457     -10298.26       120.80239      31125.767      432.87076      13675.605      1.574994       0.81308665   
     51200  -10178.521     -10302.311      123.79055      29776.087      443.57823      13687.08       1.5736736      0.81308665   
     51300  -10180.619     -10296.438      115.81947      27317.149      415.01547      13699.229      1.572278       0.81308665   
     51400  -10181.865     -10300.439      118.57371      29158.91       424.88472      13708.246      1.5712438      0.81308665   
     51500  -10177.953     -10300.211      122.25799      29717.03       438.08659      13713          1.5706991      0.81308665   
     51600  -10175.248     -10299.816      124.56794      31649.693      446.36384      13714.428      1.5705355      0.81308665   
     51700  -10178.63      -10300.924      122.29364      28593.888      438.21433      13719.253      1.5699832      0.81308665   
     51800  -10182.399     -10299.396      116.99652      28098.005      419.23319      13722.919      1.5695637      0.81308665   
     51900  -10182.055     -10302.115      120.06035      28649.425      430.21182      13718.998      1.5700123      0.81308665   
     52000  -10181.285     -10300.516      119.23141      31700.886      427.24146      13707.596      1.5713183      0.85671963   
     52100  -10181.348     -10296.038      114.68984      29954.326      410.96768      13689.5        1.5733954      0.85671963   
     52200  -10181.026     -10300.584      119.55847      29986.837      428.41342      13670.359      1.5755984      0.85671963   
     52300  -10180.825     -10301.454      120.6288       30204.539      432.24873      13651.376      1.5777894      0.85671963   
     52400  -10180.426     -10299.156      118.73031      32017.523      425.44588      13636.751      1.5794816      0.85671963   
     52500  -10179.25      -10303.554      124.30451      31754.241      445.4199       13633.287      1.5798828      0.85671963   
     52600  -10180.559     -10300.311      119.75197      33350.912      429.10678      13638.485      1.5792808      0.85671963   
     52700  -10179.827     -10298.171      118.34401      30617.969      424.06164      13655.51       1.5773118      0.85671963   
     52800  -10180.979     -10299.912      118.93321      30597.123      426.17293      13677.065      1.5748259      0.85671963   
     52900  -10178.685     -10301.008      122.32326      31201.255      438.32047      13700.104      1.5721776      0.85671963   
     53000  -10178.376     -10299.416      121.04027      31348.259      433.72314      13723.65       1.5694802      0.87779118   
     53100  -10175.65      -10297.519      121.86874      29734.69       436.69181      13747.724      1.5667318      0.87779118   
     53200  -10178.493     -10299.892      121.3988       30019.655      435.00788      13767.568      1.5644736      0.87779118   
     53300  -10174.459     -10296.293      121.8339       29108.028      436.56695      13776.844      1.5634202      0.87779118   
     53400  -10175.777     -10297.198      121.42074      28082.816      435.08647      13774.238      1.563716       0.87779118   
     53500  -10177.887     -10298.14       120.25292      26712.603      430.90183      13761.993      1.5651073      0.87779118   
     53600  -10176.068     -10300.223      124.15441      26588.177      444.88203      13740.662      1.567537       0.87779118   
     53700  -10172.803     -10299.654      126.85067      29238.333      454.54355      13716.216      1.5703307      0.87779118   
     53800  -10177.848     -10300.608      122.76016      27894.108      439.88602      13695.497      1.5727065      0.87779118   
     53900  -10180.991     -10297.578      116.58747      29497.573      417.76746      13674.444      1.5751277      0.87779118   
     54000  -10181.455     -10303.029      121.5741       28394.515      435.636        13658.209      1.5770001      0.90737766   
     54100  -10182.282     -10300.807      118.52519      29179.793      424.71087      13645.953      1.5784164      0.90737766   
     54200  -10180.607     -10297.091      116.48416      31420.647      417.39725      13640.311      1.5790693      0.90737766   
     54300  -10182.037     -10301.542      119.50467      29578.42       428.22064      13647.92       1.5781889      0.90737766   
     54400  -10182.775     -10300.869      118.09457      28348.124      423.16782      13660.818      1.5766988      0.90737766   
     54500  -10182.604     -10299.188      116.58355      29111.007      417.7534       13675.693      1.5749839      0.90737766   
     54600  -10183.063     -10297.808      114.74509      31552.157      411.16565      13692.951      1.5729989      0.90737766   
     54700  -10186.553     -10304.804      118.2503       32118.454      423.72584      13708.239      1.5712446      0.90737766   
     54800  -10184.451     -10302.139      117.6881       32308.961      421.71133      13711.904      1.5708247      0.90737766   
     54900  -10184.994     -10303.951      118.95682      29301.696      426.25752      13705.72       1.5715334      0.90737766   
     55000  -10183.737     -10303.497      119.75961      26682.297      429.13415      13691.307      1.5731877      0.88670134   
     55100  -10183.122     -10302.377      119.25493      28119.666      427.32574      13673.14       1.575278       0.88670134   
     55200  -10187.008     -10304.235      117.22749      28949.346      420.06082      13659.255      1.5768793      0.88670134   
     55300  -10186.304     -10302.164      115.85945      33518.884      415.15872      13645.392      1.5784813      0.88670134   
     55400  -10186.222     -10304.758      118.53658      32633.79       424.75168      13632.83       1.5799358      0.88670134   
     55500  -10182.063     -10301.595      119.53145      34003.333      428.31658      13628.468      1.5804415      0.88670134   
     55600  -10179.811     -10300.775      120.96336      33414.088      433.44756      13634.645      1.5797255      0.88670134   
     55700  -10177.518     -10298.409      120.89096      31839.082      433.18812      13654.362      1.5774444      0.88670134   
     55800  -10179.918     -10299.778      119.86         29579.718      429.49389      13685.085      1.573903       0.88670134   
     55900  -10179.441     -10296.228      116.78712      30941.836      418.48286      13721.395      1.5697381      0.88670134   
     56000  -10183.672     -10300.459      116.78712      28415.52       418.48285      13755.389      1.5658587      0.81590915   
     56100  -10183.139     -10300.089      116.94951      27315.107      419.06476      13775.37       1.5635875      0.81590915   
     56200  -10183.925     -10300.558      116.63238      25589.503      417.92836      13776.915      1.5634122      0.81590915   
     56300  -10184.93      -10304.701      119.77067      26778.771      429.17379      13759.602      1.5653794      0.81590915   
     56400  -10182.342     -10301.268      118.92601      26750.989      426.14714      13726.526      1.5691513      0.81590915   
     56500  -10178.358     -10296.119      117.76085      30805.75       421.97201      13688.792      1.5734767      0.81590915   
     56600  -10180.394     -10299.37       118.97608      30040.45       426.32653      13662.988      1.5764485      0.81590915   
     56700  -10182.592     -10301.093      118.50092      27626.421      424.62391      13648.607      1.5781095      0.81590915   
     56800  -10180.253     -10300.656      120.40371      29454.973      431.44218      13647.427      1.5782459      0.81590915   
     56900  -10180.616     -10300.434      119.81837      31814.162      429.34473      13656.097      1.577244       0.81590915   
[...]
    849000  -10179.841     -10300.823      120.98168      29695.79       433.51321      13739.951      1.5676181      0.83684581   
    849100  -10177.721     -10296.851      119.13007      29540.199      426.87834      13717.349      1.5702011      0.83684581   
    849200  -10178.687     -10299.036      120.34914      27008.678      431.24664      13694.839      1.572782       0.83684581   
    849300  -10179.203     -10298.957      119.75348      33007.714      429.11221      13679.045      1.5745979      0.83684581   
    849400  -10179.476     -10301.723      122.2472       31466.33       438.04794      13675.286      1.5750308      0.83684581   
    849500  -10179.609     -10300.537      120.92795      32294.611      433.32066      13677.52       1.5747735      0.83684581   
    849600  -10182.465     -10304.299      121.834        29821.791      436.56731      13687.256      1.5736534      0.83684581   
    849700  -10179.874     -10301.222      121.34804      31599.596      434.826        13696.679      1.5725708      0.83684581   
    849800  -10176.87      -10299.515      122.64486      32855.884      439.47288      13707.786      1.5712965      0.83684581   
    849900  -10179.655     -10298.974      119.31877      34435.895      427.55451      13724.557      1.5693764      0.83684581   
    850000  -10177.968     -10301.28       123.31245      30375.804      441.86505      13742.947      1.5672764      0.89648955   
    850100  -10181.119     -10299.868      118.74892      29974.995      425.51257      13755.282      1.565871       0.89648955   
    850200  -10184.022     -10305.304      121.2818       29239.358      434.58862      13762.098      1.5650955      0.89648955   
    850300  -10185.977     -10304.87       118.89351      30347.41       426.03066      13752.949      1.5661366      0.89648955   
    850400  -10185.141     -10305.393      120.25189      27931.18       430.89817      13733.504      1.5683541      0.89648955   
    850500  -10184.646     -10303.538      118.89173      27898.259      426.0243       13707.076      1.5713779      0.89648955   
    850600  -10181.676     -10303.169      121.4937       30512.929      435.34791      13679.272      1.5745719      0.89648955   
    850700  -10182.865     -10303.211      120.34553      33170.574      431.2337       13659.119      1.576895       0.89648955   
    850800  -10183.616     -10301.831      118.2146       32118.016      423.59795      13647.355      1.5782542      0.89648955   
    850900  -10185.291     -10302.48       117.18852      32787.001      419.92117      13645.251      1.5784977      0.89648955   
    851000  -10183.375     -10301.755      118.37997      31006.521      424.1905       13654.653      1.5774107      0.91032746   
    851100  -10183.355     -10301.046      117.69024      32008.777      421.71901      13677.876      1.5747326      0.91032746   
    851200  -10185.544     -10303.031      117.48716      32445.454      420.9913       13708.09       1.5712616      0.91032746   
    851300  -10183.805     -10303.336      119.53035      30434.376      428.31265      13734.564      1.568233       0.91032746   
    851400  -10183.373     -10302.048      118.67565      30744.796      425.25001      13756.778      1.5657006      0.91032746   
    851500  -10182.585     -10304.27       121.68502      30391.361      436.03347      13768.148      1.5644077      0.91032746   
    851600  -10187.332     -10303.211      115.87875      28081.868      415.22791      13768.001      1.5644244      0.91032746   
    851700  -10186.952     -10305.343      118.39104      28970.88       424.23017      13752.82       1.5661513      0.91032746   
    851800  -10184.534     -10304.933      120.39915      28917.814      431.42582      13722.298      1.5696348      0.91032746   
    851900  -10182.773     -10299.356      116.58335      28864.427      417.7527       13685.07       1.5739047      0.91032746   
    852000  -10180.536     -10302.977      122.4416       28663.57       438.74451      13651.336      1.577794       0.83705087   
    852100  -10180.326     -10300.752      120.42671      31545.054      431.52457      13631.731      1.5800632      0.83705087   
    852200  -10178.669     -10300.237      121.56894      34338.848      435.61753      13634.489      1.5797436      0.83705087   
    852300  -10177.725     -10301.247      123.52225      32367.213      442.61682      13660.456      1.5767407      0.83705087   
    852400  -10182.08      -10304.081      122.00102      29590.715      437.16579      13704.76       1.5716435      0.83705087   
    852500  -10181.303     -10300.92       119.6173       33197.69       428.62421      13759.533      1.5653872      0.83705087   
    852600  -10180.88      -10300.611      119.73097      29906.748      429.03154      13812.576      1.5593757      0.83705087   
    852700  -10181.403     -10298.335      116.93236      27532.938      419.00328      13855.249      1.554573       0.83705087   
    852800  -10180.111     -10298.121      118.00963      25080.929      422.86347      13879.237      1.5518862      0.83705087   
    852900  -10177.93      -10299.47       121.53979      26893.384      435.51308      13882.026      1.5515744      0.83705087   
    853000  -10182         -10302.962      120.96244      25794.536      433.44425      13858.702      1.5541857      0.84694438   
    853100  -10180.925     -10302.849      121.92394      25166.437      436.8896       13807.761      1.5599195      0.84694438   
    853200  -10180.72      -10301.931      121.21082      29604.753      434.33429      13736.153      1.5680516      0.84694438   
    853300  -10178.646     -10299.816      121.17021      33646.96       434.18876      13662.417      1.5765143      0.84694438   
    853400  -10178.251     -10298.319      120.06777      35100.606      430.23839      13603.555      1.5833359      0.84694438   
    853500  -10178.629     -10301.12       122.49111      35861.536      438.92195      13574.182      1.586762       0.84694438   
    853600  -10180.045     -10301.224      121.17931      32566.942      434.22137      13579.813      1.5861041      0.84694438   
    853700  -10180.686     -10298.9        118.21444      27566.352      423.59738      13622.058      1.5811852      0.84694438   
    853800  -10180.639     -10301.433      120.79335      27693.234      432.83835      13694.422      1.57283        0.84694438   
    853900  -10178.86      -10299.513      120.65267      30571.487      432.33428      13779.761      1.5630893      0.84694438   
    854000  -10182.311     -10302.626      120.31494      27876.464      431.12408      13864.395      1.5535475      0.8634612    
    854100  -10185.428     -10302.148      116.72007      29336.433      418.24258      13926.106      1.5466633      0.8634612    
    854200  -10184.857     -10303.809      118.95197      24928.347      426.24016      13952.891      1.5436942      0.8634612    
    854300  -10182.523     -10301.452      118.9291       27966.194      426.1582       13941.594      1.544945       0.8634612    
    854400  -10180.854     -10299.828      118.97318      29660.586      426.31614      13894.41       1.5501916      0.8634612    
    854500  -10180.216     -10301.98       121.76432      29903.327      436.31762      13821.967      1.5583163      0.8634612    
    854600  -10179.514     -10300.351      120.83761      32239.79       432.99696      13741.723      1.5674159      0.8634612    
    854700  -10178.023     -10298.294      120.27135      29727.115      430.96789      13671.487      1.5754685      0.8634612    
    854800  -10177.275     -10297.184      119.90913      30413.536      429.66993      13624.495      1.5809024      0.8634612    
    854900  -10176.997     -10297.445      120.44812      32297.303      431.60129      13610.678      1.5825073      0.8634612    
    855000  -10178.963     -10300.437      121.47416      30177.117      435.27791      13630.924      1.5801568      0.82947897   
    855100  -10180.537     -10301.105      120.56802      30558.878      432.03092      13674.912      1.5750739      0.82947897   
    855200  -10180.351     -10300.025      119.67375      30236.351      428.82649      13731.552      1.568577       0.82947897   
    855300  -10184.506     -10304.2        119.6942       26719.153      428.89977      13789.701      1.5619625      0.82947897   
    855400  -10185.761     -10303.946      118.18515      30031.796      423.49243      13830.563      1.5573478      0.82947897   
    855500  -10188.656     -10303.665      115.00906      29612.157      412.11155      13843.514      1.5558909      0.82947897   
    855600  -10185.793     -10302.645      116.85228      26935.387      418.71636      13829.433      1.557475       0.82947897   
    855700  -10186.371     -10305.221      118.84962      26901.776      425.87342      13789.119      1.5620285      0.82947897   
    855800  -10184.648     -10303.822      119.17426      30994.5        427.03668      13731.367      1.5685981      0.82947897   
    855900  -10181.007     -10300.305      119.29805      31395.617      427.48027      13669.703      1.575674       0.82947897   
    856000  -10175.741     -10297.482      121.74124      32737.048      436.23492      13621.47       1.5812534      0.99483196   
    856100  -10176.652     -10301.349      124.69718      34990.404      446.82696      13599.568      1.5838001      0.99483196   
    856200  -10178.725     -10301.199      122.47367      32355.893      438.85944      13606.886      1.5829483      0.99483196   
    856300  -10181.59      -10301.654      120.06411      31952.442      430.22529      13641.117      1.578976       0.99483196   
    856400  -10183.633     -10303.638      120.00529      28922.997      430.01452      13697.129      1.572519       0.99483196   
    856500  -10185.887     -10305.193      119.306        29708.446      427.50876      13756.79       1.5656993      0.99483196   
    856600  -10184.3       -10300.992      116.69217      31106.025      418.14262      13808.535      1.5598321      0.99483196   
    856700  -10183.388     -10302.528      119.14063      26253.935      426.91619      13851.152      1.5550329      0.99483196   
    856800  -10182.597     -10305.283      122.6857       25193.243      439.6192       13872.803      1.552606       0.99483196   
    856900  -10181.143     -10301.059      119.91681      26547.336      429.69747      13867.027      1.5532526      0.99483196   
    857000  -10180.7       -10302.459      121.75815      28387.691      436.29552      13841.265      1.5561436      0.81964317   
    857100  -10179.151     -10296.922      117.77087      31192.79       422.00793      13797.373      1.561094       0.81964317   
    857200  -10176.104     -10299.925      123.82144      33049.697      443.68889      13749.608      1.5665172      0.81964317   
    857300  -10178.324     -10299.424      121.10065      34693.072      433.93951      13706.737      1.5714168      0.81964317   
    857400  -10179.473     -10299.424      119.95091      32050.085      429.81966      13677.288      1.5748002      0.81964317   
    857500  -10181.575     -10304.525      122.9498       32297.871      440.56558      13665.099      1.576205       0.81964317   
    857600  -10181.29      -10302.305      121.01492      32586.612      433.6323       13665.679      1.576138       0.81964317   
    857700  -10180.259     -10299.863      119.60447      30280.724      428.57826      13679.157      1.5745851      0.81964317   
    857800  -10178.901     -10300.466      121.56491      30052.872      435.6031       13708.623      1.5712006      0.81964317   
    857900  -10176.241     -10299.314      123.07282      29597.243      441.00639      13744.284      1.5671239      0.81964317   
    858000  -10179.993     -10301.326      121.33349      30051.062      434.77384      13778.703      1.5632093      0.85112891   
    858100  -10179.534     -10300.374      120.84012      28845.998      433.00594      13809.35       1.5597401      0.85112891   
    858200  -10180.119     -10302.113      121.99378      29167.78       437.13985      13831.439      1.5572491      0.85112891   
    858300  -10180.58      -10300.467      119.88679      29410.219      429.58989      13832.225      1.5571606      0.85112891   
    858400  -10177.141     -10299.346      122.20441      24926.016      437.8946       13813.515      1.5592697      0.85112891   
    858500  -10179.151     -10298.694      119.54358      29034.319      428.36008      13784.119      1.5625951      0.85112891   
    858600  -10177.408     -10301.814      124.40585      31305.934      445.78303      13747.404      1.5667682      0.85112891   
    858700  -10177.588     -10300.801      123.21292      31171.389      441.50841      13708.309      1.5712366      0.85112891   
    858800  -10177.678     -10298.582      120.90361      31979.435      433.23346      13676.117      1.5749351      0.85112891   
    858900  -10178.636     -10302.072      123.43591      30998.211      442.30745      13658.64       1.5769503      0.85112891   
    859000  -10176.499     -10299.22       122.72124      29587.781      439.74655      13654.12       1.5774723      0.85312231   
    859100  -10172.826     -10296.753      123.92721      31158.647      444.06791      13665.116      1.576203       0.85312231   
    859200  -10174.204     -10298.675      124.47155      30360.244      446.01843      13695.989      1.57265        0.85312231   
    859300  -10174.202     -10295.336      121.13394      30828.524      434.05878      13739.068      1.5677189      0.85312231   
    859400  -10180.62      -10303.941      123.32063      30390.404      441.89436      13787.37       1.5622266      0.85312231   
    859500  -10183.85      -10300.017      116.16714      28122.81       416.26127      13822.552      1.5582504      0.85312231   
    859600  -10184.568     -10300.299      115.7309       23672.148      414.69809      13833.307      1.5570388      0.85312231   
    859700  -10182.985     -10302.825      119.84075      23318.764      429.4249       13815.504      1.5590453      0.85312231   
    859800  -10180.973     -10299.502      118.52866      29824.338      424.72332      13774.967      1.5636333      0.85312231   
    859900  -10177.579     -10302.554      124.97455      30626.362      447.82083      13727.849      1.5690001      0.85312231   
    860000  -10179.722     -10299.255      119.53274      31866.672      428.32122      13679.995      1.5744886      0.84070746   
    860100  -10180.243     -10301.423      121.18032      31000.057      434.22499      13639.197      1.5791983      0.84070746   
    860200  -10180.917     -10301.627      120.70973      29534.048      432.53871      13614.441      1.5820698      0.84070746   
    860300  -10182.602     -10300.882      118.28034      31627.747      423.8335       13609.273      1.5826706      0.84070746   
    860400  -10181.566     -10300.891      119.32477      33215.896      427.57601      13625.941      1.5807346      0.84070746   
    860500  -10181.296     -10302.97       121.6739       30418.969      435.99362      13658.687      1.5769449      0.84070746   
    860600  -10181.769     -10303.491      121.72121      27271.025      436.16315      13703.178      1.5718249      0.84070746   
    860700  -10185.39      -10302.146      116.7561       25976.493      418.3717       13747.262      1.5667845      0.84070746   
    860800  -10186.272     -10302.344      116.07171      25593.268      415.91933      13777.551      1.56334        0.84070746   
    860900  -10188.86      -10307.281      118.42085      23883.13       424.33697      13790.806      1.5618374      0.84070746   
    861000  -10186.036     -10302.178      116.14199      28058.678      416.17116      13784.67       1.5625326      0.82728912   
    861100  -10184.421     -10303.621      119.19938      31477.443      427.12669      13760.397      1.5652889      0.82728912   
    861200  -10185.413     -10304.614      119.20094      28380.914      427.1323       13722.346      1.5696293      0.82728912   
    861300  -10182.614     -10302.407      119.79336      27478.005      429.25509      13679.745      1.5745174      0.82728912   
    861400  -10182.219     -10301.862      119.64292      31811.8        428.71603      13644.732      1.5785577      0.82728912   
    861500  -10179.104     -10303.138      124.03385      30880.785      444.45004      13626.079      1.5807186      0.82728912   
    861600  -10182.262     -10301.4        119.13776      29311.875      426.90589      13625.335      1.5808049      0.82728912   
    861700  -10180.053     -10302.426      122.37248      30487.222      438.49686      13642.161      1.5788552      0.82728912   
    861800  -10178.82      -10297.848      119.02861      32087.692      426.51479      13673.701      1.5752134      0.82728912   
    861900  -10179.94      -10303.162      123.2221       28836.122      441.5413       13717.639      1.5701679      0.82728912   
    862000  -10182.344     -10301.746      119.40153      32417.006      427.85106      13759.057      1.5654414      0.83826494   
    862100  -10182.884     -10302.522      119.63792      34231.929      428.6981       13792.467      1.5616493      0.83826494   
    862200  -10182.029     -10302.757      120.72708      30226.898      432.60089      13808.007      1.5598918      0.83826494   
    862300  -10181.118     -10301.917      120.79862      31223.04       432.85725      13802.521      1.5605118      0.83826494   
    862400  -10179.255     -10301.259      122.00408      30449.252      437.17677      13780.537      1.5630013      0.83826494   
    862500  -10177.616     -10299.106      121.48971      29899.942      435.33363      13746.515      1.5668696      0.83826494   
    862600  -10177.81      -10300.886      123.07668      30677.473      441.02019      13710.388      1.5709983      0.83826494   
    862700  -10177.949     -10303.435      125.48628      30010.823      449.65451      13678.36       1.5746768      0.83826494   
    862800  -10182.441     -10301.277      118.83621      31006.09       425.82533      13654.115      1.5774729      0.83826494   
    862900  -10183.035     -10302.648      119.61305      33109.511      428.60898      13643.773      1.5786686      0.83826494   
    863000  -10182.34      -10303.362      121.02138      32224.743      433.65545      13645.145      1.5785099      0.83598524   
    863100  -10182.21      -10302.523      120.31325      31601.768      431.11801      13656.822      1.5771602      0.83598524   
    863200  -10184.453     -10303.568      119.11454      31402.679      426.8227       13677.888      1.5747311      0.83598524   
    863300  -10186.624     -10304.142      117.51763      29825.457      421.10049      13696.894      1.572546       0.83598524   
    863400  -10183.69      -10303.359      119.66873      30508.753      428.8085       13708.575      1.5712061      0.83598524   
    863500  -10183.946     -10302.203      118.25677      30340.121      423.74905      13710.865      1.5709436      0.83598524   
    863600  -10183.327     -10302.12       118.79281      27939.166      425.66982      13705.587      1.5715486      0.83598524   
    863700  -10184.645     -10303.483      118.8384       30389.901      425.83319      13693.766      1.5729053      0.83598524   
    863800  -10184.57      -10302.572      118.00252      33371.696      422.83799      13680.531      1.5744269      0.83598524   
    863900  -10184.242     -10303.873      119.63115      34064.118      428.67386      13668.606      1.5758005      0.83598524   
    864000  -10181.359     -10299.35       117.99053      32950.011      422.79503      13659.102      1.576897       0.83546561   
