LAMMPS (7 Feb 2024 - Update 1)
KOKKOS mode with Kokkos version 4.2.0 is enabled (src/KOKKOS/kokkos.cpp:72)
  will use up to 4 GPU(s) per node
  using 1 OpenMP thread(s) per MPI task
package kokkos
package kokkos newton on neigh half

units		metal						## E in [eV], t in [ps], P in [10000 Pa], l in [A]
atom_style	atomic						## mass x y z vx vy vz

neighbor	0.5 bin						## neighbor list, skin = 0.5 Angstrom
neigh_modify	every 2 delay 10 check yes			## update of neighbor list

############################## main variables
variable        seed equal 24955

variable	temperature equal 305
variable	tempDamp equal 0.1

variable        pressure equal 5000
variable        pressureDamp equal 1.0 				# This is 1 ps

##############################

read_data water.dat
Reading data file ...
  triclinic box = (0 0 0) to (18.047441 22.912981 19.549222) with tilt (-0.10697296 -6.2467562 -0.022549581)
  1 by 2 by 2 MPI processor grid
  reading atoms ...
  1008 atoms
  read_data CPU = 0.009 seconds

mass		1 1.008    # H
mass		2 15.9994  # O


pair_style	pace/extrapolation
ACE/AL version: 2023.11.25
pair_coeff	* * /home/cicn/cicn607503/pd/pot_dir/interim_potential_ladder_step_1.yaml /home/cicn/cicn607503/pd/pot_dir/interim_potential_ladder_step_1.asi H O
Loading /home/cicn/cicn607503/pd/pot_dir/interim_potential_ladder_step_1.yaml
Total number of basis functions
	H: 23 (r=1) 664 (r>1)
	O: 23 (r=1) 664 (r>1)
Mapping LAMMPS atom type #1(H) -> ACE species type #0
Mapping LAMMPS atom type #2(O) -> ACE species type #1
Loading ASI /home/cicn/cicn607503/pd/pot_dir/interim_potential_ladder_step_1.asi
LINEAR ASI is loaded

fix pace_gamma all pair 1000 pace/extrapolation gamma 1
compute max_pace_gamma all reduce max f_pace_gamma
variable dump_skip equal "c_max_pace_gamma < 10"

dump pace_dump all custom 1000 extrapolative_structures.dump id type x y z f_pace_gamma
dump_modify pace_dump skip v_dump_skip
dump_modify pace_dump element H O

variable max_pace_gamma equal c_max_pace_gamma

timestep	0.0005						## timestep = 0.0005*ps = 0.5 fs

thermo		100
thermo_style custom step etotal pe ke press temp vol density c_max_pace_gamma


min_style cg/kk
minimize 0.0 5.0e-4 10000 100000
Switching to 'neigh_modify every 1 delay 0 check yes' setting during minimization
Neighbor list info ...
  update: every = 1 steps, delay = 0 steps, check = yes
  max neighbors/atom: 2000, page size: 100000
  master list distance cutoff = 6.5
  ghost atom cutoff = 6.5
  binsize = 6.5, bins = 4 4 4
  1 neighbor lists, perpetual/occasional/extra = 1 0 0
  (1) pair pace/extrapolation/kk, perpetual
      attributes: full, newton on, kokkos_device
      pair build: full/bin/kk/device
      stencil: full/bin/3d
      bin: kk/device
WARNING: Fix with atom-based arrays not compatible with sending data in Kokkos communication, switching to classic exchange/border communication (src/KOKKOS/comm_kokkos.cpp:666)
WARNING: Fix with atom-based arrays not compatible with Kokkos sorting on device, switching to classic host sorting (src/KOKKOS/atom_kokkos.cpp:218)
Per MPI rank memory allocation (min/avg/max) = 235.3 | 242.3 | 246.3 Mbytes
   Step         TotEng         PotEng         KinEng         Press           Temp          Volume        Density     c_max_pace_gamma
         0  -4828.0548     -4828.0548      0              65519.119      0              8084.0073      1.2433848      0.66599327   
       100  -4870.1836     -4870.1836      0             -8195.723       0              8084.0073      1.2433848      0.66599327   
       200  -4870.1941     -4870.1941      0             -8254.8387      0              8084.0073      1.2433848      0.66599327   
       297  -4870.1942     -4870.1942      0             -8253.7006      0              8084.0073      1.2433848      0.66599327   
Loop time of 1.01785 on 4 procs for 297 steps with 1008 atoms

99.7% CPU use with 4 MPI tasks x 1 OpenMP threads

Minimization stats:
  Stopping criterion = force tolerance
  Energy initial, next-to-last, final = 
     -4828.05482421703   -4870.1941735052  -4870.19417350929
  Force two-norm initial, final = 47.911707 0.00049841008
  Force max component initial, final = 2.3126941 4.2962651e-05
  Final line search alpha, max atom move = 1 4.2962651e-05
  Iterations, force evaluations = 297 593

MPI task timing breakdown:
Section |  min time  |  avg time  |  max time  |%varavg| %total
---------------------------------------------------------------
Pair    | 0.601      | 0.60855    | 0.62265    |   1.1 | 59.79
Neigh   | 0.0018146  | 0.0019418  | 0.0021067  |   0.3 |  0.19
Comm    | 0.17689    | 0.19177    | 0.19984    |   2.1 | 18.84
Output  | 0.00030203 | 0.00030258 | 0.0003034  |   0.0 |  0.03
Modify  | 0.13496    | 0.13659    | 0.1385     |   0.4 | 13.42
Other   |            | 0.07869    |            |       |  7.73

Nlocal:            252 ave         254 max         250 min
Histogram: 1 0 1 0 0 0 0 1 0 1
Nghost:           1953 ave        1955 max        1951 min
Histogram: 1 0 1 0 0 0 0 1 0 1
Neighs:              0 ave           0 max           0 min
Histogram: 4 0 0 0 0 0 0 0 0 0
FullNghs:      36659.5 ave       36861 max       36458 min
Histogram: 1 1 0 0 0 0 0 0 1 1

Total # of neighbors = 146638
Ave neighs/atom = 145.47421
Neighbor list builds = 5
Dangerous builds = 0

################## equilibration of main calculation
# Equilibrate to specified number of ice

fix             3 all nph tri ${pressure} ${pressure} ${pressureDamp}
fix             3 all nph tri 5000 ${pressure} ${pressureDamp}
fix             3 all nph tri 5000 5000 ${pressureDamp}
fix             3 all nph tri 5000 5000 1
fix             4 all temp/csvr ${temperature} ${temperature} ${tempDamp} ${seed}
fix             4 all temp/csvr 305 ${temperature} ${tempDamp} ${seed}
fix             4 all temp/csvr 305 305 ${tempDamp} ${seed}
fix             4 all temp/csvr 305 305 0.1 ${seed}
fix             4 all temp/csvr 305 305 0.1 24955
velocity 	all create ${temperature} ${seed} dist gaussian
velocity 	all create 305 ${seed} dist gaussian
velocity 	all create 305 24955 dist gaussian

run 200000
WARNING: Fix with atom-based arrays not compatible with sending data in Kokkos communication, switching to classic exchange/border communication (src/KOKKOS/comm_kokkos.cpp:666)
WARNING: Fix with atom-based arrays not compatible with Kokkos sorting on device, switching to classic host sorting (src/KOKKOS/atom_kokkos.cpp:218)
Per MPI rank memory allocation (min/avg/max) = 242 | 244.4 | 247 Mbytes
   Step         TotEng         PotEng         KinEng         Press           Temp          Volume        Density     c_max_pace_gamma
       297  -4830.4939     -4870.1942      39.700315     -3008.2072      305            8084.0073      1.2433848      0.66599327   
       300  -4830.3452     -4863.3435      32.998361     -4354.2626      253.51185      8083.9638      1.2433915      0.66599327   
       400  -4821.2521     -4845.914       24.661908      5655.3097      189.46656      8037.6578      1.2505548      0.66599327   
       500  -4813.9973     -4840.636       26.638753      8965.5257      204.65379      7937.6385      1.2663126      0.66599327   
       600  -4806.7034     -4836.5957      29.892336      7785.7482      229.64963      7820.9941      1.2851987      0.66599327   
       700  -4801.8129     -4837.007       35.19405       7499.3759      270.38036      7730.1796      1.3002973      0.66599327   
       800  -4799.7674     -4833.5783      33.810847      11593.984      259.75382      7687.6639      1.3074884      0.66599327   
       900  -4797.079      -4833.5023      36.423281      10620.865      279.824        7699.5507      1.3054699      0.66599327   
      1000  -4794.2736     -4831.5257      37.252143      7076.5898      286.19177      7761.7748      1.2950043      0.69961487   
      1100  -4794.2041     -4830.5794      36.375246      8309.0846      279.45497      7855.5059      1.2795524      0.69961487   
      1200  -4791.0137     -4831.0545      40.040853      7472.4106      307.61621      7959.5829      1.2628214      0.69961487   
      1300  -4790.877      -4829.4536      38.576566      4134.5867      296.36674      8050.9563      1.2484892      0.69961487   
      1400  -4792.1192     -4827.6396      35.520473      2376.7436      272.88812      8114.9508      1.2386436      0.69961487   
      1500  -4791.3619     -4827.3494      35.987493      1348.6481      276.47603      8143.0438      1.2343703      0.69961487   
      1600  -4790.5117     -4828.8823      38.370675      3724.2649      294.78496      8136.8676      1.2353073      0.69961487   
      1700  -4789.8653     -4830.0253      40.159959      667.36048      308.53124      8102.915       1.2404834      0.69961487   
      1800  -4787.5412     -4828.3806      40.839329      2902.1392      313.75054      8051.5058      1.248404       0.69961487   
      1900  -4788.2703     -4828.1851      39.914811      6289.141       306.64788      7999.05        1.2565907      0.69961487   
      2000  -4787.7346     -4827.113       39.378417      5159.0323      302.52701      7958.874       1.2629339      0.68088723   
      2100  -4789.3746     -4828.5047      39.13006       5625.3967      300.61899      7934.9874      1.2667357      0.68088723   
      2200  -4788.7167     -4827.1831      38.46636       3716.8401      295.52007      7930.3276      1.26748        0.68088723   
      2300  -4788.2818     -4827.7498      39.468026      3426.6898      303.21543      7944.1491      1.2652748      0.68088723   
      2400  -4787.7467     -4827.8122      40.065441      7964.3287      307.8051       7971.0775      1.2610004      0.68088723   
      2500  -4788.2309     -4827.4866      39.255716      5682.512       301.58434      8007.4463      1.2552731      0.68088723   
      2600  -4789.4588     -4827.8029      38.344153      4454.3633      294.58121      8048.8369      1.2488179      0.68088723   
      2700  -4789.3492     -4829.63        40.280786      4237.6704      309.45951      8081.3767      1.2437895      0.68088723   
      2800  -4788.6652     -4826.4321      37.766961      5162.041       290.1469       8102.9065      1.2404847      0.68088723   
      2900  -4788.3709     -4828.6839      40.313006      3900.6639      309.70703      8110.7212      1.2392895      0.68088723   
      3000  -4786.0685     -4827.9316      41.863096      4641.267       321.61569      8098.6059      1.2411435      0.65405427   
      3100  -4787.223      -4826.3827      39.15968       3275.6013      300.84654      8072.9167      1.2450929      0.65405427   
      3200  -4788.6278     -4828.9958      40.367993      3315.0512      310.12948      8036.6965      1.2507044      0.65405427   
      3300  -4789.3039     -4827.2829      37.979001      6260.4815      291.77591      7994.302       1.257337       0.65405427   
      3400  -4788.4576     -4830.3891      41.931498      2702.7988      322.1412       7957.8268      1.2631001      0.65405427   
      3500  -4788.2692     -4828.3775      40.108303      4806.3002      308.1344       7934.0445      1.2668862      0.65405427   
      3600  -4788.9399     -4827.8671      38.927174      8210.8808      299.0603       7928.661       1.2677464      0.65405427   
      3700  -4787.7934     -4827.1822      39.388832      8757.3945      302.60702      7945.4587      1.2650663      0.65405427   
      3800  -4788.1642     -4828.2188      40.054569      6051.8141      307.72158      7981.8202      1.2593032      0.65405427   
      3900  -4789.1833     -4828.564       39.380653      3885.2034      302.54418      8030.4892      1.2516712      0.65405427   
      4000  -4789.1747     -4828.7081      39.53342       2894.1271      303.71782      8081.3239      1.2437976      0.74836126   
      4100  -4789.1757     -4827.9754      38.799759      2974.4042      298.08143      8120.0394      1.2378674      0.74836126   
      4200  -4788.8268     -4827.717       38.890201      4863.3023      298.77626      8137.7296      1.2351764      0.74836126   
      4300  -4787.8086     -4827.4686      39.66002       3201.2527      304.69043      8131.1138      1.2361814      0.74836126   
      4400  -4788.8476     -4828.1193      39.271712      371.6582       301.70723      8106.4684      1.2399397      0.74836126   
      4500  -4787.5534     -4826.4655      38.912193     -910.59121      298.94521      8066.5982      1.2460682      0.74836126   
      4600  -4787.365      -4826.6473      39.28227       4433.827       301.78835      8011.297       1.2546697      0.74836126   
      4700  -4788.5686     -4828.9593      40.39076       4210.1603      310.30438      7956.0059      1.2633892      0.74836126   
      4800  -4790.3671     -4829.2055      38.8384        3929.957       298.37829      7910.253       1.2706966      0.74836126   
      4900  -4789.1069     -4826.9732      37.866325      4932.8093      290.91026      7884.297       1.2748799      0.74836126   
      5000  -4789.5157     -4829.9242      40.408488      6736.3208      310.44059      7887.3136      1.2743923      0.67156174   
      5100  -4788.622      -4829.0336      40.411562      390.30892      310.4642       7915.1459      1.2699111      0.67156174   
      5200  -4789.1514     -4828.0574      38.906028      5658.6966      298.89785      7960.2767      1.2627113      0.67156174   
      5300  -4788.6018     -4827.2127      38.610909      3419.0741      296.63058      8013.4175      1.2543377      0.67156174   
      5400  -4790.1275     -4828.108       37.980484      6048.0361      291.7873       8066.9029      1.2460212      0.67156174   
      5500  -4789.4363     -4829.0773      39.640924      2932.539       304.54373      8106.9275      1.2398694      0.67156174   
      5600  -4788.7209     -4827.5585      38.837594      2082.2119      298.3721       8121.4658      1.2376499      0.67156174   
      5700  -4788.1062     -4828.3312      40.225071      2430.1985      309.03147      8110.2398      1.2393631      0.67156174   
      5800  -4788.04       -4826.9347      38.894718      6635.472       298.81096      8074.936       1.2447816      0.67156174   
      5900  -4786.66       -4826.6479      39.987868      3124.8392      307.20915      8027.861       1.2520809      0.67156174   
      6000  -4786.3405     -4826.3235      39.983089      5764.322       307.17243      7983.3942      1.2590549      0.69154718   
      6100  -4785.3759     -4827.4517      42.075845      5438.2721      323.25015      7949.0114      1.2645008      0.69154718   
      6200  -4786.2849     -4826.2573      39.972368      5564.4351      307.09007      7931.7639      1.2672505      0.69154718   
      6300  -4786.4093     -4826.3998      39.990544      5927.1923      307.22971      7933.0151      1.2670506      0.69154718   
      6400  -4786.747      -4827.3526      40.605634      6301.0111      311.95517      7951.1372      1.2641628      0.69154718   
      6500  -4788.25       -4828.5947      40.344751      6653.5542      309.95092      7979.8619      1.2596122      0.69154718   
      6600  -4790.1081     -4828.8889      38.780794      3947.7286      297.93573      8009.666       1.2549252      0.69154718   
      6700  -4790.1765     -4828.043       37.866499      5139.6411      290.91161      8032.2666      1.2513942      0.69154718   
      6800  -4789.7665     -4828.8505      39.083976      4689.0308      300.26494      8043.8955      1.2495851      0.69154718   
      6900  -4789.5308     -4826.8081      37.277257      6136.8637      286.38472      8043.64        1.2496248      0.69154718   
      7000  -4789.7997     -4828.6252      38.825452      3766.7478      298.27881      8037.3334      1.2506053      0.70573044   
      7100  -4788.777      -4828.3111      39.534143      2455.2216      303.72338      8022.9592      1.2528459      0.70573044   
      7200  -4788.5123     -4828.3418      39.829486      1522.6965      305.99237      8004.8675      1.2556775      0.70573044   
      7300  -4789.0175     -4828.9492      39.931727      6472.482       306.77784      7987.9156      1.2583422      0.70573044   
      7400  -4791.8028     -4828.8701      37.067329      6008.8541      284.77193      7971.6024      1.2609173      0.70573044   
      7500  -4790.3917     -4829.7585      39.366796      5634.2133      302.43772      7956.3316      1.2633374      0.70573044   
      7600  -4790.5189     -4829.4344      38.915467      3825.5271      298.97036      7946.6183      1.2648817      0.70573044   
      7700  -4791.9715     -4829.771       37.799533      7703.5077      290.39713      7944.2254      1.2652626      0.70573044   
      7800  -4790.6354     -4829.3711      38.73571       9279.2442      297.58937      7949.7927      1.2643766      0.70573044   
      7900  -4790.1699     -4829.5249      39.354996      7713.8555      302.34707      7960.6618      1.2626503      0.70573044   
      8000  -4789.2302     -4828.522       39.291838      7391.3767      301.86185      7975.7477      1.260262       0.61838018   
      8100  -4789.1888     -4828.3339      39.145148      4647.3709      300.7349       7996.3289      1.2570183      0.61838018   
      8200  -4788.4232     -4827.6813      39.2581        1051.9679      301.60266      8019.4352      1.2533965      0.61838018   
      8300  -4788.6136     -4828.3055      39.691884      3808.5178      304.93523      8040.2363      1.2501538      0.61838018   
      8400  -4787.7836     -4828.7464      40.96278       2622.2526      314.69896      8052.5923      1.2482355      0.61838018   
      8500  -4787.4456     -4827.373       39.927365      3939.2119      306.74433      8052.2729      1.248285       0.61838018   
      8600  -4787.3434     -4825.4973      38.153892      4195.3288      293.11952      8040.5875      1.2500992      0.61838018   
      8700  -4786.8166     -4828.0971      41.280445      6970.915       317.13944      8020.6808      1.2532018      0.61838018   
      8800  -4787.233      -4828.0428      40.809807      3226.3283      313.52374      7997.695       1.2568036      0.61838018   
      8900  -4787.6419     -4827.2856      39.643697      4971.9519      304.56503      7978.1698      1.2598794      0.61838018   
      9000  -4787.1533     -4827.2044      40.051015      5362.4561      307.69428      7966.6284      1.2617046      0.64681466   
      9100  -4787.3525     -4827.9784      40.625868      6099.1969      312.11062      7964.2244      1.2620855      0.64681466   
      9200  -4786.5039     -4825.6833      39.179333      5150.6422      300.99753      7972.0085      1.2608531      0.64681466   
      9300  -4786.8613     -4827.0672      40.20588       7870.1997      308.88403      7991.1356      1.2578352      0.64681466   
      9400  -4788.3819     -4828.2833      39.901391      5082.3163      306.54478      8016.9915      1.2537785      0.64681466   
      9500  -4788.022      -4827.9664      39.944476      3914.5637      306.87578      8038.4119      1.2504375      0.64681466   
      9600  -4786.9417     -4826.5879      39.646183      7300.4719      304.58413      8050.1065      1.248621       0.64681466   
      9700  -4787.726      -4827.6927      39.96661       2312.9817      307.04583      8052.761       1.2482094      0.64681466   
      9800  -4787.6637     -4827.9007      40.237012      2681.3203      309.12321      8043.6332      1.2496258      0.64681466   
      9900  -4786.4611     -4827.0563      40.595193      3300.8857      311.87495      8026.7737      1.2522505      0.64681466   
     10000  -4787.398      -4827.3398      39.941775      4476.9902      306.85504      8008.2617      1.2551453      0.67267673   
     10100  -4788.6772     -4827.2769      38.599661      2174.2721      296.54417      7989.4063      1.2581075      0.67267673   
     10200  -4787.9347     -4828.0335      40.098854      5724.5909      308.0618       7972.7874      1.2607299      0.67267673   
     10300  -4787.2794     -4828.4949      41.215453      10114.038      316.64014      7963.651       1.2621763      0.67267673   
     10400  -4786.8439     -4828.4245      41.580606      6214.7912      319.44545      7965.5056      1.2618824      0.67267673   
     10500  -4786.7925     -4826.0024      39.209884      4560.5427      301.23224      7974.4913      1.2604605      0.67267673   
     10600  -4786.6159     -4826.6657      40.049869      9147.7929      307.68547      7992.9204      1.2575543      0.67267673   
     10700  -4787.0013     -4827.3323      40.331043      4874.2106      309.84561      8012.9827      1.2544058      0.67267673   
     10800  -4786.3316     -4826.2374      39.905733      4720.9914      306.57814      8029.1118      1.2518859      0.67267673   
     10900  -4786.3662     -4827.954       41.587848      4776.5996      319.50108      8042.4268      1.2498133      0.67267673   
     11000  -4786.0749     -4826.5228      40.447976      3120.081       310.74395      8047.3486      1.2490489      0.67662094   
     11100  -4785.6495     -4825.9675      40.318007      4826.9757      309.74546      8042.567       1.2497915      0.67662094   
     11200  -4785.2435     -4825.9842      40.740769      4335.0085      312.99335      8034.2725      1.2510818      0.67662094   
     11300  -4784.7345     -4826.152       41.41746       4185.6647      318.19207      8023.1176      1.2528212      0.67662094   
     11400  -4785.679      -4825.4438      39.764748      3352.3027      305.49501      8013.1066      1.2543864      0.67662094   
     11500  -4785.979      -4826.3336      40.35464       3635.7945      310.02689      8004.0939      1.2557988      0.67662094   
     11600  -4786.4424     -4826.027       39.584631      4633.1922      304.11125      7993.5695      1.2574522      0.67662094   
     11700  -4786.5889     -4827.5237      40.934753      3592.9465      314.48365      7984.1487      1.2589359      0.67662094   
     11800  -4786.989      -4827.6028      40.613791      9250.837       312.01784      7976.6237      1.2601236      0.67662094   
     11900  -4786.1577     -4826.8207      40.662957      8065.5243      312.39556      7972.854       1.2607194      0.67662094   
     12000  -4785.0433     -4826.7904      41.747071      5608.0141      320.72433      7977.7346      1.2599481      0.6804466    
     12100  -4785.7234     -4826.0107      40.287329      5666.0181      309.50978      7991.3166      1.2578067      0.6804466    
     12200  -4786.2593     -4826.4261      40.166853      4105.2394      308.58421      8014.458       1.2541749      0.6804466    
     12300  -4786.4254     -4827.2693      40.84386       689.67453      313.78536      8040.7216      1.2500783      0.6804466    
     12400  -4787.1352     -4827.3539      40.218694     -680.99326      308.98248      8062.0021      1.2467786      0.6804466    
     12500  -4786.6678     -4826.4166      39.748774      3691.8048      305.37229      8075.8804      1.244636       0.6804466    
     12600  -4788.219      -4828.8134      40.594324      5737.1606      311.86828      8078.7999      1.2441862      0.6804466    
     12700  -4787.6012     -4827.9236      40.322432      3163.2644      309.77946      8065.1988      1.2462844      0.6804466    
     12800  -4788.0704     -4827.4151      39.344684      6297.4322      302.26785      8035.0521      1.2509604      0.6804466    
     12900  -4788.4539     -4826.7417      38.28782       5542.7695      294.14843      8000.6887      1.2563333      0.6804466    
     13000  -4788.8046     -4828.0629      39.258281      4263.3244      301.60405      7969.4161      1.2612632      0.67700401   
     13100  -4789.7932     -4827.8547      38.06142       7404.165       292.4091       7945.7548      1.2650191      0.67700401   
     13200  -4788.5937     -4828.1819      39.588173      4956.8313      304.13847      7933.2895      1.2670068      0.67700401   
     13300  -4788.9992     -4828.1594      39.160238      4160.5392      300.85083      7934.3013      1.2668452      0.67700401   
     13400  -4788.2929     -4829.7855      41.492582      6299.3928      318.7692       7950.4175      1.2642772      0.67700401   
     13500  -4788.7672     -4829.209       40.441799      8835.1656      310.6965       7980.4158      1.2595248      0.67700401   
     13600  -4789.8076     -4827.7059      37.898291      3177.6088      291.15585      8013.8524      1.2542696      0.67700401   
     13700  -4790.122      -4829.3461      39.224142      3937.4284      301.34178      8043.1399      1.2497025      0.67700401   
     13800  -4789.1446     -4828.7336      39.588997      4417.9835      304.14479      8058.8201      1.2472709      0.67700401   
     13900  -4789.6725     -4829.3784      39.705918      2899.7616      305.04305      8055.7061      1.247753       0.67700401   
     14000  -4788.9628     -4828.9736      40.010857      5529.3425      307.38576      8039.3729      1.250288       0.63349894   
     14100  -4788.1475     -4826.5158      38.36828       6402.4207      294.76657      8013.4152      1.2543381      0.63349894   
     14200  -4787.7454     -4826.7402      38.994856      5482.7937      299.58028      7984.331       1.2589072      0.63349894   
     14300  -4786.4125     -4826.867       40.454526      3230.5894      310.79427      7956.3368      1.2633366      0.63349894   
     14400  -4787.399      -4825.9226      38.523577      5056.3503      295.95964      7935.9361      1.2665843      0.63349894   
     14500  -4787.5051     -4828.066       40.560912      6091.4663      311.61159      7926.5199      1.2680889      0.63349894   
     14600  -4788.8235     -4828.8394      40.01587       6450.7746      307.42427      7929.1991      1.2676604      0.63349894   
     14700  -4786.8946     -4828.2917      41.397089      4138.1737      318.03557      7942.0458      1.2656099      0.63349894   
     14800  -4787.6007     -4826.9195      39.318826      5287.3989      302.06919      7969.1211      1.2613099      0.63349894   
     14900  -4786.3983     -4827.619       41.220669      8634.0058      316.68021      8004.8711      1.2556769      0.63349894   
     15000  -4787.9113     -4829.0743      41.162963      5107.902       316.23688      8038.2831      1.2504575      0.71474449   
     15100  -4787.6109     -4826.9085      39.297661      4024.2875      301.90659      8062.4521      1.246709       0.71474449   
     15200  -4788.2471     -4827.4735      39.22642       2988.1984      301.35928      8075.7945      1.2446493      0.71474449   
     15300  -4787.397      -4827.6798      40.282865      1948.3698      309.47548      8074.3542      1.2448713      0.71474449   
     15400  -4786.1866     -4825.9212      39.734638      3787.0618      305.26369      8059.5464      1.2471585      0.71474449   
     15500  -4784.4979     -4826.8289      42.33103       5270.2515      325.21063      8032.7231      1.2513231      0.71474449   
     15600  -4784.9799     -4826.8882      41.908259      3202.4096      321.96266      8002.7035      1.256017       0.71474449   
     15700  -4785.6569     -4825.5242      39.867288      4854.3309      306.28278      7973.1605      1.2606709      0.71474449   
     15800  -4788.122      -4828.9457      40.823723      1669.0797      313.63065      7953.4889      1.263789       0.71474449   
     15900  -4788.0399     -4827.1195      39.079598      8039.6136      300.2313       7946.2545      1.2649396      0.71474449   
     16000  -4788.6939     -4827.2379      38.543975      7385.6832      296.11635      7953.2894      1.2638207      0.67121657   
     16100  -4789.4455     -4828.4611      39.015646      6966.6517      299.74         7970.4757      1.2610956      0.67121657   
     16200  -4790.6182     -4830.1377      39.519563      6286.5799      303.61136      7995.2069      1.2571947      0.67121657   
     16300  -4789.9309     -4829.935       40.00412       3739.7362      307.334        8018.6175      1.2535243      0.67121657   
     16400  -4791.3096     -4830.7141      39.404417      1841.777       302.72675      8034.8899      1.2509856      0.67121657   
     16500  -4791.2247     -4829.5781      38.353376      2996.0064      294.65207      8036.5265      1.2507309      0.67121657   
     16600  -4789.6522     -4827.6218      37.969572      7189.2922      291.70347      8021.3402      1.2530988      0.67121657   
     16700  -4789.7234     -4828.1851      38.461661      6828.6667      295.48397      7995.9077      1.2570845      0.67121657   
     16800  -4788.6068     -4830.1451      41.53828       4164.0893      319.12028      7965.7462      1.2618443      0.67121657   
     16900  -4789.2609     -4828.261       39.000062      7339.3394      299.62026      7935.6775      1.2666255      0.67121657   
     17000  -4788.1369     -4825.9193      37.782439      9899.9099      290.26581      7914.5571      1.2700056      0.79799824   
     17100  -4789.3118     -4828.4443      39.132582      6715.624       300.63836      7909.6299      1.2707967      0.79799824   
     17200  -4788.4188     -4828.7819      40.363076      7808.6455      310.09171      7921.1337      1.2689512      0.79799824   
     17300  -4789.9956     -4829.4984      39.502781      6810.368       303.48244      7946.3358      1.2649266      0.79799824   
     17400  -4788.479      -4828.2526      39.773574      2055.4874      305.56282      7981.44        1.2593632      0.79799824   
     17500  -4788.2083     -4827.3811      39.172817      3615.8318      300.94747      8018.5472      1.2535353      0.79799824   
     17600  -4789.0655     -4827.5116      38.446149      3338.8832      295.3648       8050.603       1.248544       0.79799824   
     17700  -4788.1844     -4828.2384      40.054066     -71.670835      307.71772      8067.0547      1.2459977      0.79799824   
     17800  -4789.4339     -4828.3667      38.932719      3582.7119      299.1029       8063.2796      1.2465811      0.79799824   
     17900  -4789.1482     -4826.382       37.233817     -21.689853      286.05099      8041.4105      1.2499712      0.79799824   
     18000  -4789.1782     -4827.9276      38.749311      733.64701      297.69386      8006.324       1.255449       0.68279502   
     18100  -4788.7941     -4828.987       40.192934      6333.5661      308.78458      7967.5776      1.2615543      0.68279502   
     18200  -4788.5173     -4828.3311      39.813875      8485.2892      305.87243      7936.2503      1.2665341      0.68279502   
     18300  -4787.9766     -4828.649       40.672381      6840.4562      312.46795      7919.1484      1.2692693      0.68279502   
     18400  -4788.4529     -4827.6388      39.185893      9443.1791      301.04793      7916.1128      1.269756       0.68279502   
     18500  -4787.6996     -4828.6747      40.975112      8808.2351      314.79371      7925.4486      1.2682603      0.68279502   
     18600  -4788.0734     -4828.9891      40.915701      8116.1468      314.33728      7943.3529      1.2654016      0.68279502   
     18700  -4789.4659     -4829.418       39.95211       6969.9188      306.93443      7968.1017      1.2614713      0.68279502   
     18800  -4790.9336     -4828.7313      37.797699      3320.9502      290.38304      7995.959       1.2570764      0.68279502   
     18900  -4790.6434     -4829.6715      39.028084      110.13974      299.83555      8015.5578      1.2540028      0.68279502   
     19000  -4790.443      -4827.9013      37.458269      5679.3065      287.77535      8020.293       1.2532624      0.69726915   
     19100  -4789.9533     -4829.9066      39.953316      4527.9985      306.9437       8011.0005      1.2547162      0.69726915   
     19200  -4789.8723     -4828.6737      38.801346      3995.2897      298.09362      7992.6999      1.257589       0.69726915   
     19300  -4789.5762     -4828.4333      38.857098      5315.1305      298.52194      7972.5867      1.2607617      0.69726915   
     19400  -4789.2151     -4827.9488      38.733633      4572.7352      297.57341      7955.316       1.2634987      0.69726915   
     19500  -4789.1875     -4828.7801      39.592591      7044.8889      304.1724       7947.2717      1.2647777      0.69726915   
     19600  -4787.6167     -4827.5947      39.977979      2672.4839      307.13317      7953.8117      1.2637377      0.69726915   
     19700  -4788.1362     -4826.8877      38.751446      4591.4377      297.71026      7969.3258      1.2612776      0.69726915   
     19800  -4787.4321     -4827.5192      40.087099      5598.5375      307.97149      7988.5559      1.2582414      0.69726915   
     19900  -4788.6548     -4828.4779      39.823096      3911.6208      305.94328      8005.0497      1.2556489      0.69726915   
     20000  -4788.5823     -4829.0558      40.473527      1472.145       310.94025      8018.8047      1.253495       0.66039189   
     20100  -4789.0775     -4828.1181      39.040566      5872.0597      299.93144      8026.072       1.25236        0.66039189   
     20200  -4788.5523     -4829.0775      40.525156      1787.549       311.33689      8027.5021      1.2521369      0.66039189   
     20300  -4788.9726     -4828.8679      39.895307      3918.7874      306.49804      8022.1006      1.25298        0.66039189   
     20400  -4788.9919     -4828.2277      39.235804      4679.8213      301.43137      8010.5989      1.254779       0.66039189   
     20500  -4789.5183     -4827.1763      37.657944      2799.351       289.30937      7990.4303      1.2579462      0.66039189   
     20600  -4787.0261     -4827.3575      40.331361      1357.1257      309.84805      7966.6         1.2617091      0.66039189   
     20700  -4785.5951     -4825.3         39.70496       1643.4952      305.03569      7948.0673      1.2646511      0.66039189   
     20800  -4785.8627     -4826.2881      40.425362      3565.2191      310.57022      7937.6398      1.2663124      0.66039189   
     20900  -4784.7753     -4826.291       41.515744      8379.8403      318.94714      7941.0292      1.2657719      0.66039189   
     21000  -4785.2182     -4825.7714      40.553265      4245.499       311.55284      7957.5627      1.263142       0.70152058   
     21100  -4787.1857     -4828.703       41.517289      4732.1531      318.95902      7982.1457      1.2592518      0.70152058   
     21200  -4789.6063     -4827.9516      38.345325      1950.8437      294.59021      8007.6915      1.2552346      0.70152058   
     21300  -4788.6079     -4828.1367      39.528768      4738.4027      303.68208      8023.9342      1.2526937      0.70152058   
     21400  -4787.1516     -4827.6573      40.50573       7734.2083      311.18765      8029.5962      1.2518103      0.70152058   
     21500  -4787.6121     -4828.998       41.385852      5977.9294      317.94924      8024.3553      1.2526279      0.70152058   
     21600  -4788.4924     -4827.2419      38.749511      3229.3752      297.6954       8010.3222      1.2548224      0.70152058   
     21700  -4787.3202     -4826.9344      39.614284     -556.67666      304.33906      7988.3796      1.2582692      0.70152058   
     21800  -4785.5507     -4824.9451      39.394423      5429.4937      302.64997      7964.495       1.2620426      0.70152058   
     21900  -4786.583      -4826.8191      40.236161      4281.379       309.11667      7948.7145      1.2645481      0.70152058   
     22000  -4785.8493     -4826.107       40.257683      6029.1956      309.28202      7940.0606      1.2659263      0.68344246   
     22100  -4785.8195     -4826.6997      40.880214      5722.4053      314.06464      7941.6439      1.2656739      0.68344246   
     22200  -4785.3965     -4826.8203      41.423778      4112.4543      318.24061      7954.2186      1.263673       0.68344246   
     22300  -4784.3126     -4826.2141      41.901529      4546.4498      321.91096      7975.6812      1.2602725      0.68344246   
     22400  -4784.6866     -4826.9764      42.289767      3896.4043      324.89362      8002.2612      1.2560864      0.68344246   
     22500  -4784.4681     -4826.3559      41.887775      5541.5802      321.8053       8031.1011      1.2515758      0.68344246   
     22600  -4785.3325     -4826.5018      41.169234      8305.7352      316.28506      8054.9001      1.2478779      0.68344246   
     22700  -4784.5122     -4826.1652      41.652998      3844.18        320.0016       8066.4991      1.2460835      0.68344246   
     22800  -4785.5539     -4825.9929      40.43901       2021.8164      310.67507      8067.2845      1.2459622      0.68344246   
     22900  -4785.4443     -4826.3791      40.934792      2408.9747      314.48395      8054.0971      1.2480023      0.68344246   
     23000  -4786.4086     -4825.2418      38.833175      3759.154       298.33815      8029.5329      1.2518202      0.59862823   
     23100  -4786.0118     -4827.0748      41.063021      912.35603      315.46907      8002.042       1.2561208      0.59862823   
     23200  -4786.0228     -4826.8315      40.80866       7394.5253      313.51493      7978.0786      1.2598938      0.59862823   
     23300  -4786.526      -4827.4257      40.8997        7871.4709      314.21435      7962.1418      1.2624156      0.59862823   
     23400  -4787.8167     -4827.7257      39.909009      5611.1505      306.60331      7957.7077      1.263119       0.59862823   
     23500  -4786.8262     -4827.1785      40.352219      10195.186      310.00829      7955.7268      1.2634335      0.59862823   
     23600  -4786.9515     -4827.8802      40.928725      11581.86       314.43733      7957.3248      1.2631798      0.59862823   
     23700  -4784.7918     -4826.0625      41.270681      7458.0824      317.06443      7964.9566      1.2619694      0.59862823   
     23800  -4785.0147     -4827.5436      42.528903      7321.7121      326.7308       7984.0764      1.2589473      0.59862823   
     23900  -4785.5296     -4825.5296      39.999983      1856.2442      307.30222      8010.6942      1.2547641      0.59862823   
     24000  -4786.2403     -4826.1679      39.927639      2261.3534      306.74643      8036.1056      1.2507964      0.65983679   
     24100  -4786.7476     -4826.9196      40.172023      2306.6616      308.62393      8056.6645      1.2476046      0.65983679   
     24200  -4787.3256     -4826.6557      39.330135      2748.5483      302.15607      8066.9966      1.2460067      0.65983679   
     24300  -4785.9974     -4825.8003      39.802873      3889.8629      305.78791      8062.7199      1.2466676      0.65983679   
     24400  -4787.093      -4827.2392      40.146215      3760.3034      308.42566      8044.8601      1.2494352      0.65983679   
     24500  -4787.7566     -4826.6351      38.878508      4885.2719      298.68642      8014.8033      1.2541208      0.65983679   
     24600  -4787.6437     -4829.2155      41.571876      5964.2767      319.37838      7977.5062      1.2599842      0.65983679   
     24700  -4787.5873     -4827.2585      39.671278      5902.1159      304.77692      7942.9529      1.2654654      0.65983679   
     24800  -4788.5083     -4826.6719      38.163647      5601.1669      293.19446      7923.9411      1.2685016      0.65983679   
     24900  -4789.1187     -4829.1073      39.988597      7460.4464      307.21475      7921.9028      1.2688279      0.65983679   
     25000  -4789.7783     -4829.1231      39.344808      6821.0015      302.2688       7937.4289      1.266346       0.70975951   
     25100  -4788.3116     -4829.2649      40.953297      1624.2514      314.62611      7964.7467      1.2620027      0.70975951   
     25200  -4786.9526     -4826.9009      39.948241     -1556.2361      306.90471      7996.4996      1.2569915      0.70975951   
     25300  -4787.6217     -4826.9957      39.374032      1252.2671      302.49332      8029.7393      1.251788       0.70975951   
     25400  -4785.2136     -4826.1776      40.964042      6139.4938      314.70866      8059.9175      1.2471011      0.70975951   
     25500  -4785.9362     -4826.102       40.165797      5888.3379      308.5761       8084.1034      1.24337        0.70975951   
     25600  -4787.0994     -4826.5837      39.484276      3465.5807      303.34027      8097.7686      1.2412718      0.70975951   
     25700  -4785.9824     -4826.7538      40.77137       3117.7957      313.22844      8096.6941      1.2414365      0.70975951   
     25800  -4786.7141     -4826.4408      39.726665      6074.1001      305.20244      8079.089       1.2441417      0.70975951   
     25900  -4787.5761     -4828.4167      40.840561      7512.3222      313.76001      8050.6122      1.2485425      0.70975951   
     26000  -4787.9306     -4828.0889      40.158293      5541.5091      308.51844      8018.9029      1.2534797      0.63912986   
     26100  -4788.2006     -4828.4451      40.244487      7570.0532      309.18064      7989.6684      1.2580662      0.63912986   
     26200  -4789.1587     -4828.9166      39.757896      6551.3487      305.44237      7970.3448      1.2611163      0.63912986   
     26300  -4789.6687     -4829.2658      39.597059      3175.6695      304.20673      7959.6907      1.2628043      0.63912986   
     26400  -4789.0099     -4827.9693      38.959383      4569.678       299.30775      7952.8791      1.2638859      0.63912986   
     26500  -4787.7078     -4827.9289      40.221156      7418.1108      309.0014       7957.6525      1.2631278      0.63912986   
     26600  -4787.1701     -4828.0988      40.928698      6208.9177      314.43713      7978.8642      1.2597697      0.63912986   
     26700  -4787.1866     -4826.8567      39.670029      7175.8996      304.76733      8012.5418      1.2544748      0.63912986   
     26800  -4786.7041     -4827.6671      40.963076      4422.9422      314.70124      8048.1963      1.2489173      0.63912986   
     26900  -4786.0887     -4827.1165      41.027842      4066.3608      315.19881      8076.4803      1.2445436      0.63912986   
     27000  -4786.0117     -4827.7451      41.733327      3187.3257      320.61874      8090.9671      1.2423152      0.86837507   
     27100  -4787.1011     -4828.411       41.309894      756.8411       317.36569      8091.107       1.2422938      0.86837507   
     27200  -4788.2659     -4827.6901      39.424135      4061.083       302.87824      8077.3946      1.2444027      0.86837507   
     27300  -4787.9412     -4827.0922      39.151007      2982.1313      300.77991      8049.9418      1.2486465      0.86837507   
     27400  -4787.7346     -4827.2817      39.54713       5305.9492      303.82315      8015.197       1.2540592      0.86837507   
     27500  -4788.9105     -4828.0949      39.184366      5699.5364      301.03619      7978.8771      1.2597677      0.86837507   
     27600  -4788.8552     -4828.077       39.22179       5130.8445      301.32371      7946.1253      1.2649601      0.86837507   
     27700  -4788.1364     -4829.455       41.318639      7050.4904      317.43287      7925.005       1.2683313      0.86837507   
     27800  -4788.189      -4827.2195      39.030457      6346.964       299.85378      7920.4636      1.2690585      0.86837507   
     27900  -4787.9591     -4828.2056      40.2465        4768.1936      309.1961       7932.1191      1.2671937      0.86837507   
     28000  -4787.5933     -4827.7508      40.157469      10205.275      308.51211      7958.8825      1.2629325      0.6424833    
     28100  -4787.548      -4827.8942      40.346176      8206.8849      309.96186      7999.7992      1.256473       0.6424833    
     28200  -4786.9672     -4826.7466      39.779451      7435.8768      305.60797      8044.1384      1.2495473      0.6424833    
     28300  -4785.3851     -4825.8373      40.452214      2376.751       310.77651      8084.3403      1.2433336      0.6424833    
     28400  -4786.5275     -4826.4255      39.898044      3250.7045      306.51907      8111.0503      1.2392392      0.6424833    
     28500  -4786.6437     -4827.4396      40.795893      2845.3959      313.41684      8118.6475      1.2380796      0.6424833    
     28600  -4785.3634     -4825.8021      40.438685      5549.6986      310.67257      8104.3482      1.2402641      0.6424833    
     28700  -4786.0988     -4824.7669      38.668071      2604.4477      297.06973      8077.4241      1.2443982      0.6424833    
     28800  -4787.6913     -4826.6761      38.984796      3106.9399      299.50298      8043.3815      1.2496649      0.6424833    
     28900  -4788.0776     -4827.3987      39.321173      3708.8195      302.08722      8004.3437      1.2557596      0.6424833    
     29000  -4788.4252     -4827.1191      38.69393       4366.3186      297.26839      7966.3222      1.2617531      0.64754397   
     29100  -4787.8004     -4828.2316      40.431251      3814.3964      310.61546      7930.7421      1.2674138      0.64754397   
     29200  -4787.6976     -4826.1147      38.417153      9909.4389      295.14204      7900.6279      1.2722447      0.64754397   
     29300  -4788.6245     -4828.274       39.649452      8307.1465      304.60924      7892.7296      1.2735178      0.64754397   
     29400  -4788.2074     -4829.1921      40.984654      6477.3971      314.86701      7910.4062      1.270672       0.64754397   
     29500  -4788.1859     -4828.0388      39.852895      7532.6618      306.1722       7949.5463      1.2644158      0.64754397   
     29600  -4788.125      -4826.8549      38.729923      3732.0993      297.54491      8001.6249      1.2561863      0.64754397   
     29700  -4788.38       -4828.3589      39.978877      1410.7642      307.14007      8052.2752      1.2482847      0.64754397   
     29800  -4788.1048     -4828.3157      40.210894      3474.4458      308.92255      8086.8934      1.242941       0.64754397   
     29900  -4787.8855     -4826.5602      38.674711      5788.9807      297.12074      8102.8398      1.2404949      0.64754397   
     30000  -4788.1523     -4827.7435      39.591138      2367.8232      304.16124      8100.182       1.240902       0.64546799   
     30100  -4788.4035     -4827.8611      39.457505      2532.9679      303.1346       8076.8403      1.2444881      0.64546799   
     30200  -4786.8176     -4825.8508      39.033259      4057.7437      299.87531      8034.7592      1.251006       0.64546799   
     30300  -4785.8589     -4825.8298      39.970912      4999.1968      307.07888      7987.8447      1.2583534      0.64546799   
     30400  -4787.2014     -4828.8388      41.637421      6920.9433      319.88194      7952.8863      1.2638847      0.64546799   
     30500  -4788.0272     -4828.2448      40.217612      7065.9124      308.97417      7937.8834      1.2662735      0.64546799   
     30600  -4789.4892     -4828.5484      39.059244      6167.6307      300.07494      7940.0528      1.2659276      0.64546799   
     30700  -4789.9921     -4829.1673      39.175202      4980.3532      300.96579      7954.6891      1.2635983      0.64546799   
     30800  -4790.1811     -4829.9783      39.797183      8668.1814      305.74419      7974.9744      1.2603842      0.64546799   
     30900  -4789.2461     -4828.0708      38.824675      7740.5347      298.27284      7997.9449      1.2567643      0.64546799   
     31000  -4790.3999     -4827.3926      36.992611      5633.9042      284.19791      8019.9448      1.2533168      0.79891924   
     31100  -4789.7393     -4827.5736      37.83436       5414.5693      290.66469      8036.7446      1.2506969      0.79891924   
     31200  -4788.0737     -4829.3771      41.303461      4371.7656      317.31627      8042.2418      1.249842       0.79891924   
     31300  -4787.054      -4826.7319      39.677865      2503.8007      304.82753      8031.9907      1.2514372      0.79891924   
     31400  -4786.6948     -4826.9703      40.275451      5748.5379      309.41852      8014.524       1.2541645      0.79891924   
     31500  -4787.7128     -4827.8278      40.115008      4868.2954      308.1859       7994.1694      1.2573579      0.79891924   
     31600  -4788.2631     -4827.3888      39.125773      3934.3229      300.58605      7974.7913      1.2604131      0.79891924   
     31700  -4789.4824     -4829.1659      39.68349       4173.797       304.87074      7958.9616      1.26292        0.79891924   
     31800  -4790.9066     -4831.0792      40.172607      3215.5099      308.62841      7950.4368      1.2642741      0.79891924   
     31900  -4791.1174     -4828.5865      37.469073      3606.3423      287.85836      7946.0005      1.26498        0.79891924   
     32000  -4790.6548     -4829.9356      39.280843      11806.215      301.77738      7951.2394      1.2641465      0.60813346   
     32100  -4790.0403     -4829.5538      39.513415      5255.306       303.56413      7965.7196      1.2618485      0.60813346   
     32200  -4789.8171     -4827.3452      37.528055      6749.2389      288.31149      7986.404       1.2585804      0.60813346   
     32300  -4790.7288     -4828.6798      37.951022      3626.5135      291.56096      8011.4245      1.2546497      0.60813346   
     32400  -4789.0951     -4827.6214      38.52622       1579.1022      295.97995      8033.4286      1.2512132      0.60813346   
     32500  -4788.2659     -4827.8564      39.590511      775.3406       304.15643      8045.6134      1.2493183      0.60813346   
     32600  -4787.6546     -4827.1665      39.511816      5388.3666      303.55184      8047.0393      1.2490969      0.60813346   
     32700  -4788.3696     -4826.7785      38.408963      3670.3902      295.07912      8043.1261      1.2497046      0.60813346   
     32800  -4787.7847     -4828.7218      40.937097      6118.7751      314.50165      8035.5719      1.2508794      0.60813346   
     32900  -4787.5233     -4828.0506      40.527297      4621.9872      311.35334      8021.2691      1.2531099      0.60813346   
     33000  -4785.5602     -4826.1797      40.619545      8059.7653      312.06204      8003.3764      1.2559114      0.69662271   
     33100  -4785.4304     -4826.6707      41.240278      4264.6454      316.83086      7989.1553      1.258147       0.69662271   
     33200  -4785.3867     -4827.0571      41.670482      4481.2715      320.13592      7981.3285      1.2593808      0.69662271   
     33300  -4787.539      -4827.393       39.853966      6294.9951      306.18043      7984.6942      1.2588499      0.69662271   
     33400  -4786.1815     -4826.8315      40.650016      4790.7913      312.29613      7998.4641      1.2566827      0.69662271   
     33500  -4787.4381     -4827.2893      39.851189      2888.0658      306.1591       8013.5808      1.2543121      0.69662271   
     33600  -4786.7939     -4826.8823      40.088323      6709.6715      307.98089      8025.207       1.252495       0.69662271   
     33700  -4788.6471     -4829.0292      40.382129      3817.0535      310.23808      8033.1674      1.2512539      0.69662271   
     33800  -4789.4867     -4829.1121      39.625413      4413.4907      304.42456      8034.4394      1.2510558      0.69662271   
     33900  -4788.7149     -4828.9719      40.256921      6054.7696      309.27616      8027.5738      1.2521257      0.69662271   
     34000  -4789.9511     -4829.4001      39.449013      8330.5427      303.06936      8012.2171      1.2545256      0.71853643   
     34100  -4788.1576     -4827.3448      39.18715       5792.8034      301.05758      7994.8029      1.2572582      0.71853643   
     34200  -4787.5303     -4827.106       39.575676      5702.1182      304.04246      7981.7073      1.259321       0.71853643   
     34300  -4786.6708     -4827.3946      40.723839      3646.1975      312.86329      7973.425       1.2606291      0.71853643   
     34400  -4786.9518     -4827.6787      40.726847      6137.5451      312.88639      7970.2081      1.2611379      0.71853643   
     34500  -4785.0413     -4826.5702      41.528957      3843.2793      319.04865      7979.5371      1.2596635      0.71853643   
     34600  -4785.5713     -4825.1707      39.599463      5905.8589      304.2252       7997.215       1.256879       0.71853643   
     34700  -4786.931      -4827.402       40.470974      4012.5267      310.92063      8015.5795      1.2539994      0.71853643   
     34800  -4787.1523     -4826.4991      39.346737      3369.993       302.28362      8031.3545      1.2515363      0.71853643   
     34900  -4788.7809     -4828.0032      39.222299      5688.1235      301.32762      8039.9114      1.2502043      0.71853643   
     35000  -4788.5243     -4827.7755      39.251235     -726.2889       301.54992      8040.0754      1.2501788      0.70837595   
     35100  -4786.7502     -4826.6632      39.913045     -652.77084      306.63432      8031.3794      1.2515324      0.70837595   
     35200  -4786.4407     -4827.4037      40.962947      5725.4322      314.70025      8016.4223      1.2538675      0.70837595   
     35300  -4787.9223     -4827.7562      39.833993      6464.8947      306.027        7997.063       1.2569029      0.70837595   
     35400  -4787.9783     -4827.5297      39.551395      2279.5957      303.85592      7974.1838      1.2605092      0.70837595   
     35500  -4787.0301     -4827.9784      40.948245      5271.2844      314.5873       7952.9647      1.2638723      0.70837595   
     35600  -4786.1064     -4826.6322      40.52581       416.47774      311.34192      7943.2652      1.2654156      0.70837595   
     35700  -4786.4879     -4827.9043      41.416443      1021.7595      318.18425      7948.6335      1.264561       0.70837595   
     35800  -4787.3914     -4827.9039      40.512533      9141.672       311.23991      7967.9924      1.2614886      0.70837595   
     35900  -4786.1099     -4827.8239      41.713998      6634.3234      320.47024      7996.5953      1.2569764      0.70837595   
     36000  -4786.6941     -4828.302       41.607909      5657.1832      319.6552       8025.1691      1.2525009      0.62644044   
     36100  -4786.9593     -4827.3948      40.435522      3695.4195      310.64827      8044.9637      1.2494191      0.62644044   
     36200  -4788.1548     -4827.8667      39.711917      5050.1699      305.08913      8053.1931      1.2481424      0.62644044   
     36300  -4789.0959     -4829.3261      40.230226      4206.2232      309.07107      8051.4558      1.2484117      0.62644044   
     36400  -4789.0786     -4828.5597      39.481109      4226.0241      303.31594      8039.6511      1.2502448      0.62644044   
     36500  -4788.8916     -4827.302       38.410396      3885.8919      295.09012      8021.5956      1.2530589      0.62644044   
     36600  -4789.3961     -4829.2305      39.834399      5439.0155      306.03011      8004.201       1.255782       0.62644044   
     36700  -4787.9954     -4827.854       39.858532      6796.4222      306.21552      7987.1706      1.2584596      0.62644044   
     36800  -4787.1367     -4826.0956      38.958825      5085.6272      299.30347      7974.3434      1.2604839      0.62644044   
     36900  -4787.8334     -4827.7978      39.964421      1782.1334      307.02901      7968.2227      1.2614521      0.62644044   
     37000  -4787.5185     -4828.3128      40.794297      4210.4537      313.40458      7968.2565      1.2614468      0.64855617   
     37100  -4787.0004     -4827.6487      40.6483        6473.9191      312.28295      7976.5918      1.2601286      0.64855617   
     37200  -4787.3685     -4825.7091      38.340576      8229.6603      294.55373      7991.4502      1.2577857      0.64855617   
     37300  -4788.0654     -4827.9272      39.861805      5932.7063      306.24066      8013.2453      1.2543647      0.64855617   
     37400  -4787.4673     -4826.9535      39.48622       5252.2838      303.35521      8039.8217      1.2502182      0.64855617   
     37500  -4787.8559     -4828.2075      40.35158       2326.6937      310.00338      8064.0001      1.2464697      0.64855617   
     37600  -4789.0631     -4827.5048      38.441774      1022.3296      295.33118      8075.6254      1.2446753      0.64855617   
     37700  -4787.6628     -4827.8447      40.181979      1852.5929      308.70041      8068.5479      1.2457671      0.64855617   
     37800  -4787.1827     -4827.619       40.436326      4716.8325      310.65445      8043.4027      1.2496616      0.64855617   
     37900  -4787.0888     -4827.4105      40.321676      4591.4919      309.77365      8010.6374      1.254773       0.64855617   
     38000  -4787.7847     -4827.8859      40.101199      4172.9988      308.07982      7974.4217      1.2604715      0.61842387   
     38100  -4787.544      -4828.0658      40.521779      6380.5226      311.31095      7943.3081      1.2654088      0.61842387   
     38200  -4786.5825     -4828.031       41.448498      4645.9539      318.43053      7926.6357      1.2680704      0.61842387   
     38300  -4786.721      -4828.322       41.60106       6267.2507      319.60259      7926.8403      1.2680376      0.61842387   
     38400  -4786.026      -4827.2411      41.215088      7072.6391      316.63734      7945.6391      1.2650375      0.61842387   
     38500  -4787.0142     -4827.6619      40.647681      5453.2747      312.2782       7976.8171      1.260093       0.61842387   
     38600  -4787.6941     -4827.8308      40.136666      6274.4832      308.3523       8015.2234      1.2540551      0.61842387   
     38700  -4787.8469     -4826.4376      38.590649      2572.4734      296.47492      8053.5592      1.2480857      0.61842387   
     38800  -4788.5486     -4827.7171      39.168508      2206.192       300.91436      8082.4777      1.2436201      0.61842387   
     38900  -4787.9188     -4827.242       39.323181      1455.9423      302.10265      8093.3325      1.2419522      0.61842387   
     39000  -4789.2764     -4826.5685      37.292118      3556.2753      286.49888      8082.0405      1.2436874      0.71415261   
     39100  -4789.9588     -4827.9301      37.971275      2778.3879      291.71655      8048.8801      1.2488112      0.71415261   
     39200  -4790.0088     -4830.5628      40.553986      3642.3303      311.55838      8000.2535      1.2564016      0.71415261   
     39300  -4790.6822     -4828.8269      38.144682      5397.2499      293.04876      7948.7166      1.2645478      0.71415261   
     39400  -4790.6477     -4828.8545      38.206846      3052.4355      293.52634      7903.5805      1.2717694      0.71415261   
     39500  -4789.2226     -4829.0629      39.840317      6963.4816      306.07558      7872.1649      1.2768447      0.71415261   
     39600  -4789.258      -4828.4472      39.189199      5548.1993      301.07333      7865.686       1.2778964      0.71415261   
     39700  -4789.0949     -4828.5023      39.407432      6996.4073      302.74992      7890.3283      1.2739054      0.71415261   
     39800  -4789.3178     -4828.6768      39.359041      9000.4201      302.37815      7935.1915      1.2667031      0.71415261   
     39900  -4788.4537     -4827.3313      38.877632      5659.4227      298.67969      7991.1186      1.2578379      0.71415261   
     40000  -4786.7457     -4827.4525      40.706805      1728.2269      312.73242      8053.5118      1.248093       0.64350529   
     40100  -4787.688      -4826.9097      39.221721      3543.3208      301.32317      8108.7962      1.2395837      0.64350529   
     40200  -4787.4667     -4827.2723      39.805615      2674.4989      305.80898      8143.2894      1.2343331      0.64350529   
     40300  -4786.859      -4826.944       40.084983     -1339.5946      307.95524      8148.9644      1.2334735      0.64350529   
     40400  -4788.0645     -4828.1454      40.080824      2125.2196      307.92329      8125.0369      1.237106       0.64350529   
     40500  -4787.5461     -4828.3583      40.812216      2659.1039      313.54225      8071.0225      1.2453852      0.64350529   
     40600  -4788.8589     -4827.2009      38.342039      2201.1678      294.56497      7997.2958      1.2568663      0.64350529   
     40700  -4787.7703     -4828.2486      40.478353      1163.5054      310.97733      7923.9859      1.2684944      0.64350529   
     40800  -4786.1167     -4827.6934      41.576705      3870.0348      319.41548      7868.0219      1.277517       0.64350529   
     40900  -4787.9999     -4828.259       40.259071      8226.2883      309.29268      7842.9462      1.2816015      0.64350529   
     41000  -4789.1032     -4829.3793      40.276089      7077.9961      309.42342      7852.7921      1.2799946      0.67725139   
     41100  -4787.1321     -4829.9052      42.773052      9363.9488      328.60648      7890.5485      1.2738698      0.67725139   
     41200  -4787.9104     -4828.0204      40.109993      6539.325       308.14738      7947.0793      1.2648083      0.67725139   
     41300  -4787.6278     -4826.7442      39.116367      5681.7999      300.51379      8014.836       1.2541157      0.67725139   
     41400  -4787.5906     -4826.7472      39.156618      4455.9916      300.82302      8076.669       1.2445145      0.67725139   
     41500  -4788.3779     -4826.8556      38.477712      2066.2742      295.60728      8116.52        1.2384041      0.67725139   
     41600  -4788.4108     -4828.0124      39.601553      2858.8998      304.24126      8127.3701      1.2367508      0.67725139   
     41700  -4788.2535     -4828.9176      40.664096      2115.9631      312.40431      8110.4894      1.2393249      0.67725139   
     41800  -4788.0596     -4828.3212      40.261548      4050.1753      309.31171      8067.3563      1.2459511      0.67725139   
     41900  -4787.4219     -4827.9781      40.556148      2794.7473      311.57499      8010.009       1.2548715      0.67725139   
     42000  -4786.667      -4826.3369      39.669888      5841.4584      304.76624      7950.3158      1.2642934      0.66545308   
     42100  -4786.4466     -4826.8881      40.441547      8968.6925      310.69456      7901.2754      1.2721404      0.66545308   
     42200  -4788.0266     -4827.5462      39.519556      9292.6206      303.61131      7873.8035      1.2765789      0.66545308   
     42300  -4788.8077     -4829.0035      40.195796      7971.9427      308.80657      7877.031       1.2760559      0.66545308   
     42400  -4789.0702     -4828.786       39.715752      9193.3755      305.1186       7911.6892      1.2704659      0.66545308   
     42500  -4789.9986     -4828.2076      38.208982      7016.4179      293.54275      7966.351       1.2617485      0.66545308   
     42600  -4788.3536     -4826.941       38.587444      7485.0796      296.45031      8024.3654      1.2526264      0.66545308   
     42700  -4789.8759     -4829.6152      39.739308      2682.8744      305.29957      8068.9984      1.2456976      0.66545308   
     42800  -4789.8639     -4829.55        39.686147      3980.3188      304.89116      8091.9931      1.2421577      0.66545308   
     42900  -4788.4424     -4828.6934      40.250995      5661.207       309.23063      8091.6914      1.242204       0.66545308   
     43000  -4788.5661     -4827.923       39.356941      6769.0427      302.36201      8074.578       1.2448368      0.68453737   
     43100  -4789.1004     -4828.279       39.1786        5381.8069      300.99189      8048.7241      1.2488354      0.68453737   
     43200  -4790.0206     -4827.6393      37.618727      4692.492       289.00808      8015.6831      1.2539832      0.68453737   
     43300  -4789.9088     -4829.0788      39.169973      2908.9224      300.92562      7981.0508      1.2594246      0.68453737   
     43400  -4789.9959     -4828.4054      38.40948       3190.6442      295.08309      7949.8787      1.2643629      0.68453737   
     43500  -4790.0402     -4828.7325      38.692334      5320.5646      297.25613      7926.7539      1.2680514      0.68453737   
     43600  -4789.5731     -4828.216       38.64289       6286.9243      296.87627      7914.9705      1.2699392      0.68453737   
     43700  -4788.3218     -4828.7827      40.460848      3226.8263      310.84285      7920.5523      1.2690443      0.68453737   
     43800  -4787.3438     -4827.0013      39.657543      7538.9438      304.67141      7940.9885      1.2657784      0.68453737   
     43900  -4786.5786     -4827.7191      41.140444      8143.6457      316.06388      7975.8076      1.2602525      0.68453737   
     44000  -4785.6263     -4826.6591      41.032791      8032.791       315.23683      8017.968       1.2536258      0.67962919   
     44100  -4786.3479     -4825.4551      39.107226      1895.8787      300.44356      8060.3734      1.2470305      0.67962919   
     44200  -4785.4826     -4825.1032      39.620625      3326.3421      304.38778      8093.6487      1.2419036      0.67962919   
     44300  -4785.7353     -4825.1663      39.430943      4693.0277      302.93054      8109.7052      1.2394448      0.67962919   
     44400  -4786.9045     -4828.5032      41.598692      2933.3583      319.58439      8102.7987      1.2405012      0.67962919   
     44500  -4787.0229     -4826.9358      39.912887      2589.8026      306.6331       8072.9401      1.2450893      0.67962919   
     44600  -4787.5961     -4827.0814      39.485281      6516.2915      303.34799      8030.1078      1.2517306      0.67962919   
     44700  -4787.85       -4827.6834      39.833403      9844.2659      306.02246      7981.8915      1.2592919      0.67962919   
     44800  -4785.8771     -4825.8516      39.974519      10396.201      307.10659      7942.1717      1.2655898      0.67962919   
     44900  -4786.2452     -4826.5513      40.306147      7817.8063      309.65434      7919.6609      1.2691871      0.67962919   
     45000  -4788.3154     -4827.7143      39.398893      6537.551       302.68431      7919.1869      1.2692631      0.81649702   
     45100  -4787.0389     -4827.1654      40.126492      5569.8634      308.27413      7933.062       1.2670431      0.81649702   
     45200  -4787.9378     -4827.7972      39.859337      4085.5069      306.2217       7960.5953      1.2626608      0.81649702   
     45300  -4788.2089     -4825.8362      37.627333      3027.8824      289.0742       7997.4968      1.2568347      0.81649702   
     45400  -4787.1475     -4827.3396      40.192102      5163.7861      308.77818      8039.8059      1.2502207      0.81649702   
     45500  -4787.3108     -4827.1504      39.839675      4658.9242      306.07065      8079.3619      1.2440997      0.81649702   
     45600  -4787.5585     -4826.6552      39.096722      1974.2553      300.36287      8104.257       1.240278       0.81649702   
     45700  -4787.43       -4826.7729      39.342822      487.87751      302.25354      8110.7191      1.2392898      0.81649702   
     45800  -4786.8788     -4827.0185      40.139678      3885.7828      308.37543      8098.1608      1.2412117      0.81649702   
     45900  -4788.0438     -4826.7808      38.736943      1467.4727      297.59884      8067.9593      1.245858       0.81649702   
     46000  -4788.8176     -4826.9183      38.10077       3760.9047      292.71141      8024.0362      1.2526778      0.66451641   
     46100  -4787.4807     -4826.4699      38.989187      6345.9528      299.53672      7975.862       1.2602439      0.66451641   
     46200  -4786.366      -4826.4106      40.044565      7068.1882      307.64472      7935.4171      1.2666671      0.66451641   
     46300  -4787.1202     -4827.331       40.210885      6917.2843      308.92248      7910.9027      1.2705922      0.66451641   
     46400  -4786.3684     -4827.5021      41.133655      8743.7566      316.01172      7907.5164      1.2711364      0.66451641   
     46500  -4786.5783     -4826.687       40.108684      8004.152       308.13732      7928.5442      1.2677651      0.66451641   
     46600  -4785.8482     -4826.3394      40.491119      6245.1033      311.0754       7969.4983      1.2612502      0.66451641   
     46700  -4787.4298     -4827.6937      40.263913      6753.7786      309.32988      8018.245       1.2535825      0.66451641   
     46800  -4787.0696     -4827.4922      40.422669      6611.3992      310.54953      8062.9399      1.2466336      0.66451641   
     46900  -4785.9329     -4826.148       40.215156      4255.7317      308.9553       8099.2254      1.2410485      0.66451641   
     47000  -4785.6206     -4826.3542      40.733588      3961.6975      312.93819      8115.9449      1.2384919      0.61881464   
     47100  -4784.694      -4825.7697      41.075731      7955.6597      315.56671      8112.0594      1.2390851      0.61881464   
     47200  -4785.5819     -4826.3664      40.784495      5596.6338      313.32928      8094.4976      1.2417734      0.61881464   
     47300  -4786.3699     -4827.3943      41.024373      5961.6249      315.17215      8065.9446      1.2461692      0.61881464   
     47400  -4786.3138     -4827.0081      40.694335      4080.934       312.63662      8029.0424      1.2518967      0.61881464   
     47500  -4785.278      -4826.6868      41.408839      3422.874       318.12584      7988.6289      1.2582299      0.61881464   
     47600  -4783.6958     -4826.5663      42.870454      6685.5875      329.35478      7954.3986      1.2636445      0.61881464   
     47700  -4784.373      -4825.1988      40.825774      7505.5274      313.64641      7935.6484      1.2666302      0.61881464   
     47800  -4784.153      -4825.7087      41.555632      6486.2242      319.25359      7942.5161      1.2655349      0.61881464   
     47900  -4785.5194     -4827.1988      41.67944       6697.7957      320.20475      7971.2342      1.2609756      0.61881464   
     48000  -4786.6793     -4827.1074      40.4281        7219.0406      310.59126      8012.438       1.254491       0.76886065   
     48100  -4787.0296     -4827.535       40.505386      2637.857       311.18501      8059.2667      1.2472018      0.76886065   
     48200  -4787.769      -4827.812       40.042967      5376.0817      307.63245      8099.385       1.2410241      0.76886065   
     48300  -4787.469      -4827.3171      39.84811       3383.6173      306.13545      8125.4148      1.2370484      0.76886065   
     48400  -4787.9777     -4827.5429      39.565246      743.88902      303.96232      8126.1139      1.236942       0.76886065   
     48500  -4787.9184     -4827.0702      39.151796      4913.7191      300.78597      8103.0515      1.2404625      0.76886065   
     48600  -4788.2476     -4827.5159      39.268363      5715.0511      301.68151      8060.1666      1.2470625      0.76886065   
     48700  -4788.6214     -4828.8529      40.231501      5149.629       309.08087      8005.6583      1.2555534      0.76886065   
     48800  -4787.9055     -4828.3437      40.438249      9345.2913      310.66923      7950.5904      1.2642497      0.76886065   
     48900  -4788.0615     -4827.8704      39.808958      11092.186      305.83466      7908.5848      1.2709646      0.76886065   
     49000  -4788.7293     -4829.3209      40.591586      10659.768      311.84725      7886.6666      1.2744969      0.66708338   
     49100  -4787.7648     -4828.0972      40.332436      8421.1266      309.85631      7892.3565      1.273578       0.66708338   
     49200  -4787.2758     -4827.9241      40.648229      4015.5878      312.28241      7924.6541      1.2683874      0.66708338   
     49300  -4786.8624     -4826.731       39.868626      6735.7645      306.29306      7973.6853      1.260588       0.66708338   
     49400  -4786.4806     -4825.7981      39.317525      8532.0252      302.05919      8032.6803      1.2513297      0.66708338   
     49500  -4787.7261     -4827.3685      39.642446      6697.0677      304.55542      8087.8692      1.2427911      0.66708338   
     49600  -4787.1671     -4826.8563      39.689206      1286.2521      304.91466      8125.3709      1.2370551      0.66708338   
     49700  -4787.6682     -4826.44        38.771811      3823.66        297.86671      8133.5049      1.235818       0.66708338   
     49800  -4787.9067     -4827.7269      39.820238      4467.623       305.92132      8111.6838      1.2391424      0.66708338   
     49900  -4787.8744     -4828.0204      40.146012      2875.1453      308.42409      8066.5762      1.2460716      0.66708338   
     50000  -4787.6193     -4828.5896      40.970258      3483.5034      314.75641      8011.0203      1.254713       0.75456933   
     50100  -4785.9661     -4827.4316      41.465476      4365.124       318.56096      7956.89        1.2632488      0.75456933   
     50200  -4787.2623     -4828.5361      41.273838      6583.295       317.08868      7916.8277      1.2696413      0.75456933   
     50300  -4786.2192     -4826.9823      40.76304       10518.451      313.16445      7896.5497      1.2729017      0.75456933   
     50400  -4784.8029     -4827.2736      42.47076       4773.2999      326.28411      7900.9878      1.2721867      0.75456933   
     50500  -4785.7312     -4825.6394      39.908183      5495.1874      306.59696      7929.821       1.267561       0.75456933   
     50600  -4785.1298     -4825.8205      40.690676      3563.4453      312.60851      7975.6604      1.2602758      0.75456933   
     50700  -4785.9861     -4826.4831      40.496976      2640.4706      311.12039      8025.725       1.2524142      0.75456933   
     50800  -4786.692      -4826.843       40.150961      3381.949       308.46212      8067.3519      1.2459518      0.75456933   
     50900  -4786.9821     -4827.319       40.336826      4131.4501      309.89004      8095.5688      1.2416091      0.75456933   
     51000  -4787.7735     -4826.7759      39.002415      1298.4044      299.63834      8105.0854      1.2401512      0.65471398   
     51100  -4786.7311     -4826.7087      39.977557      2710.2654      307.12993      8090.9381      1.2423197      0.65471398   
     51200  -4787.2851     -4827.2991      40.014032      7241.9841      307.41016      8057.4842      1.2474777      0.65471398   
     51300  -4788.193      -4827.5978      39.404798      5229.3498      302.72967      8014.6347      1.2541472      0.65471398   
     51400  -4788.5072     -4828.2597      39.752492      8016.0037      305.40085      7968.4906      1.2614097      0.65471398   
     51500  -4786.5627     -4828.3051      41.742414      8981.0427      320.68855      7927.3847      1.2679505      0.65471398   
     51600  -4786.4817     -4827.2083      40.726597      5382.6486      312.88448      7903.0362      1.271857       0.65471398   
     51700  -4788.1659     -4828.2311      40.06523       4926.6902      307.80349      7899.5101      1.2724247      0.65471398   
     51800  -4788.2264     -4828.3954      40.169019      8142.7286      308.60085      7917.7658      1.2694909      0.65471398   
     51900  -4789.9623     -4829.1825      39.220204      2531.2355      301.31152      7952.5773      1.2639339      0.65471398   
     52000  -4789.6733     -4829.9688      40.295475      3645.1603      309.57235      7993.6194      1.2574444      0.71655887   
     52100  -4789.846      -4828.1475      38.301449      4476.581       294.25313      8027.9254      1.2520709      0.71655887   
     52200  -4789.6501     -4829.3875      39.737357      4717.5517      305.28458      8049.0348      1.2487872      0.71655887   
     52300  -4791.1715     -4829.9977      38.826179      3513.2676      298.2844       8054.9976      1.2478628      0.71655887   
     52400  -4790.0908     -4828.521       38.430155      3644.9829      295.24192      8044.1644      1.2495433      0.71655887   
     52500  -4790.5375     -4827.9984      37.46094       4505.5126      287.79587      8022.3829      1.2529359      0.71655887   
     52600  -4790.7478     -4829.4239      38.67606       5622.2196      297.13111      7992.505       1.2576197      0.71655887   
     52700  -4790.8664     -4829.4853      38.618864      5451.7242      296.6917       7958.0208      1.2630693      0.71655887   
     52800  -4790.8587     -4829.966       39.107294      8487.0385      300.44408      7920.7224      1.269017       0.71655887   
     52900  -4790.316      -4829.2688      38.952838      5033.523       299.25746      7891.37        1.2737372      0.71655887   
     53000  -4791.0618     -4829.8681      38.806293      4418.9594      298.13163      7879.4108      1.2756705      0.69543264   
     53100  -4791.8764     -4829.4894      37.612977      3385.7638      288.9639       7887.9568      1.2742884      0.69543264   
     53200  -4792.0226     -4829.538       37.515341      9130.9457      288.21381      7916.0404      1.2697676      0.69543264   
     53300  -4790.0461     -4829.8088      39.762704      8618.0365      305.47931      7960.4156      1.2626893      0.69543264   
     53400  -4789.2873     -4827.577       38.289655      884.37948      294.16253      8015.8128      1.2539629      0.69543264   
     53500  -4788.9482     -4827.7737      38.825524     -1208.5241      298.27937      8068.3256      1.2458014      0.69543264   
     53600  -4789.1566     -4826.2835      37.126845      1711.6658      285.22917      8109.2529      1.2395139      0.69543264   
     53700  -4788.1583     -4827.0163      38.858063     -3320.1946      298.52935      8130.151       1.2363278      0.69543264   
     53800  -4787.6866     -4827.251       39.564372      1438.1691      303.95561      8119.1555      1.2380021      0.69543264   
     53900  -4786.5627     -4826.1779      39.615184      3868.7315      304.34598      8080.4432      1.2439332      0.69543264   
     54000  -4786.7525     -4826.0909      39.338355      1971.8322      302.21922      8024.1906      1.2526537      0.63890403   
     54100  -4787.1199     -4828.7058      41.585913      4331.7107      319.48622      7961.0164      1.262594       0.63890403   
     54200  -4787.614      -4828.9041      41.290098      6575.2893      317.21361      7904.9937      1.271542       0.63890403   
     54300  -4788.4739     -4827.9436      39.469723      9948.5635      303.22847      7871.501       1.2769524      0.63890403   
     54400  -4788.5704     -4829.5298      40.959365      6773.7507      314.67273      7864.5742      1.278077       0.63890403   
     54500  -4788.7363     -4828.474       39.737688      6451.1943      305.28713      7880.8973      1.2754298      0.63890403   
     54600  -4789.3452     -4828.5784      39.233223      8560.1887      301.41154      7922.2883      1.2687662      0.63890403   
     54700  -4789.4962     -4829.6642      40.168064      4963.8136      308.59351      7981.1256      1.2594128      0.63890403   
     54800  -4789.3345     -4827.8001      38.465591      4750.2001      295.51416      8041.6865      1.2499283      0.63890403   
     54900  -4788.6635     -4827.4103      38.746817      2612.1346      297.6747       8094.1385      1.2418285      0.63890403   
     55000  -4787.1895     -4827.0331      39.843612      5087.4115      306.10089      8126.8617      1.2368282      0.66632685   
     55100  -4786.5748     -4826.5999      40.025129      5330.5524      307.49541      8132.6235      1.2359519      0.66632685   
     55200  -4785.5638     -4825.3874      39.823634      2172.3388      305.94741      8113.0231      1.2389379      0.66632685   
     55300  -4786.389      -4826.1978      39.80878       4038.7362      305.8333       8074.7993      1.2448027      0.66632685   
     55400  -4785.939      -4826.039       40.100035      6402.0279      308.07088      8027.9257      1.2520708      0.66632685   
     55500  -4787.2535     -4827.8058      40.552253      5200.0757      311.54507      7983.2663      1.2590751      0.66632685   
     55600  -4786.5004     -4828.0852      41.584789      6500.5739      319.47759      7941.1053      1.2657598      0.66632685   
[...]
    386200  -4786.9669     -4827.6266      40.659665      1966.7721      312.37026      8002.1895      1.2560977      0.71532043   
    386300  -4788.6777     -4827.557       38.879271      4367.7992      298.69228      7990.189       1.2579842      0.71532043   
    386400  -4787.2366     -4828.1485      40.911893      7724.1278      314.30802      7978.3163      1.2598562      0.71532043   
    386500  -4786.713      -4826.8285      40.11548       5861.3606      308.18953      7975.4424      1.2603102      0.71532043   
    386600  -4787.4256     -4828.3634      40.937723      3284.5776      314.50646      7983.5489      1.2590305      0.71532043   
    386700  -4787.9409     -4827.1312      39.19022       9563.7652      301.08117      7995.925       1.2570818      0.71532043   
    386800  -4789.5959     -4829.7889      40.192985      3227.9721      308.78497      8012.2495      1.2545206      0.71532043   
    386900  -4789.1299     -4828.4628      39.332911      1470.8729      302.1774       8025.2869      1.2524825      0.71532043   
    387000  -4788.7401     -4828.5289      39.788797      1957.98        305.67977      8032.4174      1.2513707      0.6398521    
    387100  -4788.7959     -4828.8053      40.009485      1279.8901      307.37522      8036.4462      1.2507434      0.6398521    
    387200  -4787.8594     -4827.8314      39.971968      5929.2555      307.08699      8034.8493      1.2509919      0.6398521    
    387300  -4786.563      -4827.6036      41.040597      3750.4701      315.2968       8024.5936      1.2525907      0.6398521    
    387400  -4788.3478     -4828.1461      39.798347      6812.1207      305.75314      8008.8307      1.2550561      0.6398521    
    387500  -4787.8683     -4828.3199      40.451616      4841.8332      310.77191      7992.434       1.2576309      0.6398521    
    387600  -4787.3335     -4828.4641      41.130576      9571.3623      315.98806      7975.9013      1.2602377      0.6398521    
    387700  -4787.2238     -4827.0899      39.866171      5788.2642      306.2742       7964.7074      1.2620089      0.6398521    
    387800  -4787.102      -4826.8322      39.730209      3824.3467      305.22967      7964.5664      1.2620313      0.6398521    
    387900  -4787.7679     -4828.1737      40.40586       9823.3576      310.42039      7968.5481      1.2614006      0.6398521    
    388000  -4787.6551     -4827.6676      40.012537      8020.2534      307.39866      7974.3471      1.2604833      0.66036534   
    388100  -4787.8016     -4828.1273      40.325715      5344.4206      309.80468      7983.1573      1.2590923      0.66036534   
    388200  -4788.226      -4827.6861      39.460168      1712.6761      303.15506      7992.3202      1.2576488      0.66036534   
    388300  -4788.0363     -4828.1723      40.135991      4927.7459      308.34711      8003.5054      1.2558912      0.66036534   
    388400  -4789.1971     -4827.5101      38.31304       5393.3886      294.34218      8012.4301      1.2544923      0.66036534   
    388500  -4788.7324     -4827.8009      39.068533      4734.9064      300.1463       8017.4301      1.2537099      0.66036534   
    388600  -4789.4023     -4828.055       38.652692      3141.2953      296.95158      8018.5333      1.2535374      0.66036534   
    388700  -4789.7605     -4827.563       37.802438      3855.9213      290.41945      8013.1988      1.2543719      0.66036534   
    388800  -4789.5314     -4828.9646      39.433288      3600.5681      302.94856      8002.7175      1.2560148      0.66036534   
    388900  -4787.9149     -4827.9162      40.001225      3241.9156      307.31176      7991.9346      1.2577095      0.66036534   
    389000  -4789.66       -4829.1586      39.498583      3149.7424      303.45019      7979.6616      1.2596439      0.65205511   
    389100  -4791.488      -4830.28        38.792         6558.7045      298.02182      7965.9879      1.2618061      0.65205511   
    389200  -4790.3986     -4828.9689      38.570294      6300.7757      296.31855      7956.1554      1.2633654      0.65205511   
    389300  -4789.3513     -4827.9001      38.548818      5323.1153      296.15356      7957.5423      1.2631452      0.65205511   
    389400  -4789.9715     -4829.3003      39.3288        6515.0357      302.14582      7964.9679      1.2619676      0.65205511   
    389500  -4788.2603     -4826.6039      38.343536      6760.0187      294.57647      7974.1333      1.2605171      0.65205511   
    389600  -4788.9193     -4828.6097      39.69041       6378.9343      304.92391      7988.3259      1.2582776      0.65205511   
    389700  -4788.6327     -4828.0976      39.464913      6832.4734      303.19151      8001.0187      1.2562815      0.65205511   
    389800  -4786.7314     -4827.1637      40.432292      8289.5918      310.62346      8008.9194      1.2550422      0.65205511   
    389900  -4788.6136     -4827.8648      39.251155      4753.1848      301.5493       8017.2011      1.2537457      0.65205511   
    390000  -4788.7468     -4830.0936      41.346807      3799.1362      317.64928      8024.0751      1.2526717      0.65740267   
    390100  -4788.0894     -4827.8917      39.802329      2915.9632      305.78373      8028.3921      1.2519981      0.65740267   
    390200  -4787.8882     -4826.1581      38.269919      2448.9131      294.01091      8028.7602      1.2519407      0.65740267   
    390300  -4788.7016     -4827.7462      39.0446        1295.3579      299.96243      8023.59        1.2527474      0.65740267   
    390400  -4789.4014     -4828.4923      39.090961      1917.0001      300.31861      8009.615       1.2549332      0.65740267   
    390500  -4789.2619     -4829.3638      40.101839      2846.0482      308.08473      7985.1158      1.2587835      0.65740267   
    390600  -4788.431      -4827.8315      39.400493      6070.4478      302.6966       7958.1415      1.2630501      0.65740267   
    390700  -4787.6372     -4827.7662      40.128977      7853.3425      308.29322      7937.1428      1.2663917      0.65740267   
    390800  -4786.6694     -4827.2431      40.573641      6828.2085      311.70938      7931.3132      1.2673225      0.65740267   
    390900  -4786.8725     -4827.5532      40.680696      6305.0741      312.53183      7942.3651      1.265559       0.65740267   
    391000  -4788.2749     -4827.8773      39.602419      5616.4598      304.24791      7966.6241      1.2617053      0.80609133   
    391100  -4788.9074     -4828.6435      39.736075      1505.3472      305.27473      7996.3139      1.2570206      0.80609133   
    391200  -4790.1111     -4828.2732      38.162121      960.26673      293.18274      8016.9643      1.2537828      0.80609133   
    391300  -4789.5345     -4829.4507      39.916165      4580.5356      306.65828      8027.439       1.2521468      0.80609133   
    391400  -4787.701      -4827.4596      39.758625      2257.5355      305.44797      8026.7454      1.252255       0.80609133   
    391500  -4788.0913     -4826.685       38.593727      3840.2472      296.49857      8017.2037      1.2537453      0.80609133   
    391600  -4787.8687     -4827.8674      39.998739      4532.2771      307.29267      8004.058       1.2558045      0.80609133   
    391700  -4787.02       -4828.7024      41.682346      4472.1647      320.22707      7990.0595      1.2580046      0.80609133   
    391800  -4787.172      -4826.8568      39.684818      7948.5889      304.88095      7974.6207      1.2604401      0.80609133   
    391900  -4787.4562     -4827.9316      40.475381      6028.7351      310.95449      7961.6997      1.2624857      0.80609133   
    392000  -4787.3083     -4828.1039      40.795581      5230.7981      313.41445      7953.0293      1.263862       0.71647656   
    392100  -4788.7004     -4829.5137      40.813336      2926.4755      313.55085      7949.1753      1.2644748      0.71647656   
    392200  -4787.7505     -4827.2694      39.518942      4709.3207      303.60659      7954.1456      1.2636846      0.71647656   
    392300  -4787.1055     -4826.8697      39.76415       5067.4447      305.49042      7969.6955      1.261219       0.71647656   
    392400  -4787.8668     -4827.1721      39.305298      4249.6795      301.96526      7990.9366      1.2578665      0.71647656   
    392500  -4788.1435     -4828.5335      40.389987      3390.0034      310.29845      8009.3305      1.2549778      0.71647656   
    392600  -4788.9169     -4828.5505      39.63362       2590.0293      304.48762      8017.7078      1.2536665      0.71647656   
    392700  -4788.8081     -4828.06        39.251841      1488.2955      301.55457      8013.4417      1.2543339      0.71647656   
    392800  -4788.3607     -4827.3851      39.024377      6510.2409      299.80707      8001.2778      1.2562408      0.71647656   
    392900  -4787.5509     -4828.2707      40.719883      5380.7316      312.83289      7988.2543      1.2582889      0.71647656   
    393000  -4788.7032     -4829.05        40.346744      5442.0881      309.96623      7977.4585      1.2599917      0.6672096    
    393100  -4789.2285     -4828.1557      38.927247      3544.7276      299.06086      7972.3652      1.2607967      0.6672096    
    393200  -4789.4078     -4828.5085      39.100725      1523.9278      300.39361      7969.7902      1.2612041      0.6672096    
    393300  -4789.3067     -4827.8737      38.566959      7475.9078      296.29293      7966.3914      1.2617421      0.6672096    
    393400  -4789.5952     -4828.4357      38.84056       5167.9307      298.39489      7962.4463      1.2623673      0.6672096    
    393500  -4789.2238     -4828.2666      39.042791      2466.8512      299.94854      7959.8951      1.2627719      0.6672096    
    393600  -4788.8097     -4827.0638      38.254177      2394.7009      293.88996      7958.5559      1.2629844      0.6672096    
    393700  -4789.074      -4830.3466      41.272621      8547.2428      317.07934      7963.6547      1.2621757      0.6672096    
    393800  -4788.7214     -4828.8691      40.14777       4979.3604      308.43761      7970.7211      1.2610567      0.6672096    
    393900  -4787.9026     -4827.6075      39.704936      5249.0242      305.03551      7980.9983      1.2594329      0.6672096    
    394000  -4787.1787     -4828.9738      41.795087      5117.6633      321.09321      7995.9837      1.2570726      0.645167     
    394100  -4787.8837     -4827.0497      39.166         3422.3636      300.8951       8012.2503      1.2545204      0.645167     
    394200  -4788.5121     -4828.6063      40.094169      5429.95        308.02581      8022.565       1.2529075      0.645167     
    394300  -4788.3456     -4828.4061      40.060527      5838.5372      307.76736      8022.4766      1.2529213      0.645167     
    394400  -4787.418      -4828.401       40.982938      5133.6506      314.85383      8012.928       1.2544143      0.645167     
    394500  -4788.1549     -4829.1102      40.955239      5990.1122      314.64103      8000.2262      1.2564059      0.645167     
    394600  -4789.3619     -4827.2791      37.917169      6525.321       291.30088      7983.3483      1.2590622      0.645167     
    394700  -4786.6395     -4827.9618      41.322308      6554.5808      317.46106      7970.8687      1.2610334      0.645167     
    394800  -4787.8407     -4828.8093      40.968598      3035.3937      314.74366      7965.629       1.2618629      0.645167     
    394900  -4787.1147     -4826.9852      39.870518      5958.7637      306.30759      7964.7006      1.26201        0.645167     
    395000  -4786.6491     -4827.9621      41.313029      9289.6758      317.38977      7969.5551      1.2612413      0.67002699   
    395100  -4785.7773     -4825.0742      39.296921      7700.4796      301.90091      7986.1602      1.2586188      0.67002699   
    395200  -4784.6914     -4825.2403      40.548955      5709.7342      311.51973      8012.2916      1.254514       0.67002699   
    395300  -4785.3238     -4827.7577      42.433975      3982.3827      326.00151      8042.7322      1.2497658      0.67002699   
    395400  -4785.5423     -4826.0494      40.507022      2355.8105      311.19758      8065.9201      1.246173       0.67002699   
    395500  -4785.5001     -4825.9023      40.402268      5890.1472      310.3928       8078.8813      1.2441737      0.67002699   
    395600  -4786.5061     -4827.4103      40.904237      4107.3254      314.24921      8082.4759      1.2436204      0.67002699   
    395700  -4785.993      -4826.6932      40.700147      4550.5391      312.68127      8072.7591      1.2451173      0.67002699   
    395800  -4788.9919     -4827.3594      38.367517      3075.5468      294.76071      8047.0963      1.249088       0.67002699   
    395900  -4788.4814     -4827.2237      38.742324      2278.2821      297.64018      8009.7753      1.2549081      0.67002699   
    396000  -4786.9478     -4827.2106      40.262824      6361.5051      309.32151      7965.2257      1.2619268      0.80156535   
    396100  -4786.6404     -4826.6184      39.978024      6001.1379      307.13352      7923.9651      1.2684977      0.80156535   
    396200  -4786.7117     -4827.7453      41.033687      5550.7516      315.24371      7900.1095      1.2723281      0.80156535   
    396300  -4788.1091     -4827.0902      38.981041      2315.0767      299.47414      7898.3447      1.2726124      0.80156535   
    396400  -4787.2481     -4826.6363      39.388184      4582.9421      302.60204      7921.2429      1.2689337      0.80156535   
    396500  -4790.0581     -4829.0941      39.036075      7638.0066      299.89694      7967.6235      1.261547       0.80156535   
    396600  -4790.1848     -4829.616       39.431185      3531.8156      302.9324       8020.1634      1.2532827      0.80156535   
    396700  -4789.72       -4828.1208      38.400867      5599.2448      295.01691      8067.0604      1.2459968      0.80156535   
    396800  -4789.6204     -4828.0634      38.44304       5438.871       295.34091      8101.0728      1.2407655      0.80156535   
    396900  -4789.3869     -4827.1603      37.773398      3141.8945      290.19635      8118.6626      1.2380773      0.80156535   
    397000  -4789.7432     -4827.7277      37.984502      5361.09        291.81817      8115.4526      1.238567       0.67934939   
    397100  -4791.1902     -4830.328       39.137815      965.95503      300.67856      8092.6812      1.2420521      0.67934939   
    397200  -4790.2381     -4828.7952      38.557087      2550.7138      296.21709      8050.1284      1.2486176      0.67934939   
    397300  -4789.5818     -4827.2794      37.697607      2473.8967      289.61408      7999.3784      1.2565391      0.67934939   
    397400  -4790.375      -4830.2452      39.870189      4449.1858      306.30507      7954.9336      1.2635595      0.67934939   
    397500  -4789.5155     -4827.8007      38.285249      7224.9696      294.12868      7924.4485      1.2684203      0.67934939   
    397600  -4788.1778     -4828.3579      40.180097      6587.2615      308.68595      7916.2092      1.2697405      0.67934939   
    397700  -4788.1424     -4828.1606      40.018246      6331.4997      307.44253      7930.7964      1.2674051      0.67934939   
    397800  -4788.6157     -4827.4068      38.791137      4108.3468      298.01519      7961.0896      1.2625824      0.67934939   
    397900  -4787.6609     -4826.9719      39.310994      5074.2249      302.00902      7999.9552      1.2564485      0.67934939   
    398000  -4787.7409     -4825.9931      38.252272      3627.5381      293.87533      8041.2252      1.25           0.75834739   
    398100  -4789.718      -4829.1891      39.471021      5710.7175      303.23844      8076.5534      1.2445323      0.75834739   
    398200  -4788.958      -4828.8962      39.938203      5572.2526      306.82759      8096.1703      1.2415168      0.75834739   
    398300  -4787.9926     -4826.6772      38.684538      3440.1181      297.19623      8093.4271      1.2419376      0.75834739   
    398400  -4787.3399     -4827.2824      39.942534      4563.2655      306.86086      8072.2391      1.2451975      0.75834739   
    398500  -4787.3973     -4827.5919      40.194588      4167.1224      308.79728      8039.2055      1.2503141      0.75834739   
    398600  -4787.7528     -4826.9816      39.228816      963.19673      301.37768      8001.1235      1.256265       0.75834739   
    398700  -4787.7531     -4826.1037      38.350567      2257.4033      294.63048      7964.4097      1.2620561      0.75834739   
    398800  -4788.155      -4826.9623      38.807217      6186.6779      298.13872      7937.0729      1.2664028      0.75834739   
    398900  -4787.5895     -4827.5822      39.992766      8821.2336      307.24678      7919.6991      1.269181       0.75834739   
    399000  -4788.9291     -4828.3164      39.387311      7127.4895      302.59533      7915.322       1.2698829      0.70936221   
    399100  -4789.5023     -4828.6808      39.178506      6729.2201      300.99117      7924.3539      1.2684355      0.70936221   
    399200  -4789.7492     -4829.9375      40.188381      7186.061       308.7496       7944.5407      1.2652124      0.70936221   
    399300  -4790.3888     -4829.1424      38.753597      6825.4117      297.72678      7973.5474      1.2606098      0.70936221   
    399400  -4790.0397     -4828.4009      38.361194      4733.6743      294.71213      8006.973       1.2553473      0.70936221   
    399500  -4789.8456     -4828.9005      39.054919      73.455595      300.04171      8035.1643      1.2509429      0.70936221   
    399600  -4789.777      -4827.8844      38.107346      2624.1153      292.76192      8050.6136      1.2485423      0.70936221   
    399700  -4789.6128     -4828.4625      38.84971       561.51375      298.46518      8051.5537      1.2483965      0.70936221   
    399800  -4789.1507     -4827.6321      38.481403      1709.5769      295.63564      8040.6099      1.2500957      0.70936221   
    399900  -4789.0621     -4828.1407      39.078667      3355.6486      300.22416      8019.3382      1.2534116      0.70936221   
    400000  -4787.6587     -4828.4928      40.834064      4622.1948      313.71009      7992.2349      1.2576622      0.63480764   
    400100  -4786.3555     -4826.8879      40.532334      4951.4906      311.39204      7964.8474      1.2619867      0.63480764   
    400200  -4788.235      -4827.3029      39.067903      6547.2455      300.14146      7950.5476      1.2642565      0.63480764   
    400297  -4787.7672     -4826.2518      38.484606      6474.9848      295.66024      7947.1901      1.2647906      0.63480764   
Loop time of 483.061 on 4 procs for 200000 steps with 1008 atoms

Performance: 17.886 ns/day, 1.342 hours/ns, 414.026 timesteps/s, 417.339 katom-step/s
99.7% CPU use with 4 MPI tasks x 1 OpenMP threads

MPI task timing breakdown:
Section |  min time  |  avg time  |  max time  |%varavg| %total
---------------------------------------------------------------
Pair    | 213.43     | 214.83     | 216.7      |   8.4 | 44.47
Neigh   | 7.5703     | 7.6572     | 7.776      |   3.0 |  1.59
Comm    | 63.555     | 66.861     | 68.737     |  24.1 | 13.84
Output  | 0.27639    | 0.28095    | 0.28683    |   0.7 |  0.06
Modify  | 189.89     | 191.04     | 192.39     |   6.6 | 39.55
Other   |            | 2.397      |            |       |  0.50

Nlocal:            252 ave         260 max         245 min
Histogram: 1 0 1 0 0 0 1 0 0 1
Nghost:           1996 ave        2007 max        1984 min
Histogram: 1 0 0 0 1 0 1 0 0 1
Neighs:              0 ave           0 max           0 min
Histogram: 4 0 0 0 0 0 0 0 0 0
FullNghs:      37075.5 ave       38141 max       35999 min
Histogram: 1 0 1 0 0 0 0 1 0 1

Total # of neighbors = 148302
Ave neighs/atom = 147.125
Neighbor list builds = 19990
Dangerous builds = 19942

unfix		3
unfix		4
Total wall time: 0:16:07
