LAMMPS (27 Jun 2024)
KOKKOS mode with Kokkos version 4.3.1 is enabled (src/KOKKOS/kokkos.cpp:72)
  will use up to 1 GPU(s) per node
WARNING: When using a single thread, the Kokkos Serial backend (i.e. Makefile.kokkos_mpi_only) gives better performance than the OpenMP backend (src/KOKKOS/kokkos.cpp:202)
  using 1 OpenMP thread(s) per MPI task
Reading data file ...
  orthogonal box = (0 0 0) to (19.665067 19.665067 19.640133)
  1 by 1 by 1 MPI processor grid
  reading atoms ...
  1296 atoms
  read_data CPU = 0.080 seconds
ACE/AL version: 2023.11.25
Loading /pc2/users/a/acepdw01/work/phase_diagram/pot_dir/interim_potential_ladder_step_1.yaml
Total number of basis functions
	H: 23 (r=1) 664 (r>1)
	O: 23 (r=1) 664 (r>1)
Mapping LAMMPS atom type #1(H) -> ACE species type #0
Mapping LAMMPS atom type #2(O) -> ACE species type #1
Loading ASI /pc2/users/a/acepdw01/work/phase_diagram/pot_dir/interim_potential_ladder_step_1.asi
LINEAR ASI is loaded

CITE-CITE-CITE-CITE-CITE-CITE-CITE-CITE-CITE-CITE-CITE-CITE-CITE

Your simulation uses code contributions which should be cited:
- Type Label Framework: https://doi.org/10.1021/acs.jpcb.3c08419
The log file lists these citations in BibTeX format.

CITE-CITE-CITE-CITE-CITE-CITE-CITE-CITE-CITE-CITE-CITE-CITE-CITE

Switching to 'neigh_modify every 1 delay 0 check yes' setting during minimization
Neighbor list info ...
  update: every = 1 steps, delay = 0 steps, check = yes
  max neighbors/atom: 2000, page size: 100000
  master list distance cutoff = 6.5
  ghost atom cutoff = 6.5
  binsize = 6.5, bins = 4 4 4
  1 neighbor lists, perpetual/occasional/extra = 1 0 0
  (1) pair pace/extrapolation/kk, perpetual
      attributes: full, newton on, kokkos_device
      pair build: full/bin/kk/device
      stencil: full/bin/3d
      bin: kk/device
Setting up cg/kk style minimization ...
  Unit style    : metal
  Current step  : 0
WARNING: Fix with atom-based arrays not compatible with sending data in Kokkos communication, switching to classic exchange/border communication (src/KOKKOS/comm_kokkos.cpp:754)
WARNING: Fix with atom-based arrays not compatible with Kokkos sorting on device, switching to classic host sorting (src/KOKKOS/atom_kokkos.cpp:216)
Per MPI rank memory allocation (min/avg/max) = 1123 | 1123 | 1123 Mbytes
   Step         TotEng         PotEng         KinEng         Press           Temp          Volume        Density     c_max_pace_gamma
         0  -6250.4972     -6250.4972      0              21939.986      0              7595.1311      1.7015372      0.62320149   
        33  -6250.6452     -6250.6452      0              22350.057      0              7595.1311      1.7015372      0.62320149   
Loop time of 0.263048 on 1 procs for 33 steps with 1296 atoms

99.2% CPU use with 1 MPI tasks x 1 OpenMP threads

Minimization stats:
  Stopping criterion = force tolerance
  Energy initial, next-to-last, final = 
     -6250.49717465847  -6250.64523648355  -6250.64523648875
  Force two-norm initial, final = 0.82052426 0.0003006328
  Force max component initial, final = 0.040662504 1.1270972e-05
  Final line search alpha, max atom move = 1 1.1270972e-05
  Iterations, force evaluations = 33 66

MPI task timing breakdown:
Section |  min time  |  avg time  |  max time  |%varavg| %total
---------------------------------------------------------------
Pair    | 0.23643    | 0.23643    | 0.23643    |   0.0 | 89.88
Neigh   | 0          | 0          | 0          |   0.0 |  0.00
Comm    | 0.0017607  | 0.0017607  | 0.0017607  |   0.0 |  0.67
Output  | 0          | 0          | 0          |   0.0 |  0.00
Modify  | 0.014624   | 0.014624   | 0.014624   |   0.0 |  5.56
Other   |            | 0.01023    |            |       |  3.89

Nlocal:           1296 ave        1296 max        1296 min
Histogram: 1 0 0 0 0 0 0 0 0 0
Nghost:           4514 ave        4514 max        4514 min
Histogram: 1 0 0 0 0 0 0 0 0 0
Neighs:              0 ave           0 max           0 min
Histogram: 1 0 0 0 0 0 0 0 0 0
FullNghs:       251424 ave      251424 max      251424 min
Histogram: 1 0 0 0 0 0 0 0 0 0

Total # of neighbors = 251424
Ave neighs/atom = 194
Neighbor list builds = 0
Dangerous builds = 0
Setting up Verlet run ...
  Unit style    : metal
  Current step  : 33
  Time step     : 0.0005
WARNING: Fix with atom-based arrays not compatible with Kokkos sorting on device, switching to classic host sorting (src/KOKKOS/atom_kokkos.cpp:216)
Per MPI rank memory allocation (min/avg/max) = 1123 | 1123 | 1123 Mbytes
   Step         TotEng         PotEng         KinEng         Press           Temp          Volume        Density     c_max_pace_gamma
        33  -6182.0146     -6250.6452      68.630674      32001.718      410            7595.1311      1.7015372      0.62320149   
       100  -6171.8648     -6200.831       28.966183      42204.254      173.04412      7620.8783      1.6957885      0.62320149   
       200  -6161.9818     -6205.6977      43.715882      32329.436      261.1589       7775.2656      1.6621166      0.62320149   
       300  -6154.6141     -6205.0992      50.485076      22234.319      301.5981       8006.2232      1.6141691      0.62320149   
       400  -6148.8406     -6200.8578      52.017176      18317.502      310.75088      8207.9138      1.5745046      0.62320149   
       500  -6143.8606     -6198.986       55.125332      15578.115      329.31902      8357.6694      1.5462921      0.62320149   
       600  -6138.6699     -6193.5952      54.925319      17377.081      328.12414      8471.945       1.5254346      0.62320149   
       700  -6132.0937     -6190.6468      58.553106      14273.121      349.79656      8564.9543      1.5088694      0.62320149   
       800  -6126.2835     -6188.3936      62.110139      11204.589      371.04629      8637.2891      1.4962331      0.62320149   
       900  -6124.6621     -6185.5727      60.910668      19757.854      363.88064      8687.4794      1.4875889      0.62320149   
      1000  -6123.759      -6186.6209      62.861928      16997.808      375.53748      8721.2978      1.4818205      0.76103347   
      1100  -6124.3568     -6187.3704      63.013574      13846.088      376.44342      8737.5703      1.4790608      0.76103347   
      1200  -6120.116      -6187.2848      67.168805      15769.627      401.26679      8736.474       1.4792464      0.76103347   
      1300  -6119.2062     -6184.2824      65.076252      17406.481      388.76587      8724.638       1.4812532      0.76103347   
      1400  -6119.2719     -6182.0324      62.760493      13995.857      374.93151      8708.3918      1.4840166      0.76103347   
      1500  -6117.985      -6183.8767      65.891708      17440.371      393.6374       8694.1765      1.486443       0.76103347   
      1600  -6115.6613     -6181.9395      66.278204      15809.701      395.94633      8686.2019      1.4878077      0.76103347   
      1700  -6113.3609     -6181.2699      67.909041      16721.867      405.68896      8687.5379      1.4875789      0.76103347   
      1800  -6110.9782     -6180.0683      69.090127      16385.45       412.74478      8695.3911      1.4862354      0.76103347   
      1900  -6112.3727     -6181.9267      69.554019      16742.417      415.51607      8714.1975      1.4830279      0.76103347   
      2000  -6113.2587     -6182.9815      69.722717      14917.197      416.52387      8743.1063      1.4781243      0.89651985   
      2100  -6112.9071     -6179.4788      66.571688      17770.698      397.69961      8773.6983      1.4729704      0.89651985   
      2200  -6111.6391     -6180.8997      69.260582      13244.231      413.76307      8806.6813      1.4674538      0.89651985   
      2300  -6109.8036     -6178.9556      69.151962      13617.629      413.11417      8833.166       1.4630539      0.89651985   
      2400  -6112.0583     -6180.1331      68.074845      14691.697      406.67947      8850.6501      1.4601637      0.89651985   
      2500  -6111.2329     -6178.2456      67.012619      14819.549      400.33373      8859.4757      1.4587091      0.89651985   
      2600  -6111.6501     -6182.1276      70.477519      12938.908      421.03306      8861.4849      1.4583784      0.89651985   
      2700  -6112.1121     -6179.815       67.702869      12778.832      404.45729      8850.9047      1.4601217      0.89651985   
      2800  -6112.3595     -6180.3782      68.018703      13444.058      406.34408      8827.8723      1.4639312      0.89651985   
      2900  -6113.9855     -6182.6261      68.640569      13547.896      410.05911      8797.3405      1.4690119      0.89651985   
      3000  -6111.4371     -6179.1864      67.749301      14935.081      404.73467      8767.3763      1.4740325      0.73185973   
      3100  -6108.6261     -6177.4205      68.794402      12619.492      410.97811      8744.5492      1.4778804      0.73185973   
      3200  -6105.6713     -6177.9559      72.284571      14053.57       431.8284       8732.3021      1.4799531      0.73185973   
      3300  -6106.6154     -6178.8848      72.2694        19875.115      431.73777      8734.186       1.4796339      0.73185973   
      3400  -6107.3364     -6179.9601      72.623625      15049.496      433.85391      8749.7028      1.4770099      0.73185973   
      3500  -6106.5454     -6177.4434      70.898038      13929.92       423.54525      8774.6446      1.4728115      0.73185973   
      3600  -6110.5484     -6179.454       68.905617      11567.443      411.64251      8808.1302      1.4672124      0.73185973   
      3700  -6110.0952     -6180.7193      70.624058      14809.09       421.90849      8843.4793      1.4613477      0.73185973   
      3800  -6110.5491     -6179.756       69.206824      17189.494      413.44192      8874.1208      1.4563018      0.73185973   
      3900  -6112.0369     -6181.6647      69.627765      15099.284      415.95663      8894.0191      1.4530436      0.73185973   
      4000  -6112.7485     -6180.2092      67.460687      12820.706      403.01049      8899.3376      1.4521753      0.819781     
      4100  -6111.9683     -6177.9518      65.983448      13867.464      394.18546      8887.9272      1.4540396      0.819781     
      4200  -6111.4194     -6178.7396      67.320263      13790.636      402.1716       8864.5798      1.4578692      0.819781     
      4300  -6111.7069     -6180.9254      69.218549      15174.476      413.51197      8830.2695      1.4635338      0.819781     
      4400  -6112.5085     -6179.965       67.456537      14767.431      402.9857       8791.7417      1.4699474      0.819781     
      4500  -6110.9298     -6181.5684      70.638604      20028.152      421.99538      8757.6293      1.4756731      0.819781     
      4600  -6110.8996     -6179.8738      68.974174      17072.724      412.05207      8731.7969      1.4800388      0.819781     
      4700  -6109.4422     -6179.8046      70.362342      17855.514      420.34499      8715.9884      1.4827232      0.819781     
      4800  -6110.2718     -6178.7701      68.498338      18019.578      409.20942      8715.3546      1.482831       0.819781     
      4900  -6109.5748     -6177.9229      68.348127      15279.422      408.31206      8731.8427      1.480031       0.819781     
      5000  -6109.7799     -6178.3837      68.60382       13938.311      409.83957      8765.6958      1.4743151      0.76706672   
      5100  -6110.5595     -6178.2045      67.645001      11235.339      404.11159      8811.8719      1.4665894      0.76706672   
      5200  -6110.5173     -6178.3491      67.831787      11355.324      405.22745      8860.7267      1.4585032      0.76706672   
      5300  -6109.0481     -6180.6325      71.584386      8388.4109      427.64549      8900.995       1.4519049      0.76706672   
      5400  -6110.8976     -6180.7728      69.8752        7868.8428      417.43481      8925.3962      1.4479355      0.76706672   
      5500  -6111.2484     -6176.8425      65.594131      9885.6057      391.85968      8932.4334      1.4467948      0.76706672   
      5600  -6110.2823     -6178.1523      67.869924      7234.1759      405.45527      8922.7066      1.4483719      0.76706672   
      5700  -6113.0467     -6179.7334      66.686733      12399.928      398.38689      8898.3215      1.4523411      0.76706672   
      5800  -6112.2624     -6181.8229      69.560437      13944.06       415.55441      8860.9228      1.4584709      0.76706672   
      5900  -6110.0665     -6180.3765      70.310031      19026.456      420.03249      8814.0962      1.4662193      0.76706672   
      6000  -6111.4508     -6181.166       69.715152      18481.776      416.47868      8768.1423      1.4739037      0.75611334   
      6100  -6111.9569     -6180.8152      68.85835       14513.011      411.36014      8733.1413      1.4798109      0.75611334   
      6200  -6110.5406     -6181.3247      70.784099      15255.028      422.86457      8716.2306      1.482682       0.75611334   
      6300  -6111.9159     -6179.2866      67.370663      17122.755      402.47269      8721.384       1.4818059      0.75611334   
      6400  -6112.7755     -6181.4242      68.648744      12375.477      410.10795      8744.5136      1.4778864      0.75611334   
      6500  -6114.0921     -6181.0519      66.959812      12916.243      400.01826      8778.8507      1.4721059      0.75611334   
      6600  -6114.8204     -6180.9154      66.095037      17202.769      394.85209      8819.5791      1.4653078      0.75611334   
      6700  -6114.6998     -6179.0832      64.383383      14350.977      384.62666      8857.5         1.4590345      0.75611334   
      6800  -6113.333      -6181.77        68.437044      14695.96       408.84326      8888.9178      1.4538775      0.75611334   
      6900  -6113.9056     -6180.9204      67.014762      16486.813      400.34653      8906.0221      1.4510853      0.75611334   
      7000  -6112.501      -6181.5449      69.043991      12971.006      412.46916      8908.0062      1.4507621      0.78610124   
      7100  -6112.5754     -6177.7088      65.133462      12266.755      389.10763      8897.7855      1.4524286      0.78610124   
      7200  -6108.535      -6179.1485      70.61349       14457.334      421.84535      8876.8207      1.4558588      0.78610124   
      7300  -6108.7808     -6179.4888      70.708057      13198.031      422.41029      8851.8288      1.4599693      0.78610124   
      7400  -6110.9361     -6182.9246      71.988538      14646.545      430.0599       8827.7315      1.4639546      0.78610124   
      7500  -6109.2324     -6178.6858      69.453484      16465.756      414.91547      8800.231       1.4685294      0.78610124   
      7600  -6109.0543     -6177.9733      68.919021      17566.444      411.72259      8781.2838      1.471698       0.78610124   
      7700  -6108.4155     -6178.3293      69.913779      18245.82       417.66528      8775.7724      1.4726223      0.78610124   
      7800  -6107.3264     -6178.8027      71.476261      19373.027      426.99955      8785.29        1.4710269      0.78610124   
      7900  -6107.3449     -6181.4903      74.145362      18624.055      442.94477      8809.167       1.4670397      0.78610124   
      8000  -6107.6237     -6176.3839      68.760141      17301.289      410.77344      8846.7166      1.4608129      0.79742553   
      8100  -6108.3504     -6179.4334      71.083057      13529.157      424.65055      8893.9884      1.4530486      0.79742553   
      8200  -6109.4834     -6179.215       69.731564      11970.535      416.57672      8939.1154      1.4457133      0.79742553   
      8300  -6109.5591     -6177.8139      68.254834      10974.455      407.75473      8971.338       1.4405207      0.79742553   
      8400  -6108.4829     -6177.6525      69.169569      16421.573      413.21936      8988.6462      1.4377469      0.79742553   
      8500  -6110.699      -6176.9952      66.296242      14770.576      396.05409      8989.0769      1.437678       0.79742553   
      8600  -6111.5688     -6178.5383      66.969476      12972.268      400.076        8969.7298      1.4407789      0.79742553   
      8700  -6109.877      -6179.1645      69.287546      13508.703      413.92415      8929.8546      1.4472126      0.79742553   
      8800  -6109.5438     -6182.8972      73.353362      12504.68       438.21337      8876.3943      1.4559288      0.79742553   
      8900  -6106.6449     -6177.3572      70.712358      15393.938      422.43599      8817.7844      1.465606       0.79742553   
      9000  -6105.7287     -6176.2219      70.493135      21197.561      421.12635      8774.3151      1.4728669      0.87478176   
      9100  -6107.4899     -6179.3411      71.85115       17456.315      429.23914      8753.6431      1.4763451      0.87478176   
      9200  -6108.0498     -6177.8834      69.833566      19676.769      417.18608      8754.6839      1.4761696      0.87478176   
      9300  -6109.1626     -6177.2008      68.038205      22552.95       406.46059      8779.2622      1.4720369      0.87478176   
      9400  -6110.0077     -6179.8584      69.850747      19295.652      417.28872      8823.9986      1.4645739      0.87478176   
      9500  -6109.1647     -6181.0311      71.866341      14549.038      429.32989      8877.9731      1.4556699      0.87478176   
      9600  -6107.7055     -6177.1712      69.465667      11378.141      414.98825      8930.1022      1.4471724      0.87478176   
      9700  -6109.4138     -6176.1209      66.707117      13453.534      398.50866      8974.5476      1.4400055      0.87478176   
      9800  -6111.4367     -6179.4453      68.00856       16542.056      406.28349      9008.3118      1.4346082      0.87478176   
      9900  -6110.5683     -6177.4851      66.916818      11416.912      399.76142      9022.626       1.4323322      0.87478176   
     10000  -6111.5975     -6179.8425      68.244976      12906.889      407.69584      9014.0905      1.4336885      0.71161057   
     10100  -6112.7402     -6178.5066      65.766398      15457.943      392.8888       8979.5342      1.4392058      0.71161057   
     10200  -6111.1055     -6178.8776      67.772098      13334.266      404.87086      8925.5432      1.4479116      0.71161057   
     10300  -6112.1082     -6179.3279      67.219634      12707.415      401.57044      8860.6674      1.4585129      0.71161057   
     10400  -6110.1439     -6179.3341      69.190272      14465.287      413.34304      8800.0587      1.4685582      0.71161057   
     10500  -6110.7421     -6178.5456      67.80348       18913.133      405.05834      8754.8183      1.4761469      0.71161057   
     10600  -6110.9844     -6179.193       68.208526      18844.921      407.47808      8729.9955      1.4803442      0.71161057   
     10700  -6110.4407     -6179.1527      68.712034      16660.027      410.48605      8727.619       1.4807473      0.71161057   
     10800  -6112.588      -6181.6254      69.037405      18623.098      412.42981      8747.2904      1.4774173      0.71161057   
     10900  -6111.7832     -6179.348       67.564772      17109.79       403.6323       8782.9381      1.4714208      0.71161057   
     11000  -6111.0671     -6180.2397      69.172596      12211.44       413.23745      8830.7449      1.463455       0.81539702   
     11100  -6111.6796     -6177.8975      66.217917      12901.474      395.58618      8883.4124      1.4547786      0.81539702   
     11200  -6109.6045     -6179.0203      69.415801      14105.013      414.69036      8935.7269      1.4462615      0.81539702   
     11300  -6109.0539     -6176.7653      67.711367      14012.625      404.50805      8979.0746      1.4392795      0.81539702   
     11400  -6109.8971     -6179.209       69.311945      14099.167      414.06991      9003.1221      1.4354351      0.81539702   
     11500  -6108.8406     -6176.3771      67.536548      11260.282      403.46368      9006.1765      1.4349483      0.81539702   
     11600  -6109.3269     -6178.9689      69.642026      11637.887      416.04182      8993.5854      1.4369573      0.81539702   
     11700  -6109.2999     -6178.9089      69.60894       10771.119      415.84417      8964.8999      1.4415552      0.81539702   
     11800  -6109.226      -6178.186       68.959969      14198.908      411.96721      8925.8586      1.4478605      0.81539702   
     11900  -6108.3312     -6178.5797      70.248533      15606.386      419.6651       8886.3671      1.4542948      0.81539702   
     12000  -6108.0244     -6178.5231      70.498749      18788.498      421.15989      8852.8206      1.4598057      0.92035524   
     12100  -6107.3067     -6176.4187      69.111991      17085.639      412.87539      8829.797       1.4636121      0.92035524   
     12200  -6108.9507     -6178.0247      69.073988      11964.733      412.64836      8822.6284      1.4648013      0.92035524   
     12300  -6111.9619     -6179.9905      68.028667      14131.688      406.4036       8830.1277      1.4635573      0.92035524   
     12400  -6112.2296     -6179.755       67.525416      15789.48       403.39718      8846.7575      1.4608062      0.92035524   
     12500  -6111.1744     -6180.1823      69.007903      12367.931      412.25357      8869.9113      1.4569929      0.92035524   
     12600  -6111.0498     -6179.1955      68.14573       13915.98       407.10294      8895.87        1.4527413      0.92035524   
     12700  -6111.2375     -6180.3957      69.158218      11561.685      413.15155      8919.5314      1.4488875      0.92035524   
     12800  -6109.5604     -6176.9752      67.414873      13329.539      402.7368       8936.4521      1.4461441      0.92035524   
     12900  -6113.4826     -6179.2701      65.787429      10055.24       393.01444      8946.2147      1.444566       0.92035524   
     13000  -6114.0145     -6178.8703      64.855831      12316.324      387.44907      8943.918       1.444937       0.71576585   
     13100  -6114.0879     -6179.9198      65.831896      11563.183      393.28009      8930.2392      1.4471502      0.71576585   
     13200  -6113.453      -6180.8209      67.367932      17497.791      402.45637      8903.1641      1.4515511      0.71576585   
     13300  -6112.8105     -6180.3655      67.555005      13476.945      403.57395      8867.571       1.4573774      0.71576585   
     13400  -6110.3091     -6180.052       69.742911      15747.911      416.64451      8830.3175      1.4635258      0.71576585   
     13500  -6110.7583     -6179.8148      69.056514      19276.016      412.54397      8799.6304      1.4686296      0.71576585   
     13600  -6109.9227     -6180.0909      70.168223      19494.529      419.18533      8786.6821      1.4707938      0.71576585   
     13700  -6112.5612     -6178.7607      66.199501      17107.213      395.47616      8791.8526      1.4699289      0.71576585   
     13800  -6113.7819     -6181.0687      67.286777      15986.568      401.97155      8809.1753      1.4670383      0.71576585   
     13900  -6113.6774     -6182.3856      68.708248      14958.924      410.46343      8832.1061      1.4632295      0.71576585   
     14000  -6113.8373     -6181.4433      67.605991      17434.83       403.87854      8855.8937      1.4592991      0.83105144   
     14100  -6113.2452     -6179.9569      66.711771      17951.49       398.53646      8878.4529      1.4555912      0.83105144   
     14200  -6111.1034     -6179.3881      68.284632      18311.556      407.93274      8895.7399      1.4527626      0.83105144   
     14300  -6112.8384     -6179.351       66.512552      15197.825      397.34633      8908.3625      1.4507041      0.83105144   
     14400  -6114.6044     -6183.6748      69.070388      13695.642      412.62685      8912.0295      1.4501072      0.83105144   
     14500  -6115.5334     -6182.2441      66.710727      12896.534      398.53023      8901.417       1.451836       0.83105144   
     14600  -6113.9141     -6180.3022      66.388079      13090.747      396.60272      8878.7831      1.4555371      0.83105144   
     14700  -6112.9901     -6180.5298      67.539709      18649.291      403.48257      8849.3482      1.4603785      0.83105144   
     14800  -6110.674      -6181.6559      70.981852      18788.366      424.04595      8821.114       1.4650528      0.83105144   
     14900  -6110.8747     -6179.5769      68.702223      21196.851      410.42743      8799.5904      1.4686363      0.83105144   
     15000  -6109.3261     -6179.2132      69.88707       20379.472      417.50572      8788.8826      1.4704256      0.74503528   
     15100  -6109.9673     -6180.2822      70.314916      19693.195      420.06167      8793.8649      1.4695925      0.74503528   
     15200  -6107.3423     -6177.9518      70.609458      16657.597      421.82126      8813.9758      1.4662393      0.74503528   
     15300  -6110.553      -6180.7304      70.177409      13584.619      419.2402       8846.7502      1.4608074      0.74503528   
     15400  -6111.0015     -6178.4768      67.475228      13923.942      403.09736      8882.2571      1.4549678      0.74503528   
     15500  -6110.8827     -6179.7525      68.869835      13946.281      411.42875      8916.8562      1.4493222      0.74503528   
     15600  -6110.6089     -6180.5659      69.95701       11493.672      417.92354      8944.8595      1.4447849      0.74503528   
     15700  -6111.3132     -6176.769       65.455829      11210.739      391.03346      8963.1903      1.4418301      0.74503528   
     15800  -6112.6211     -6177.9465      65.325362      9811.1803      390.25405      8969.7264      1.4407795      0.74503528   
     15900  -6111.0074     -6179.9789      68.97149       12299.923      412.03603      8958.144       1.4426423      0.74503528   
     16000  -6109.9566     -6179.7713      69.814653      15337.876      417.0731       8928.0068      1.4475121      0.73052913   
     16100  -6110.938      -6179.1812      68.2432        15790.457      407.68523      8887.9689      1.4540327      0.73052913   
     16200  -6109.5127     -6180.8457      71.332942      19255.177      426.14336      8843.4734      1.4613487      0.73052913   
     16300  -6108.4672     -6179.9338      71.466596      20366.534      426.94181      8802.2871      1.4681864      0.73052913   
     16400  -6110.7329     -6180.057       69.324082      18692.367      414.14243      8772.7578      1.4731283      0.73052913   
     16500  -6109.3377     -6181.0296      71.691948      15686.204      428.28807      8762.069       1.4749254      0.73052913   
     16600  -6110.8246     -6179.3834      68.55875       17388.339      409.57033      8772.3438      1.4731978      0.73052913   
     16700  -6111.3763     -6181.2843      69.908065      16649.89       417.63114      8803.5472      1.4679762      0.73052913   
     16800  -6114.3179     -6182.7792      68.461322      12528.605      408.98829      8848.9751      1.4604401      0.73052913   
     16900  -6111.1566     -6178.7699      67.613346      16480.785      403.92248      8898.3535      1.4523359      0.73052913   
     17000  -6112.9444     -6179.3711      66.426665      13476.477      396.83324      8943.7642      1.4449618      0.76542083   
     17100  -6111.4726     -6181.1801      69.707525      13582.067      416.43312      8977.566       1.4395213      0.76542083   
     17200  -6113.2347     -6179.418       66.183273      14233.398      395.37922      8993.6138      1.4369527      0.76542083   
     17300  -6111.5566     -6177.7008      66.144228      12356.818      395.14596      8990.094       1.4375153      0.76542083   
     17400  -6110.6019     -6179.0528      68.450862      13539.811      408.9258       8971.4984      1.4404949      0.76542083   
     17500  -6110.5231     -6178.4591      67.936027      15262.723      405.85017      8938.324       1.4458413      0.76542083   
     17600  -6108.9308     -6177.5221      68.591275      13246.873      409.76463      8899.0455      1.4522229      0.76542083   
     17700  -6111.4922     -6181.0028      69.510635      13565.45       415.25689      8858.9314      1.4587987      0.76542083   
     17800  -6112.378      -6179.4215      67.043445      20276.987      400.51789      8820.2954      1.4651888      0.76542083   
     17900  -6112.1043     -6179.2689      67.164617      19429.826      401.24177      8789.0312      1.4704007      0.76542083   
     18000  -6112.0284     -6180.8646      68.836219      14001.11       411.22793      8773.1461      1.4730631      0.76535768   
     18100  -6114.1092     -6179.9056      65.796445      14616.9        393.0683       8771.2159      1.4733873      0.76535768   
     18200  -6113.657      -6184.69        71.033004      13140.554      424.35153      8780.423       1.4718423      0.76535768   
     18300  -6112.4571     -6180.7626      68.305507      17147.029      408.05745      8794.2164      1.4695338      0.76535768   
     18400  -6111.8318     -6179.8667      68.03483       15708.87       406.44043      8814.5106      1.4661504      0.76535768   
     18500  -6112.6817     -6179.5119      66.830153      17766.99       399.24368      8839.9498      1.4619311      0.76535768   
     18600  -6113.0479     -6180.5256      67.477696      13297.377      403.1121       8868.1399      1.4572839      0.76535768   
     18700  -6114.5205     -6182.0179      67.497409      11039.318      403.22987      8889.5106      1.4537806      0.76535768   
     18800  -6115.4233     -6181.5033      66.079934      13296.564      394.76186      8899.1607      1.4522041      0.76535768   
     18900  -6118.1262     -6182.8934      64.767275      13728.769      386.92003      8892.9859      1.4532125      0.76535768   
     19000  -6116.145      -6181.2717      65.126763      13213.607      389.06762      8869.6817      1.4570306      0.77179804   
     19100  -6115.588      -6182.1112      66.523221      14310.581      397.41007      8834.9539      1.4627578      0.77179804   
     19200  -6113.4079     -6181.9941      68.586228      17463.941      409.73448      8795.3794      1.4693394      0.77179804   
     19300  -6112.2906     -6181.2205      68.929954      18755.06       411.7879       8760.8768      1.4751261      0.77179804   
     19400  -6112.4321     -6182.2386      69.806447      17915.301      417.02407      8738.3586      1.4789274      0.77179804   
     19500  -6112.1654     -6181.668       69.502552      19089.336      415.2086       8728.8007      1.4805468      0.77179804   
     19600  -6111.2053     -6178.8253      67.620042      15131.332      403.96248      8734.9883      1.479498       0.77179804   
     19700  -6110.2506     -6179.3102      69.059553      14213.142      412.56212      8759.2061      1.4754074      0.77179804   
     19800  -6109.8304     -6178.3078      68.477306      16411.196      409.08378      8800.4185      1.4684981      0.77179804   
     19900  -6107.8673     -6179.6275      71.760229      14852.025      428.69597      8852.3912      1.4598765      0.77179804   
     20000  -6111.7512     -6180.9059      69.154742      13202.416      413.13078      8904.0952      1.4513993      0.76167454   
     20100  -6112.0139     -6176.8104      64.79647       11868.466      387.09445      8942.5846      1.4451524      0.76167454   
     20200  -6112.8835     -6178.9181      66.034526      9763.6961      394.4906       8959.9534      1.442351       0.76167454   
     20300  -6111.8915     -6178.5893      66.697843      14724.69       398.45326      8953.3854      1.4434091      0.76167454   
     20400  -6112.4302     -6180.6169      68.1867        14258.03       407.3477       8926.5085      1.4477551      0.76167454   
     20500  -6113.737      -6181.9198      68.182801      11631.158      407.32441      8885.2097      1.4544843      0.76167454   
     20600  -6112.9938     -6179.4013      66.407508      16070.465      396.7188       8835.7331      1.4626288      0.76167454   
     20700  -6113.5671     -6182.1801      68.612975      21373.701      409.89427      8784.2534      1.4712005      0.76167454   
     20800  -6113.4755     -6180.8646      67.389067      19671.827      402.58264      8739.6277      1.4787126      0.76167454   
     20900  -6112.7167     -6180.5133      67.796573      17141.7        405.01708      8710.8031      1.4836058      0.76167454   
     21000  -6112.0836     -6181.2908      69.207159      16287.658      413.44393      8699.8772      1.485469       0.82205039   
     21100  -6113.69       -6180.4169      66.726896      14964.848      398.62682      8706.7791      1.4842915      0.82205039   
     21200  -6114.5713     -6182.7429      68.171611      17026.411      407.25755      8732.6833      1.4798885      0.82205039   
     21300  -6117.81       -6182.8161      65.006033      16642.766      388.34637      8768.2278      1.4738894      0.82205039   
     21400  -6115.2095     -6182.2193      67.009879      15586.887      400.31736      8804.5653      1.4678065      0.82205039   
     21500  -6115.9339     -6182.991       67.057095      13511.988      400.59943      8837.8893      1.462272       0.82205039   
     21600  -6113.3246     -6179.8613      66.536746      16337.689      397.49086      8864.588       1.4578679      0.82205039   
     21700  -6112.6815     -6180.3074      67.625854      14736.787      403.9972       8881.061       1.4551637      0.82205039   
     21800  -6111.8908     -6180.5049      68.614126      15249.436      409.90114      8887.0736      1.4541792      0.82205039   
     21900  -6111.3757     -6180.5443      69.168548      15230.338      413.21326      8881.9611      1.4550163      0.82205039   
     22000  -6111.4406     -6178.0263      66.585714      16108.257      397.7834       8867.7204      1.4573529      0.77725155   
     22100  -6111.6948     -6178.1218      66.426998      16068.085      396.83523      8851.2943      1.4600574      0.77725155   
     22200  -6108.9973     -6179.9716      70.974329      17275.121      424.00101      8833.6888      1.4629673      0.77725155   
     22300  -6109.7284     -6178.9794      69.250997      17137.367      413.70581      8818.4149      1.4655012      0.77725155   
     22400  -6109.0287     -6176.3816      67.352971      14215.762      402.367        8811.0332      1.466729       0.77725155   
     22500  -6108.8874     -6177.2994      68.412024      19510.35       408.69378      8813.7433      1.466278       0.77725155   
     22600  -6108.3081     -6177.6449      69.336792      18855.699      414.21835      8825.0305      1.4644026      0.77725155   
     22700  -6106.7728     -6176.6782      69.905419      18730.519      417.61534      8842.1618      1.4615654      0.77725155   
     22800  -6107.7506     -6179.6974      71.94681       13401.873      429.81061      8865.2402      1.4577606      0.77725155   
     22900  -6108.3917     -6177.673       69.28131       15589.072      413.8869       8889.4044      1.453798       0.77725155   
     23000  -6108.3946     -6176.912       68.517459      16248.271      409.32365      8911.0527      1.4502661      0.74096025   
     23100  -6110.0183     -6179.8471      69.82883       13666.886      417.15779      8924.3982      1.4480974      0.74096025   
     23200  -6108.9219     -6180.2948      71.372929      12331.412      426.38225      8922.9113      1.4483387      0.74096025   
     23300  -6106.8473     -6177.1265      70.279154      12661.286      419.84803      8905.9344      1.4510996      0.74096025   
     23400  -6107.6505     -6177.7791      70.128628      16518.531      418.94878      8880.5152      1.4552532      0.74096025   
     23500  -6104.5864     -6177.3945      72.808043      14464.832      434.95563      8854.7692      1.4594844      0.74096025   
     23600  -6107.3764     -6176.2975      68.921068      16561.811      411.73482      8834.0677      1.4629045      0.74096025   
     23700  -6109.1594     -6176.4626      67.303168      15698.766      402.06947      8821.062       1.4650615      0.74096025   
     23800  -6109.6467     -6178.6607      69.014036      17069.923      412.29021      8816.4385      1.4658298      0.74096025   
     23900  -6110.1329     -6179.675       69.542182      13587.902      415.44535      8821.135       1.4650493      0.74096025   
     24000  -6111.281      -6180.4616      69.180597      15757.106      413.28524      8832.4856      1.4631666      0.75961994   
     24100  -6111.0022     -6177.7512      66.749038      13696.67       398.7591       8845.8903      1.4609494      0.75961994   
     24200  -6110.1466     -6178.5265      68.379854      14417.723      408.5016       8863.9387      1.4579746      0.75961994   
     24300  -6109.8113     -6179.6137      69.802315      11225.402      416.99939      8884.8526      1.4545427      0.75961994   
     24400  -6108.9956     -6175.7552      66.759567      11352.956      398.822        8906.3854      1.4510261      0.75961994   
     24500  -6109.6627     -6177.6474      67.984714      9932.6806      406.14103      8925.1643      1.4479731      0.75961994   
     24600  -6110.2399     -6179.8322      69.592257      10182.135      415.7445       8933.1815      1.4466736      0.75961994   
     24700  -6110.1441     -6177.3488      67.204716      14269.011      401.48132      8927.3034      1.4476262      0.75961994   
     24800  -6111.255      -6178.0484      66.793485      14025.962      399.02462      8910.0953      1.450422       0.75961994   
     24900  -6112.6263     -6180.0704      67.444089      13981.302      402.91134      8882.6869      1.4548974      0.75961994   
     25000  -6113.0231     -6179.0314      66.008207      12931.573      394.33337      8846.2954      1.4608825      0.73963869   
     25100  -6113.1159     -6178.8925      65.776596      15396.319      392.94972      8805.664       1.4676233      0.73963869   
     25200  -6114.1303     -6181.6055      67.475185      17453.826      403.0971       8768.9911      1.4737611      0.73963869   
     25300  -6114.4364     -6183.5391      69.102753      14739.956      412.8202       8740.4635      1.4785712      0.73963869   
     25400  -6113.319      -6180.8411      67.522135      17768.467      403.37758      8724.6041      1.4812589      0.73963869   
     25500  -6112.2599     -6180.7489      68.48905       19122.522      409.15394      8730.697       1.4802252      0.73963869   
     25600  -6112.1846     -6180.9566      68.771921      16417.547      410.84381      8758.1554      1.4755844      0.73963869   
     25700  -6113.1967     -6181.1246      67.927871      12629.711      405.80145      8804.8773      1.4677545      0.73963869   
     25800  -6112.6208     -6180.9029      68.282169      10867.704      407.91803      8866.4507      1.4575616      0.73963869   
     25900  -6114.4647     -6183.0296      68.564897      12788.577      409.60705      8932.1867      1.4468347      0.73963869   
     26000  -6114.8905     -6182.293       67.402585      13695.121      402.66339      8983.9094      1.4385049      0.84844762   
     26100  -6111.4995     -6179.4155      67.916076      13958.239      405.73099      9011.0875      1.4341663      0.84844762   
     26200  -6114.8824     -6179.4065      64.52409       14483.188      385.46724      9014.0842      1.4336895      0.84844762   
     26300  -6111.7088     -6179.0765      67.367768      14105.757      402.45539      8991.4147      1.4373042      0.84844762   
     26400  -6110.2916     -6180.8067      70.51518       14584.314      421.25805      8942.8917      1.4451028      0.84844762   
     26500  -6108.8611     -6178.5094      69.648319      15477.58       416.07942      8880.8925      1.4551913      0.84844762   
     26600  -6107.433      -6176.6152      69.182138      19279.229      413.29445      8823.2774      1.4646936      0.84844762   
     26700  -6107.7915     -6178.4464      70.654883      20356.498      422.09264      8780.1973      1.4718801      0.84844762   
     26800  -6107.0358     -6178.2834      71.247621      22145.407      425.63366      8756.3492      1.4758888      0.84844762   
     26900  -6106.9257     -6176.4915      69.56577       20216.532      415.58627      8757.6947      1.4756621      0.84844762   
     27000  -6111.109      -6180.3305      69.221487      16670.809      413.52952      8784.0659      1.4712319      0.78456872   
     27100  -6111.0348     -6179.5701      68.535316      20369.568      409.43033      8825.7092      1.46429        0.78456872   
     27200  -6111.2449     -6180.6694      69.424509      19079.325      414.74238      8878.1011      1.4556489      0.78456872   
     27300  -6111.7895     -6180.953       69.163544      11638.528      413.18337      8931.6007      1.4469296      0.78456872   
     27400  -6109.5443     -6178.0806      68.536296      16582.589      409.43619      8974.8579      1.4399557      0.78456872   
     27500  -6109.958      -6177.4809      67.52286       15229.86       403.38191      9002.8865      1.4354727      0.78456872   
     27600  -6111.2049     -6180.271       69.066106      10002.2        412.60127      9009.7325      1.434382       0.78456872   
     27700  -6108.4098     -6175.9225      67.512736      13765.992      403.32143      8993.7399      1.4369326      0.78456872   
     27800  -6109.372      -6178.6626      69.290657      15949.269      413.94274      8963.2858      1.4418148      0.78456872   
     27900  -6109.331      -6176.7262      67.395185      14802.006      402.61919      8923.1819      1.4482948      0.78456872   
     28000  -6108.9799     -6178.5322      69.552369      17941.4        415.50621      8878.3902      1.4556015      0.7272854    
     28100  -6107.8422     -6178.5123      70.670063      20365.434      422.18332      8841.5249      1.4616707      0.7272854    
     28200  -6110.2067     -6179.1826      68.975951      20300.044      412.06268      8817.6853      1.4656225      0.7272854    
     28300  -6109.3043     -6178.778       69.473728      14498.224      415.03641      8807.8537      1.4672585      0.7272854    
     28400  -6108.5248     -6177.8247      69.299843      20305.434      413.99762      8814.0791      1.4662221      0.7272854    
     28500  -6107.3917     -6178.8154      71.423697      19183.581      426.68554      8835.1427      1.4627266      0.7272854    
     28600  -6107.1642     -6175.6834      68.519239      16670.624      409.33429      8868.7755      1.4571795      0.7272854    
     28700  -6107.4936     -6177.5737      70.080185      11224.785      418.65939      8916.5026      1.4493797      0.7272854    
     28800  -6108.0628     -6176.3678      68.305036      12822.663      408.05464      8967.2536      1.4411768      0.7272854    
     28900  -6107.6889     -6178.3149      70.626054      10286.238      421.92041      9014.2638      1.4336609      0.7272854    
     29000  -6107.8569     -6176.6697      68.812825      11502.934      411.08817      9047.0421      1.4284666      0.64522337   
     29100  -6108.9817     -6178.7569      69.775281      8863.6668      416.83789      9060.4724      1.4263492      0.64522337   
     29200  -6109.7199     -6177.389       67.669016      9479.776       404.25505      9050.1176      1.4279812      0.64522337   
     29300  -6109.8266     -6177.9695      68.142856      11722.582      407.08577      9014.8995      1.4335598      0.64522337   
     29400  -6110.765      -6178.0368      67.271845      12483.743      401.88235      8964.9102      1.4415535      0.64522337   
     29500  -6108.0014     -6178.7908      70.789444      16406.826      422.8965       8908.3091      1.4507128      0.64522337   
     29600  -6109.5735     -6178.9544      69.380848      18671.681      414.48154      8855.918       1.4592951      0.64522337   
     29700  -6107.1052     -6177.8486      70.74339       16560.52       422.62137      8815.6848      1.4659551      0.64522337   
     29800  -6108.4864     -6176.6652      68.178752      17087.911      407.30022      8792.8029      1.46977        0.64522337   
     29900  -6108.7496     -6179.2978      70.548264      17193.885      421.45569      8790.5959      1.470139       0.64522337   
     30000  -6108.8585     -6179.1983      70.339805      17645.318      420.21036      8805.877       1.4675878      0.77856513   
     30100  -6107.7654     -6179.532       71.766615      16671.158      428.73413      8837.8617      1.4622765      0.77856513   
     30200  -6110.3121     -6179.2982      68.986063      13235.675      412.1231       8880.5509      1.4552473      0.77856513   
     30300  -6109.441      -6179.4285      69.987433      13563.8        418.10528      8922.9949      1.4483252      0.77856513   
     30400  -6111.4328     -6177.9936      66.560752      16732.79       397.63427      8960.7287      1.4422262      0.77856513   
     30500  -6110.7877     -6180.5741      69.786317      13430.444      416.90382      8985.9109      1.4381845      0.77856513   
     30600  -6110.8384     -6179.78        68.941583      12167.536      411.85737      8992.5948      1.4371156      0.77856513   
     30700  -6112.4698     -6178.3573      65.887522      11660.619      393.6124       8980.9081      1.4389856      0.77856513   
     30800  -6109.4403     -6178.4414      69.001169      12140.19       412.21334      8955.1238      1.4431289      0.77856513   
     30900  -6110.7384     -6179.6575      68.9191        12660.876      411.72306      8919.7292      1.4488554      0.77856513   
     31000  -6112.9573     -6181.0638      68.106538      14915.71       406.86881      8877.4546      1.4557549      0.84527509   
     31100  -6113.2198     -6181.9347      68.714961      14185.327      410.50353      8835.149       1.4627255      0.84527509   
     31200  -6113.4623     -6179.9444      66.482065      17477.917      397.1642       8797.0663      1.4690577      0.84527509   
     31300  -6111.3126     -6179.7053      68.392668      21749.46       408.57815      8771.7851      1.4732917      0.84527509   
     31400  -6111.8334     -6181.787       69.95359       19457.214      417.90311      8767.0362      1.4740897      0.84527509   
     31500  -6112.5231     -6179.2181      66.694958      18371.916      398.43602      8778.145       1.4722242      0.84527509   
     31600  -6112.8936     -6180.0861      67.192515      17247.809      401.40843      8803.1903      1.4680357      0.84527509   
     31700  -6112.5648     -6181.933       69.368236      12401.13       414.4062       8839.4655      1.4620112      0.84527509   
     31800  -6112.0587     -6178.5725      66.51381       10885.344      397.35385      8874.9145      1.4561715      0.84527509   
     31900  -6110.8465     -6182.1974      71.350867      12315.786      426.25045      8907.4171      1.4508581      0.84527509   
     32000  -6109.4005     -6179.2205      69.820028      16148.089      417.1052       8931.2069      1.4469935      0.7152322    
     32100  -6109.5751     -6177.2715      67.696434      15366.791      404.41885      8947.4725      1.444363       0.7152322    
     32200  -6108.344      -6178.1777      69.833687      13881.949      417.18681      8957.4935      1.4427471      0.7152322    
     32300  -6108.4884     -6177.143       68.654634      12422.944      410.14314      8961.2892      1.442136       0.7152322    
     32400  -6109.9617     -6178.3305      68.368792      13441.912      408.43551      8959.8972      1.4423601      0.7152322    
     32500  -6112.6546     -6178.6303      65.975797      14632.935      394.13975      8948.8957      1.4441333      0.7152322    
     32600  -6112.6676     -6178.7408      66.073204      13037.06       394.72166      8927.3104      1.447625       0.7152322    
     32700  -6110.7352     -6179.309       68.573735      13544.498      409.65985      8895.6267      1.4527811      0.7152322    
     32800  -6109.0659     -6178.1258      69.059863      17498.741      412.56398      8862.3048      1.4582435      0.7152322    
     32900  -6107.0577     -6177.6264      70.568674      21453.561      421.57762      8840.5292      1.4618353      0.7152322    
     33000  -6108.8959     -6179.1835      70.28761       14562.725      419.89854      8828.409       1.4638422      0.91277916   
     33100  -6108.327      -6177.5542      69.227229      13114.215      413.56382      8823.7216      1.4646199      0.91277916   
     33200  -6107.6272     -6178.0706      70.443347      15246.319      420.82892      8832.6802      1.4631344      0.91277916   
     33300  -6107.0931     -6177.7925      70.69944       18170.95       422.35882      8852.8281      1.4598044      0.91277916   
     33400  -6108.4593     -6178.7629      70.303577      17706.682      419.99393      8882.6227      1.4549079      0.91277916   
     33500  -6109.0276     -6177.6972      68.669596      14645.419      410.23252      8918.2009      1.4491037      0.91277916   
     33600  -6107.3316     -6177.9948      70.663195      15623.21       422.14229      8954.1506      1.4432857      0.91277916   
     33700  -6106.4973     -6175.51        69.012686      15282.106      412.28214      8986.745       1.438051       0.91277916   
     33800  -6108.4774     -6176.7228      68.245414      11542.714      407.69846      9008.8056      1.4345296      0.91277916   
     33900  -6109.3766     -6178.9866      69.610025      11647.708      415.85065      9011.6375      1.4340788      0.91277916   
     34000  -6107.5746     -6176.6126      69.037963      13177.158      412.43315      8995.4988      1.4366516      0.76404842   
     34100  -6106.0712     -6175.5446      69.473349      12488.595      415.03415      8965.6967      1.4414271      0.76404842   
     34200  -6104.354      -6175.0886      70.734634      16858.55       422.56907      8929.2085      1.4473173      0.76404842   
     34300  -6106.7287     -6175.0817      68.352951      15086.598      408.34088      8895.5222      1.4527981      0.76404842   
     34400  -6108.1        -6180.9152      72.815198      13582.307      434.99837      8868.8132      1.4571733      0.76404842   
     34500  -6110.0561     -6179.6971      69.640951      15767.391      416.0354       8847.2509      1.4607247      0.76404842   
     34600  -6111.0823     -6179.3016      68.219313      13977.973      407.54253      8833.5001      1.4629985      0.76404842   
     34700  -6111.0383     -6181.2241      70.18572       13520.996      419.28985      8830.4184      1.4635091      0.76404842   
     34800  -6111.1162     -6179.6499      68.533735      14276.484      409.42089      8834.9049      1.4627659      0.76404842   
     34900  -6111.3368     -6179.844       68.507218      15625.123      409.26247      8848.0878      1.4605865      0.76404842   
     35000  -6110.8141     -6177.8264      67.012298      16452.471      400.33181      8866.8576      1.4574947      0.7811416    
     35100  -6112.4834     -6181.6031      69.119697      12936.828      412.92143      8890.2839      1.4536541      0.7811416    
     35200  -6112.0401     -6179.7078      67.667634      11365.304      404.24679      8911.415       1.4502072      0.7811416    
     35300  -6114.4868     -6180.046       65.559203      8983.4007      391.65101      8928.5384      1.4474259      0.7811416    
     35400  -6112.9763     -6180.4954      67.519022      12008.894      403.35899      8937.05        1.4460474      0.7811416    
     35500  -6111.8419     -6180.5605      68.718579      15560.334      410.52515      8931.2746      1.4469825      0.7811416    
     35600  -6113.6167     -6182.8104      69.193707      17029.091      413.36356      8914.9791      1.4496274      0.7811416    
     35700  -6112.3086     -6180.5651      68.256531      17094.414      407.76487      8888.428       1.4539577      0.7811416    
     35800  -6111.7527     -6179.4202      67.66747       20607.492      404.24581      8855.6029      1.459347       0.7811416    
     35900  -6111.886      -6181.0666      69.180588      13435.094      413.28519      8821.4799      1.464992       0.7811416    
     36000  -6110.8901     -6181.8347      70.944561      13470.213      423.82317      8790.7803      1.4701082      0.75621465   
     36100  -6112.6508     -6180.9634      68.312546      16199.181      408.0995       8770.0576      1.4735819      0.75621465   
     36200  -6115.595      -6182.5475      66.952468      19168.834      399.97439      8761.7838      1.4749734      0.75621465   
     36300  -6111.9836     -6180.4794      68.495769      18168.38       409.19407      8767.6267      1.4739904      0.75621465   
     36400  -6113.6334     -6181.072       67.438648      16741.551      402.87883      8790.8718      1.4700929      0.75621465   
     36500  -6112.3759     -6179.4364      67.060564      16410.028      400.62015      8827.0787      1.4640628      0.75621465   
     36600  -6111.0647     -6179.248       68.183339      15948.873      407.32762      8871.2002      1.4567812      0.75621465   
     36700  -6109.5977     -6179.2703      69.672603      11873.074      416.22449      8916.1968      1.4494294      0.75621465   
     36800  -6110.3221     -6177.6272      67.305098      11517.929      402.081        8952.7589      1.4435101      0.75621465   
     36900  -6108.5998     -6176.8921      68.292297      14884.01       407.97853      8980.5591      1.4390416      0.75621465   
     37000  -6108.3364     -6177.3894      69.052955      12049.008      412.52271      8998.7428      1.4361337      0.7432431    
     37100  -6106.6783     -6176.9982      70.319919      14011.73       420.09156      9004.2774      1.435251       0.7432431    
     37200  -6105.3324     -6176.2817      70.949315      17958.619      423.85157      8997.0083      1.4364106      0.7432431    
     37300  -6107.7259     -6176.8953      69.169438      16510.241      413.21858      8979.347       1.4392358      0.7432431    
     37400  -6105.8253     -6175.6556      69.830292      11732.206      417.16653      8951.3574      1.4437361      0.7432431    
     37500  -6105.4455     -6176.1182      70.672666      11804.666      422.19887      8916.6071      1.4493627      0.7432431    
     37600  -6104.6738     -6176.0281      71.354262      14222.917      426.27073      8882.4147      1.454942       0.7432431    
     37700  -6101.9369     -6176.5621      74.62521       18557.439      445.81139      8859.8265      1.4586514      0.7432431    
     37800  -6102.9944     -6177.3938      74.399385      18101.632      444.46231      8855.7         1.459331       0.7432431    
     37900  -6103.4248     -6175.7647      72.339827      20810.57       432.1585       8866.1737      1.4576071      0.7432431    
     38000  -6104.9611     -6176.0718      71.110721      14116.525      424.81581      8892.172       1.4533455      0.78660583   
     38100  -6105.2679     -6175.1878      69.919918      8515.5361      417.70195      8925.3867      1.447937       0.78660583   
     38200  -6107.2403     -6177.9675      70.727183      13705.438      422.52455      8955.9841      1.4429903      0.78660583   
     38300  -6109.7055     -6176.7001      66.99465       14686.106      400.22638      8978.7666      1.4393289      0.78660583   
     38400  -6110.0251     -6180.0393      70.014253      12515.955      418.26551      8991.008       1.4373692      0.78660583   
     38500  -6108.235      -6178.8829      70.64796       12224.323      422.05128      8985.6653      1.4382238      0.78660583   
     38600  -6109.835      -6178.1192      68.284256      8221.7387      407.9305       8964.7608      1.4415776      0.78660583   
     38700  -6110.7107     -6178.1463      67.435582      17364.138      402.86052      8933.5329      1.4466167      0.78660583   
     38800  -6109.807      -6177.5156      67.70861       15968.794      404.49159      8895.9207      1.452733       0.78660583   
     38900  -6111.138      -6178.4482      67.310197      18047.867      402.11146      8861.1315      1.4584365      0.78660583   
     39000  -6110.3795     -6178.599       68.219484      17264.842      407.54355      8836.9186      1.4624326      0.78463509   
     39100  -6109.9335     -6179.2109      69.277444      14034.582      413.86381      8826.0982      1.4642255      0.78463509   
     39200  -6110.5578     -6178.4899      67.932074      12898.694      405.82656      8826.4268      1.464171       0.78463509   
     39300  -6111.3093     -6179.9987      68.689321      13486.107      410.35036      8837.4299      1.462348       0.78463509   
     39400  -6110.0561     -6179.2168      69.160705      18419.804      413.16641      8855.2047      1.4594127      0.78463509   
     39500  -6112.0543     -6178.4927      66.438446      16053.835      396.90362      8874.2874      1.4562744      0.78463509   
     39600  -6109.8832     -6176.3762      66.492935      13763.446      397.22914      8892.9626      1.4532163      0.78463509   
     39700  -6109.5035     -6178.4976      68.994132      15573.309      412.1713       8912.7046      1.4499973      0.78463509   
     39800  -6109.1921     -6175.7547      66.562635      14662.395      397.64552      8925.8569      1.4478608      0.78463509   
     39900  -6110.6639     -6179.4143      68.750416      11777.493      410.71534      8934.9514      1.446387       0.78463509   
     40000  -6109.5822     -6179.0575      69.475347      12747.563      415.04608      8937.0501      1.4460474      0.84094915   
     40100  -6109.5514     -6177.0341      67.482763      11546.093      403.14237      8931.6913      1.446915       0.84094915   
     40200  -6109.0943     -6176.3826      67.288324      17889.943      401.98079      8919.0612      1.4489639      0.84094915   
     40300  -6108.8614     -6177.8712      69.009872      16318.549      412.26533      8904.7536      1.451292       0.84094915   
     40400  -6109.148      -6181.3008      72.152849      17007.996      431.04149      8892.1981      1.4533412      0.84094915   
     40500  -6111.4725     -6180.1769      68.70445       18068.803      410.44074      8880.434       1.4552665      0.84094915   
     40600  -6113.6032     -6181.9031      68.299921      15540.474      408.02408      8867.7724      1.4573443      0.84094915   
     40700  -6112.5185     -6180.8112      68.292649      13143.197      407.98064      8852.1299      1.4599196      0.84094915   
     40800  -6109.7311     -6178.3504      68.619363      16046.63       409.93243      8838.7471      1.4621301      0.84094915   
     40900  -6107.6619     -6178.825       71.163078      20652.821      425.12859      8834.3292      1.4628612      0.84094915   
     41000  -6107.0414     -6176.7526      69.711253      20822.77       416.45538      8840.7661      1.4617962      0.71299602   
     41100  -6106.5212     -6177.0822      70.560998      17240.596      421.53176      8860.0651      1.4586121      0.71299602   
     41200  -6107.663      -6177.6702      70.007108      17041.721      418.22282      8889.8105      1.4537315      0.71299602   
     41300  -6109.6879     -6179.2853      69.597431      16075.012      415.77541      8927.1273      1.4476547      0.71299602   
     41400  -6111.0091     -6178.8809      67.871861      15569.579      405.46685      8962.858       1.4418836      0.71299602   
     41500  -6111.1456     -6178.5185      67.372877      16383.14       402.48592      8986.441       1.4380997      0.71299602   
     41600  -6112.9074     -6179.3903      66.482908      15215.689      397.16923      8994.8361      1.4367575      0.71299602   
     41700  -6112.5225     -6180.4655      67.943015      12033.001      405.89192      8987.6443      1.4379071      0.71299602   
     41800  -6111.9101     -6180.0415      68.131451      12625.909      407.01764      8962.8268      1.4418886      0.71299602   
     41900  -6110.9767     -6179.0405      68.063804      16201.791      406.61352      8922.8031      1.4483563      0.71299602   
     42000  -6107.7502     -6178.0828      70.332681      19606.79       420.1678       8876.3428      1.4559372      0.66881717   
     42100  -6110.455      -6180.4851      70.030129      16021.876      418.36035      8835.033       1.4627447      0.66881717   
     42200  -6110.8886     -6179.0514      68.162784      14008.21       407.20482      8806.8515      1.4674254      0.66881717   
     42300  -6111.932      -6183.8537      71.921728      18876.206      429.66077      8796.6647      1.4691248      0.66881717   
     42400  -6109.2285     -6179.4706      70.242085      15615.536      419.62658      8797.9416      1.4689115      0.66881717   
     42500  -6108.7778     -6177.6157      68.837845      17022.985      411.23764      8815.6698      1.4659576      0.66881717   
     42600  -6110.0697     -6178.5463      68.476645      16123.727      409.07983      8854.7107      1.4594941      0.66881717   
     42700  -6109.3907     -6180.9025      71.511766      12425.108      427.21166      8902.6415      1.4516363      0.66881717   
     42800  -6109.4866     -6177.0663      67.579671      12141.531      403.7213       8949.3665      1.4440573      0.66881717   
     42900  -6109.988      -6177.4438      67.45576       14852.346      402.98106      8991.7315      1.4372535      0.66881717   
     43000  -6111.1218     -6179.6517      68.529879      8930.5951      409.39785      9023.4029      1.4322089      0.73595043   
     43100  -6111.5794     -6178.5196      66.940233      12718.442      399.90129      9032.3396      1.4307918      0.73595043   
     43200  -6111.1714     -6178.576       67.404544      10708.532      402.67509      9015.6659      1.433438       0.73595043   
     43300  -6110.6866     -6180.5521      69.865538      14986.942      417.37708      8975.4131      1.4398666      0.73595043   
     43400  -6111.3883     -6177.3714      65.983156      16928.192      394.18371      8916.1145      1.4494428      0.73595043   
     43500  -6109.4304     -6179.6014      70.170913      14540.874      419.20139      8848.8668      1.460458       0.73595043   
     43600  -6108.9334     -6178.5095      69.576174      20794.756      415.64842      8785.3327      1.4710198      0.73595043   
     43700  -6110.6151     -6179.6672      69.052103      19138.445      412.51762      8738.0347      1.4789822      0.73595043   
     43800  -6108.8012     -6179.6517      70.850508      21522.119      423.2613       8712.8547      1.4832564      0.73595043   
     43900  -6106.6919     -6178.2513      71.55936       22227.921      427.49599      8717.5001      1.482466       0.73595043   
     44000  -6107.2207     -6179.0292      71.808572      22666.77       428.98478      8756.3918      1.4758816      0.75429803   
     44100  -6108.5256     -6178.6812      70.155584      20508.816      419.10982      8825.7087      1.4642901      0.75429803   
     44200  -6105.2901     -6176.5294      71.239247      15427.663      425.58363      8908.4063      1.450697       0.75429803   
     44300  -6107.7424     -6177.2003      69.457967      12232.28       414.94225      8991.8389      1.4372364      0.75429803   
     44400  -6107.7736     -6175.5981      67.824577      12101.657      405.18437      9058.4915      1.4266611      0.75429803   
     44500  -6108.2086     -6176.9455      68.736888      11436.855      410.63452      9096.4623      1.4207059      0.75429803   
     44600  -6110.631      -6178.0778      67.446768      12297.205      402.92734      9103.2077      1.4196532      0.75429803   
     44700  -6112.5622     -6180.8235      68.261265      11432.869      407.79315      9078.1553      1.4235709      0.75429803   
     44800  -6112.2423     -6179.5352      67.292964      16735.59       402.00851      9024.7032      1.4320025      0.75429803   
     44900  -6110.1087     -6177.2823      67.173588      12128.918      401.29536      8955.994       1.4429887      0.75429803   
     45000  -6106.5385     -6177.8772      71.338666      12948.912      426.17756      8886.3873      1.4542915      0.78240636   
     45100  -6107.7707     -6177.5425      69.771767      18576.449      416.81689      8827.6638      1.4639658      0.78240636   
     45200  -6108.2798     -6178.0643      69.78447       15111.37       416.89278      8790.2592      1.4701953      0.78240636   
     45300  -6108.4788     -6177.9065      69.427726      15487.197      414.76159      8776.2409      1.4725437      0.78240636   
     45400  -6110.5489     -6178.4536      67.904721      15633.888      405.66315      8780.8773      1.4717661      0.78240636   
     45500  -6109.5967     -6180.1079      70.511179      16385.04       421.23414      8800.3462      1.4685102      0.78240636   
     45600  -6109.6422     -6180.3374      70.695225      19286.312      422.33364      8830.4637      1.4635016      0.78240636   
     45700  -6109.3993     -6179.0302      69.630963      16506.392      415.97573      8864.1757      1.4579357      0.78240636   
     45800  -6110.8717     -6180.0774      69.205708      14106.693      413.43526      8894.7717      1.4529207      0.78240636   
     45900  -6107.3588     -6176.4501      69.091276      15581.93       412.75164      8917.072       1.4492871      0.78240636   
     46000  -6105.0452     -6174.912       69.866809      15743.231      417.38468      8935.6656      1.4462714      0.80039528   
     46100  -6105.1654     -6174.9065      69.741138      15873.737      416.63392      8951.8168      1.443662       0.80039528   
     46200  -6104.9743     -6174.3544      69.380186      18390.462      414.47759      8960.6798      1.4422341      0.80039528   
     46300  -6106.6849     -6176.812       70.127052      17520.304      418.93937      8964.0332      1.4416946      0.80039528   
     46400  -6110.4548     -6179.4652      69.010363      15742.848      412.26827      8959.7756      1.4423796      0.80039528   
     46500  -6111.079      -6177.8971      66.818142      12538.816      399.17192      8942.2337      1.4452091      0.80039528   
     46600  -6109.2268     -6176.2927      67.065908      12558.043      400.65208      8912.9862      1.4499515      0.80039528   
     46700  -6110.8497     -6180.3977      69.548021      15554.771      415.48024      8882.2007      1.454977       0.80039528   
     46800  -6111.0467     -6179.3349      68.288166      12842.763      407.95386      8848.4991      1.4605186      0.80039528   
     46900  -6110.3554     -6180.7293      70.373867      11179.12       420.41385      8819.3135      1.4653519      0.80039528   
     47000  -6112.0902     -6179.8638      67.773565      14620.882      404.87963      8797.7982      1.4689355      0.80425392   
     47100  -6112.9619     -6179.6735      66.711587      20647.123      398.53536      8786.6127      1.4708055      0.80425392   
     47200  -6111.3926     -6179.1746      67.782013      20002.273      404.9301       8786.587       1.4708097      0.80425392   
     47300  -6113.4664     -6181.4402      67.973783      13261.801      406.07573      8796.8425      1.4690951      0.80425392   
     47400  -6113.6819     -6179.4364      65.754503      14133.294      392.81774      8813.5419      1.4663115      0.80425392   
     47500  -6113.3894     -6182.3357      68.946271      12791.152      411.88538      8836.2773      1.4625387      0.80425392   
     47600  -6113.0312     -6177.8925      64.861331      14089.781      387.48192      8858.1049      1.4589348      0.80425392   
     47700  -6111.3615     -6180.6254      69.263902      16342.028      413.78291      8881.2779      1.4551282      0.80425392   
     47800  -6111.0749     -6180.3977      69.322764      17751.929      414.13455      8903.8865      1.4514334      0.80425392   
     47900  -6108.9417     -6175.9974      67.05568       18696.106      400.59098      8919.5773      1.4488801      0.80425392   
     48000  -6109.9864     -6177.9262      67.939802      13304.924      405.87273      8932.2877      1.4468184      0.76784203   
     48100  -6108.226      -6176.2602      68.034186      9865.9964      406.43658      8936.4365      1.4461467      0.76784203   
     48200  -6108.0167     -6178.2745      70.257838      14314.225      419.72069      8933.4742      1.4466262      0.76784203   
     48300  -6107.4995     -6177.9502      70.450675      14195.695      420.8727       8925.0415      1.447993       0.76784203   
     48400  -6105.5174     -6175.4067      69.889317      16356.21       417.51914      8910.8643      1.4502968      0.76784203   
     48500  -6105.2626     -6174.9585      69.695841      17969.972      416.36331      8894.4881      1.452967       0.76784203   
     48600  -6105.6612     -6175.8914      70.230215      15320.74       419.55567      8883.2605      1.4548034      0.76784203   
     48700  -6106.8867     -6177.3719      70.485198      21218.212      421.07894      8875.9764      1.4559973      0.76784203   
     48800  -6107.2215     -6175.5089      68.287438      17200.825      407.94951      8867.8923      1.4573246      0.76784203   
     48900  -6107.1008     -6176.6064      69.505648      18604.44       415.2271       8860.0603      1.4586129      0.76784203   
     49000  -6108.5068     -6177.3658      68.858996      15545.15       411.364        8856.8333      1.4591443      0.79119559   
     49100  -6107.319      -6177.9742      70.655153      14298.077      422.09425      8856.3345      1.4592265      0.79119559   
     49200  -6106.156      -6176.8653      70.709289      16652.156      422.41766      8860.3565      1.4585641      0.79119559   
     49300  -6106.3311     -6174.8437      68.512588      13375.665      409.29456      8869.5083      1.4570591      0.79119559   
     49400  -6107.6705     -6178.8886      71.218089      13115.701      425.45723      8884.8765      1.4545388      0.79119559   
     49500  -6107.4297     -6176.4812      69.05145       16435.94       412.51372      8901.5359      1.4518166      0.79119559   
     49600  -6108.7973     -6179.7009      70.903588      14679.705      423.5784       8916.83        1.4493265      0.79119559   
     49700  -6108.0707     -6178.0121      69.941418      17941.298      417.83039      8924.0885      1.4481477      0.79119559   
     49800  -6108.5685     -6177.6212      69.052709      19090.377      412.52124      8925.9262      1.4478495      0.79119559   
     49900  -6108.9259     -6179.6544      70.728533      15145.881      422.53262      8921.6655      1.448541       0.79119559   
     50000  -6108.99       -6179.4036      70.41362       11454.465      420.65133      8906.9781      1.4509296      0.70183035   
     50100  -6110.2354     -6177.1641      66.928684      12981.675      399.8323       8883.8457      1.4547076      0.70183035   
     50200  -6108.8249     -6179.6804      70.855534      10798.821      423.29132      8859.2612      1.4587444      0.70183035   
     50300  -6108.2395     -6179.0552      70.815646      15027.402      423.05303      8831.7477      1.4632888      0.70183035   
     50400  -6110.8672     -6179.5773      68.7101        16183.729      410.47449      8806.4999      1.467484       0.70183035   
     50500  -6110.1951     -6180.5811      70.385934      15370.705      420.48593      8789.5926      1.4703068      0.70183035   
     50600  -6109.5447     -6178.5072      68.962456      12518.45       411.98207      8782.0293      1.4715731      0.70183035   
     50700  -6111.133      -6179.1632      68.030273      11843.531      406.4132       8784.6678      1.4711311      0.70183035   
     50800  -6112.2507     -6182.778       70.527335      14340.806      421.33066      8798.4566      1.4688256      0.70183035   
     50900  -6109.3626     -6178.1749      68.812235      19597.157      411.08465      8820.7699      1.46511        0.70183035   
     51000  -6108.4552     -6178.6797      70.224513      12328.611      419.52161      8851.2767      1.4600603      0.73228896   
     51100  -6109.5142     -6179.6632      70.148991      9151.241       419.07044      8883.4349      1.4547749      0.73228896   
     51200  -6110.5847     -6179.9064      69.321668      9255.2065      414.128        8911.3595      1.4502162      0.73228896   
     51300  -6110.7171     -6179.4172      68.700113      11907.445      410.41483      8929.374       1.4472905      0.73228896   
     51400  -6110.536      -6180.0192      69.483228      12577.374      415.09316      8934.6628      1.4464338      0.73228896   
     51500  -6109.9551     -6179.2646      69.309509      14435.93       414.05537      8926.2936      1.4477899      0.73228896   
     51600  -6111.2469     -6179.5543      68.307395      14856.501      408.06873      8906.9147      1.4509399      0.73228896   
     51700  -6112.4565     -6180.6398      68.18332       11717.392      407.3275       8875.8402      1.4560197      0.73228896   
     51800  -6108.745      -6177.5972      68.852282      13615.395      411.32389      8839.8455      1.4619484      0.73228896   
     51900  -6111.0049     -6180.4672      69.462303      17515.914      414.96816      8808.0602      1.4672241      0.73228896   
     52000  -6112.1336     -6181.0769      68.943268      18137.821      411.86744      8779.3439      1.4720232      0.76555733   
     52100  -6112.8137     -6181.684       68.870294      14942.123      411.43149      8759.6463      1.4753333      0.76555733   
     52200  -6113.0532     -6180.9227      67.869498      16894.067      405.45273      8751.6541      1.4766806      0.76555733   
     52300  -6113.5188     -6180.851       67.332225      21657.995      402.24306      8754.0601      1.4762747      0.76555733   
     52400  -6111.4831     -6181.0076      69.524408      18271.227      415.33917      8768.2065      1.473893       0.76555733   
     52500  -6111.6201     -6180.467       68.84693       18387.27       411.29191      8792.6227      1.4698001      0.76555733   
     52600  -6113.8311     -6180.2678      66.436674      18592.4        396.89304      8824.1399      1.4645504      0.76555733   
     52700  -6114.5395     -6181.9019      67.362388      16592.451      402.42325      8855.3049      1.4593961      0.76555733   
     52800  -6114.3526     -6182.8417      68.489129      15168.426      409.15441      8880.0771      1.455325       0.76555733   
     52900  -6112.6985     -6180.8357      68.137135      15257.154      407.0516       8894.4714      1.4529697      0.76555733   
     53000  -6112.6147     -6180.7759      68.161258      15823.794      407.19571      8898.6377      1.4522895      0.78989265   
     53100  -6113.157      -6181.6167      68.45964       10738.941      408.97824      8892.6106      1.4532738      0.78989265   
     53200  -6110.9732     -6181.2983      70.325153      13186.837      420.12283      8875.7135      1.4560404      0.78989265   
     53300  -6111.1575     -6177.5291      66.371592      14888.668      396.50423      8853.6405      1.4596705      0.78989265   
     53400  -6111.7144     -6179.4545      67.740052      14690.292      404.67942      8833.5623      1.4629882      0.78989265   
     53500  -6111.9673     -6182.1355      70.168157      16158.376      419.18493      8813.7946      1.4662695      0.78989265   
     53600  -6111.3989     -6179.3024      67.903478      17851.909      405.65573      8795.6729      1.4692904      0.78989265   
     53700  -6109.9931     -6179.0871      69.093994      18216.383      412.76788      8787.3003      1.4706904      0.78989265   
     53800  -6109.5989     -6180.3425      70.74358       17579.548      422.62251      8789.9969      1.4702392      0.78989265   
     53900  -6107.9014     -6179.606       71.704586      14906.323      428.36357      8803.0061      1.4680664      0.78989265   
     54000  -6108.5608     -6176.9483      68.387454      17433.492      408.547        8825.9829      1.4642446      0.79536071   
     54100  -6108.6189     -6175.9956      67.376718      16999.113      402.50886      8858.9873      1.4587895      0.79536071   
     54200  -6108.9754     -6178.4736      69.498149      12203.039      415.1823       8893.461       1.4531348      0.79536071   
     54300  -6106.631      -6176.9815      70.350468      18832.917      420.27406      8921.8487      1.4485112      0.79536071   
     54400  -6106.8094     -6177.1871      70.377667      14776.495      420.43655      8943.3195      1.4450337      0.79536071   
     54500  -6106.7091     -6176.1428      69.433703      12457.527      414.7973       8958.4044      1.4426004      0.79536071   
     54600  -6109.0354     -6178.9201      69.884693      10677.921      417.49151      8961.2979      1.4421346      0.79536071   
     54700  -6110.8866     -6180.0609      69.174341      11466.163      413.24787      8947.2091      1.4444055      0.79536071   
     54800  -6111.632      -6179.1278      67.495848      15523.877      403.22054      8917.0664      1.4492881      0.79536071   
     54900  -6112.6647     -6180.7655      68.100726      14603.801      406.83409      8875.0111      1.4561557      0.79536071   
     55000  -6111.2095     -6178.3433      67.13383       14807.894      401.05784      8828.3558      1.463851       0.73975435   
     55100  -6110.6687     -6177.9909      67.322177      19132.283      402.18303      8788.5777      1.4704766      0.73975435   
     55200  -6107.4932     -6176.7896      69.29645       19563.28       413.97735      8759.9355      1.4752846      0.73975435   
     55300  -6108.7429     -6178.4181      69.675239      15312.236      416.24023      8748.118       1.4772775      0.73975435   
     55400  -6111.6309     -6181.2109      69.579991      14084.455      415.67122      8752.1114      1.4766035      0.73975435   
     55500  -6114.3428     -6182.1866      67.8438        15231.098      405.29921      8766.7471      1.4741383      0.73975435   
     55600  -6114.6609     -6182.3439      67.682983      13631.955      404.33849      8789.1675      1.4703779      0.73975435   
     55700  -6115.0429     -6180.0672      65.024291      11957.598      388.45545      8814.8875      1.4660877      0.73975435   
     55800  -6114.0204     -6182.7188      68.698351      12385.805      410.4043       8838.344       1.4621968      0.73975435   
     55900  -6109.9929     -6178.5425      68.54962       13275.017      409.51578      8857.0217      1.4591133      0.73975435   
     56000  -6112.7117     -6181.6294      68.917716      16471.08       411.71479      8874.9003      1.4561739      0.68390816   
     56100  -6112.8233     -6180.2462      67.422888      13557.177      402.78468      8886.0073      1.4543537      0.68390816   
     56200  -6112.9571     -6179.3082      66.35113       16307.287      396.38199      8886.8871      1.4542098      0.68390816   
     56300  -6111.4006     -6179.2006      67.800005      19926.453      405.03758      8878.9943      1.4555024      0.68390816   
     56400  -6111.9281     -6180.514       68.585982      16973.377      409.73301      8864.4666      1.4578878      0.68390816   
     56500  -6111.1378     -6181.3365      70.198763      15696.528      419.36777      8847.5604      1.4606736      0.68390816   
     56600  -6111.2002     -6180.1195      68.91928       15400.347      411.72413      8828.5583      1.4638175      0.68390816   
     56700  -6111.4874     -6180.0525      68.565081      14515.867      409.60815      8810.5622      1.4668074      0.68390816   
     56800  -6112.8135     -6178.7469      65.933415      16012.916      393.88656      8797.3932      1.4690031      0.68390816   
     56900  -6111.1202     -6178.9446      67.824405      19857.779      405.18335      8794.1076      1.4695519      0.68390816   
     57000  -6113.8304     -6180.2144      66.38405       16621.381      396.57865      8800.5921      1.4684691      0.79089946   
[...]
   2186000  -6115.5018     -6181.1012      65.599414      15288.614      391.89124      8801.0594      1.4683912      0.72660508   
   2186100  -6115.7276     -6184.446       68.718344      17877.626      410.52374      8786.3492      1.4708496      0.72660508   
   2186200  -6116.8108     -6187.1829      70.372081      16798.886      420.40317      8781.1133      1.4717266      0.72660508   
   2186300  -6115.1138     -6185.7515      70.63767       18156.752      421.98981      8786.0438      1.4709007      0.72660508   
   2186400  -6113.1863     -6184.0556      70.86924       17793.111      423.3732       8799.4844      1.468654       0.72660508   
   2186500  -6116.2864     -6184.9093      68.622914      13832.645      409.95364      8820.238       1.4651983      0.72660508   
   2186600  -6114.9688     -6183.721       68.752187      12114.08       410.72592      8844.3587      1.4612024      0.72660508   
   2186700  -6113.9587     -6181.8931      67.934452      13039.088      405.84077      8863.7568      1.4580046      0.72660508   
   2186800  -6113.6425     -6179.9572      66.314752      17267.796      396.16467      8878.7596      1.4555409      0.72660508   
   2186900  -6110.1443     -6181.4807      71.33636       14363.705      426.16378      8895.9898      1.4527218      0.72660508   
   2187000  -6111.6415     -6180.7526      69.111068      15694.239      412.86988      8908.701       1.450649       0.83271273   
   2187100  -6111.1418     -6182.4096      71.267786      14792.646      425.75412      8916.0107      1.4494597      0.83271273   
   2187200  -6110.5787     -6179.1663      68.587547      13449.995      409.74236      8915.8922      1.4494789      0.83271273   
   2187300  -6111.0689     -6178.7771      67.708249      10694.448      404.48943      8909.2525      1.4505592      0.83271273   
   2187400  -6113.4505     -6181.4177      67.967119      8880.215       406.03592      8900.2908      1.4520197      0.83271273   
   2187500  -6112.0638     -6180.3278      68.263923      15713.538      407.80903      8888.4421      1.4539553      0.83271273   
   2187600  -6112.654      -6182.3823      69.728385      16154.285      416.55773      8878.955       1.4555089      0.83271273   
   2187700  -6112.9339     -6182.9399      70.005961      15646.323      418.21597      8870.5321      1.4568909      0.83271273   
   2187800  -6110.7041     -6180.8666      70.162525      14420.007      419.15129      8863.7195      1.4580107      0.83271273   
   2187900  -6111.3541     -6181.1241      69.769975      16896.112      416.80619      8861.0852      1.4584441      0.83271273   
   2188000  -6114.3005     -6184.7682      70.467644      16723.761      420.97407      8861.6059      1.4583585      0.83775393   
   2188100  -6113.555      -6182.0809      68.525924      14142.303      409.37422      8861.7454      1.4583355      0.83775393   
   2188200  -6113.0301     -6181.8794      68.849348      11211.703      411.30636      8860.2617      1.4585797      0.83775393   
   2188300  -6112.0545     -6182.3349      70.280373      13632.98       419.85531      8857.6354      1.4590122      0.83775393   
   2188400  -6114.0744     -6180.9309      66.856548      11131.131      399.40136      8854.9285      1.4594582      0.83775393   
   2188500  -6112.8462     -6181.4206      68.574352      11901.104      409.66353      8850.7207      1.460152       0.83775393   
   2188600  -6113.3363     -6182.4119      69.075635      13805.62       412.6582       8844.8817      1.461116       0.83775393   
   2188700  -6111.5085     -6181.2012      69.692731      15766.82       416.34473      8841.28        1.4617112      0.83775393   
   2188800  -6111.7877     -6181.4557      69.668024      13715.803      416.19714      8839.8909      1.4619409      0.83775393   
   2188900  -6111.9454     -6180.7819      68.836471      16110.32       411.22943      8841.5578      1.4616653      0.83775393   
   2189000  -6113.0058     -6182.6012      69.595457      14745.451      415.76362      8844.3186      1.461209       0.73911027   
   2189100  -6116.2894     -6183.6316      67.342137      15411.683      402.30228      8847.0961      1.4607502      0.73911027   
   2189200  -6112.9157     -6182.3002      69.384466      15775.988      414.50316      8849.8691      1.4602925      0.73911027   
   2189300  -6112.2325     -6180.9248      68.692272      16950.342      410.36799      8854.4251      1.4595412      0.73911027   
   2189400  -6114.7704     -6183.051       68.280615      15093.037      407.90875      8861.132       1.4584365      0.73911027   
   2189500  -6113.1656     -6182.4558      69.290228      12537.477      413.94018      8863.5854      1.4580328      0.73911027   
   2189600  -6113.0538     -6181.1029      68.04908       14768.567      406.52555      8858.6885      1.4588387      0.73911027   
   2189700  -6114.1654     -6184.9843      70.818963      13884.874      423.07285      8851.9376      1.4599513      0.73911027   
   2189800  -6112.6029     -6180.7988      68.195893      12930.846      407.40262      8840.7785      1.4617941      0.73911027   
   2189900  -6113.4199     -6182.8882      69.468229      16016.403      415.00356      8826.7793      1.4641125      0.73911027   
   2190000  -6113.7327     -6180.0653      66.332528      13306.193      396.27086      8811.1105      1.4667161      0.86463578   
   2190100  -6113.3509     -6184.1786      70.827713      16616.912      423.12512      8798.8047      1.4687674      0.86463578   
   2190200  -6113.6536     -6182.8712      69.217608      17909.716      413.50635      8791.4484      1.4699964      0.86463578   
   2190300  -6113.8136     -6182.3904      68.576849      15671.928      409.67845      8788.9196      1.4704194      0.86463578   
   2190400  -6113.7462     -6183.292       69.545836      14867.475      415.46718      8794.2145      1.4695341      0.86463578   
   2190500  -6117.8052     -6183.4604      65.655195      15018.54       392.22447      8805.435       1.4676615      0.86463578   
   2190600  -6116.3192     -6184.145       67.825796      17992.368      405.19166      8823.0595      1.4647298      0.86463578   
   2190700  -6115.2963     -6183.4524      68.156138      18696.112      407.16512      8839.4968      1.4620061      0.86463578   
   2190800  -6115.3806     -6183.395       68.014363      17121.093      406.31815      8856.1406      1.4592584      0.86463578   
   2190900  -6114.911      -6183.7505      68.839467      13663.67       411.24733      8871.2451      1.4567738      0.86463578   
   2191000  -6114.6798     -6183.7894      69.109597      13884.477      412.86109      8879.6951      1.4553876      0.69628367   
   2191100  -6114.4621     -6183.0233      68.561246      15710.126      409.58524      8882.2344      1.4549715      0.69628367   
   2191200  -6115.1087     -6182.0589      66.950245      14959.085      399.96111      8880.2625      1.4552946      0.69628367   
   2191300  -6114.8356     -6184.755       69.919417      12127.478      417.69896      8875.3915      1.4560933      0.69628367   
   2191400  -6114.7291     -6183.533       68.803921      17372.539      411.03498      8864.3596      1.4579054      0.69628367   
   2191500  -6114.97       -6182.8515      67.881473      13741.396      405.52427      8851.7089      1.459989       0.69628367   
   2191600  -6114.2948     -6182.8448      68.549988      13702.75       409.51798      8838.1264      1.4622328      0.69628367   
   2191700  -6113.9884     -6184.782       70.793647      16803.834      422.92161      8826.2982      1.4641923      0.69628367   
   2191800  -6113.7827     -6184.5039      70.721188      17833.447      422.48874      8820.128       1.4652166      0.69628367   
   2191900  -6112.9169     -6181.3493      68.432449      16111.096      408.8158       8820.7255      1.4651173      0.69628367   
   2192000  -6111.5778     -6182.1152      70.537388      13696.513      421.39072      8831.3878      1.4633485      0.76830092   
   2192100  -6112.5796     -6181.8909      69.311303      11652.344      414.06608      8852.3571      1.4598821      0.76830092   
   2192200  -6111.6891     -6181.1227      69.433597      12831.545      414.79667      8875.1876      1.4561267      0.76830092   
   2192300  -6113.8082     -6183.0006      69.192483      15349.031      413.35625      8895.8653      1.4527421      0.76830092   
   2192400  -6116.5181     -6181.7732      65.255128      11372.954      389.83447      8906.9612      1.4509323      0.76830092   
   2192500  -6118.7438     -6185.3388      66.59501       12116.419      397.83893      8901.9804      1.4517441      0.76830092   
   2192600  -6117.0124     -6185.0302      68.017771      17400.623      406.33852      8877.6764      1.4557185      0.76830092   
   2192700  -6113.5575     -6182.7908      69.233391      16275.772      413.60063      8844.3032      1.4612115      0.76830092   
   2192800  -6115.1156     -6184.2413      69.125736      14317.261      412.9575       8814.0641      1.4662246      0.76830092   
   2192900  -6114.9241     -6182.341       67.416942      16464.368      402.74916      8791.4112      1.4700027      0.76830092   
   2193000  -6115.3192     -6185.4231      70.103924      16827.04       418.8012       8778.2495      1.4722067      0.87894018   
   2193100  -6115.9977     -6185.2335      69.235728      19516.332      413.6146       8771.494       1.4733406      0.87894018   
   2193200  -6117.2503     -6183.1063      65.855983      14581.613      393.42398      8772.6485      1.4731467      0.87894018   
   2193300  -6117.4574     -6184.4338      66.976431      12254.824      400.11755      8783.7533      1.4712842      0.87894018   
   2193400  -6115.1679     -6184.5607      69.392816      16376.579      414.55304      8801.2347      1.4683619      0.87894018   
   2193500  -6115.7122     -6184.4175      68.7053        15024.522      410.44581      8823.409       1.4646718      0.87894018   
   2193600  -6115.6492     -6184.7968      69.147596      14897.664      413.08809      8845.362       1.4610366      0.87894018   
   2193700  -6118.3348     -6187.3556      69.020793      11790.36       412.33057      8866.9885      1.4574732      0.87894018   
   2193800  -6117.6514     -6182.7336      65.082156      12778.875      388.80113      8879.3785      1.4554395      0.87894018   
   2193900  -6115.6647     -6183.9488      68.284109      11617.4        407.92962      8882.4934      1.4549291      0.87894018   
   2194000  -6117.2799     -6184.5635      67.283587      11424.727      401.95249      8875.73        1.4560377      0.79116679   
   2194100  -6117.4372     -6182.4104      64.973212      10631.519      388.1503       8859.7378      1.458666       0.79116679   
   2194200  -6118.7779     -6183.438       64.660053      13007.052      386.27949      8836.6878      1.4624708      0.79116679   
   2194300  -6117.2717     -6186.957       69.685218      14438.205      416.29985      8809.4435      1.4669937      0.79116679   
   2194400  -6119.1848     -6185.5948      66.409998      15416.054      396.73367      8785.3463      1.4710175      0.79116679   
   2194500  -6118.1718     -6187.8366      69.664817      17509.853      416.17797      8767.8273      1.4739567      0.79116679   
   2194600  -6116.7807     -6184.1679      67.387187      24316.062      402.5714       8754.9124      1.476131       0.79116679   
   2194700  -6118.8398     -6188.055       69.215271      18046.765      413.49239      8757.82        1.475641       0.79116679   
   2194800  -6119.459      -6187.3901      67.931107      15798.123      405.82078      8768.9124      1.4737743      0.79116679   
   2194900  -6117.487      -6186.6279      69.140876      15050.153      413.04795      8784.1406      1.4712194      0.79116679   
   2195000  -6118.5622     -6184.4898      65.927612      13457.687      393.85189      8802.2673      1.4681897      0.88851221   
   2195100  -6118.3793     -6186.0955      67.716214      13021.222      404.53701      8822.237       1.4648663      0.88851221   
   2195200  -6117.9049     -6184.4199      66.514999      11067.523      397.36094      8841.7768      1.4616291      0.88851221   
   2195300  -6115.9499     -6184.0944      68.144469      16106.882      407.09541      8858.5025      1.4588694      0.88851221   
   2195400  -6117.0218     -6187.165       70.143195      16806.491      419.03581      8870.6414      1.456873       0.88851221   
   2195500  -6116.578      -6185.1708      68.592839      14841.617      409.77397      8873.1369      1.4564633      0.88851221   
   2195600  -6115.9483     -6183.3429      67.394661      10215.546      402.61605      8867.6433      1.4573656      0.88851221   
   2195700  -6114.9866     -6181.1876      66.201002      11425.413      395.48513      8856.1909      1.4592502      0.88851221   
   2195800  -6115.2169     -6183.2391      68.022178      12539.594      406.36484      8840.4846      1.4618427      0.88851221   
   2195900  -6115.8877     -6182.2516      66.363905      16365.721      396.45831      8824.9782      1.4644113      0.88851221   
   2196000  -6116.4643     -6183.8941      67.429754      14498.75       402.8257       8811.4889      1.4666531      0.84728934   
   2196100  -6116.1148     -6184.7423      68.627532      15423.696      409.98123      8800.1513      1.4685427      0.84728934   
   2196200  -6113.5584     -6182.3843      68.825907      13581.446      411.16632      8793.1712      1.4697084      0.84728934   
   2196300  -6111.5318     -6181.5581      70.026288      16679.588      418.3374       8793.1751      1.4697078      0.84728934   
   2196400  -6111.5768     -6182.0583      70.481561      19464.25       421.05721      8803.2013      1.4680339      0.84728934   
   2196500  -6112.5605     -6179.9814      67.420894      16607.78       402.77277      8823.1069      1.4647219      0.84728934   
   2196600  -6113.421      -6180.9573      67.536386      13646.695      403.46272      8850.7452      1.460148       0.84728934   
   2196700  -6114.2027     -6181.0389      66.836258      11947.237      399.28015      8879.4006      1.4554358      0.84728934   
   2196800  -6114.2072     -6184.7364      70.529144      7676.7878      421.34147      8904.3129      1.4513638      0.84728934   
   2196900  -6115.6338     -6183.2978      67.664044      10014.44       404.22535      8920.1316      1.4487901      0.84728934   
   2197000  -6115.1953     -6183.3292      68.133862      9539.7922      407.03204      8918.6172      1.4490361      0.75513701   
   2197100  -6113.9162     -6181.0774      67.161287      12158.996      401.22188      8899.0805      1.4522172      0.75513701   
   2197200  -6113.8399     -6182.5355      68.695663      13225.058      410.38824      8870.5257      1.456892       0.75513701   
   2197300  -6113.96       -6182.3285      68.368569      16457.911      408.43418      8840.0205      1.4619195      0.75513701   
   2197400  -6112.8512     -6183.7122      70.86095       18547.763      423.32368      8807.2996      1.4673508      0.75513701   
   2197500  -6113.866      -6184.4791      70.613047      18261.198      421.8427       8779.9948      1.4719141      0.75513701   
   2197600  -6114.05       -6183.5793      69.529231      19792.447      415.36798      8760.9532      1.4751132      0.75513701   
   2197700  -6112.9928     -6183.5505      70.557728      19792.513      421.51223      8754.366       1.4762232      0.75513701   
   2197800  -6112.2333     -6181.6844      69.451091      18091.743      414.90118      8761.6121      1.4750023      0.75513701   
   2197900  -6113.8731     -6185.0024      71.129341      14316.354      424.92705      8783.5707      1.4713148      0.75513701   
   2198000  -6114.7902     -6183.4869      68.696688      15348.293      410.39437      8813.2804      1.466355       0.79028622   
   2198100  -6115.8169     -6183.2697      67.452774      14832.968      402.96322      8843.754       1.4613023      0.79028622   
   2198200  -6115.9329     -6182.8627      66.929862      10714.506      399.83934      8868.0871      1.4572926      0.79028622   
   2198300  -6116.5776     -6186.0221      69.444452      11137.888      414.86151      8886.184       1.4543248      0.79028622   
   2198400  -6115.8348     -6183.8437      68.008832      12796.662      406.28511      8889.9846      1.4537031      0.79028622   
   2198500  -6114.8033     -6181.386       66.582724      14066.079      397.76554      8879.4895      1.4554213      0.79028622   
   2198600  -6113.4258     -6183.2112      69.785435      16577.658      416.89855      8859.5365      1.4586991      0.79028622   
   2198700  -6113.1677     -6183.8059      70.63812       17374.584      421.99249      8834.2269      1.4628782      0.79028622   
   2198800  -6114.9374     -6183.0442      68.106742      14848.725      406.87003      8805.0212      1.4677305      0.79028622   
   2198900  -6111.3279     -6184.005       72.677156      11594.915      434.17371      8778.3402      1.4721915      0.79028622   
   2199000  -6113.0763     -6181.8715      68.795203      15333.562      410.9829       8759.7373      1.475318       0.71198701   
   2199100  -6114.0481     -6182.6793      68.631226      19129.979      410.0033       8753.6157      1.4763497      0.71198701   
   2199200  -6116.7555     -6185.1246      68.369131      18240.717      408.43754      8761.4966      1.4750217      0.71198701   
   2199300  -6114.8183     -6186.0179      71.199679      18566.435      425.34725      8780.9681      1.4717509      0.71198701   
   2199400  -6118.0181     -6185.0574      67.039334      12238.173      400.49333      8805.1334      1.4677118      0.71198701   
   2199500  -6119.1683     -6185.8303      66.661975      13865.631      398.23898      8827.5784      1.46398        0.71198701   
   2199600  -6118.6082     -6183.9949      65.386661      13999.409      390.62025      8845.3523      1.4610382      0.71198701   
   2199700  -6117.5371     -6187.1158      69.578743      14385.162      415.66377      8855.8943      1.459299       0.71198701   
   2199800  -6118.4847     -6186.9519      68.467218      16832.939      409.02351      8853.4235      1.4597063      0.71198701   
   2199900  -6118.0487     -6185.1941      67.145423      15663.553      401.1271       8836.0144      1.4625823      0.71198701   
   2200000  -6118.8347     -6185.9057      67.071026      12251.7        400.68266      8805.6202      1.4676306      0.7838852    
   2200033  -6118.4942     -6186.199       67.704822      13783.883      404.46895      8794.0097      1.4695683      0.7838852    
Loop time of 8501.34 on 1 procs for 2000000 steps with 1296 atoms

Performance: 10.163 ns/day, 2.361 hours/ns, 235.257 timesteps/s, 304.893 katom-step/s
99.8% CPU use with 1 MPI tasks x 1 OpenMP threads

MPI task timing breakdown:
Section |  min time  |  avg time  |  max time  |%varavg| %total
---------------------------------------------------------------
Pair    | 6470       | 6470       | 6470       |   0.0 | 76.11
Neigh   | 86.812     | 86.812     | 86.812     |   0.0 |  1.02
Comm    | 87.791     | 87.791     | 87.791     |   0.0 |  1.03
Output  | 5.3537     | 5.3537     | 5.3537     |   0.0 |  0.06
Modify  | 1806.7     | 1806.7     | 1806.7     |   0.0 | 21.25
Other   |            | 44.67      |            |       |  0.53

Nlocal:           1296 ave        1296 max        1296 min
Histogram: 1 0 0 0 0 0 0 0 0 0
Nghost:           4336 ave        4336 max        4336 min
Histogram: 1 0 0 0 0 0 0 0 0 0
Neighs:              0 ave           0 max           0 min
Histogram: 1 0 0 0 0 0 0 0 0 0
FullNghs:       221850 ave      221850 max      221850 min
Histogram: 1 0 0 0 0 0 0 0 0 0

Total # of neighbors = 221850
Ave neighs/atom = 171.18056
Neighbor list builds = 200000
Dangerous builds = 200000
Total wall time: 2:35:53
