LAMMPS (29 Aug 2024 - Update 1)
OMP_NUM_THREADS environment is not set. Defaulting to 1 thread. (src/comm.cpp:98)
  using 1 OpenMP thread(s) per MPI task

units		metal						## E in [eV], t in [ps], P in [10000 Pa], l in [A]
atom_style	atomic						## mass x y z vx vy vz

neighbor	0.5 bin						## neighbor list, skin = 0.5 Angstrom
neigh_modify	every 2 delay 10 check yes			## update of neighbor list

############################## main variables
variable        seed equal 62568

variable	temperature equal 280
variable	tempDamp equal 0.1

variable        pressure equal 5000
variable        pressureDamp equal 1.0 				# This is 1 ps

##############################

read_data water.dat
Reading data file ...
  triclinic box = (0 0 0) to (18.047441 22.912981 19.549222) with tilt (-0.10697296 -6.2467562 -0.022549581)
  2 by 7 by 2 MPI processor grid
  reading atoms ...
  1008 atoms
  read_data CPU = 0.082 seconds

mass		1 1.008    # H
mass		2 15.9994  # O


pair_style	pace/extrapolation
ACE/AL version: 2023.11.25
pair_coeff	* * /home/users/saadie5f/phase_diagram/pot_dir/interim_potential_ladder_step_1.yaml /home/users/saadie5f/phase_diagram/pot_dir/interim_potential_ladder_step_1.asi H O
Loading /home/users/saadie5f/phase_diagram/pot_dir/interim_potential_ladder_step_1.yaml
Total number of basis functions
	H: 23 (r=1) 664 (r>1)
	O: 23 (r=1) 664 (r>1)
Mapping LAMMPS atom type #1(H) -> ACE species type #0
Mapping LAMMPS atom type #2(O) -> ACE species type #1
Loading ASI /home/users/saadie5f/phase_diagram/pot_dir/interim_potential_ladder_step_1.asi
LINEAR ASI is loaded

fix pace_gamma all pair 1000 pace/extrapolation gamma 1
compute max_pace_gamma all reduce max f_pace_gamma
variable dump_skip equal "c_max_pace_gamma < 10"

dump pace_dump all custom 1000 extrapolative_structures.dump id type x y z f_pace_gamma
dump_modify pace_dump skip v_dump_skip
dump_modify pace_dump element H O

variable max_pace_gamma equal c_max_pace_gamma

timestep	0.0005						## timestep = 0.0005*ps = 0.5 fs

thermo		100
thermo_style custom step etotal pe ke press temp vol density c_max_pace_gamma


min_style cg
minimize 0.0 5.0e-4 10000 100000

CITE-CITE-CITE-CITE-CITE-CITE-CITE-CITE-CITE-CITE-CITE-CITE-CITE

Your simulation uses code contributions which should be cited:

- Type Label Framework: https://doi.org/10.1021/acs.jpcb.3c08419

@Article{Gissinger24,
 author = {Jacob R. Gissinger, Ilia Nikiforov, Yaser Afshar, Brendon Waters, Moon-ki Choi, Daniel S. Karls, Alexander Stukowski, Wonpil Im, Hendrik Heinz, Axel Kohlmeyer, and Ellad B. Tadmor},
 title = {Type Label Framework for Bonded Force Fields in LAMMPS},
 journal = {J. Phys. Chem. B},
 year =    2024,
 volume =  128,
 number =  13,
 pages =   {3282–-3297}
}

CITE-CITE-CITE-CITE-CITE-CITE-CITE-CITE-CITE-CITE-CITE-CITE-CITE

Switching to 'neigh_modify every 1 delay 0 check yes' setting during minimization
Neighbor list info ...
  update: every = 1 steps, delay = 0 steps, check = yes
  max neighbors/atom: 2000, page size: 100000
  master list distance cutoff = 6.5
  ghost atom cutoff = 6.5
  binsize = 3.25, bins = 8 8 7
  1 neighbor lists, perpetual/occasional/extra = 1 0 0
  (1) pair pace/extrapolation, perpetual
      attributes: full, newton on
      pair build: full/bin/atomonly
      stencil: full/bin/3d
      bin: standard
Per MPI rank memory allocation (min/avg/max) = 4.348 | 4.35 | 4.351 Mbytes
   Step         TotEng         PotEng         KinEng         Press           Temp          Volume        Density     c_max_pace_gamma
         0  -4859.3795     -4859.3795      0             -15249.985      0              8084.0073      1.2433848      0.6550148    
       100  -4870.181      -4870.181       0             -8271.4786      0              8084.0073      1.2433848      0.6550148    
       200  -4870.1941     -4870.1941      0             -8252.9859      0              8084.0073      1.2433848      0.6550148    
       300  -4870.1942     -4870.1942      0             -8253.5114      0              8084.0073      1.2433848      0.6550148    
       340  -4870.1942     -4870.1942      0             -8253.6325      0              8084.0073      1.2433848      0.6550148    
Loop time of 6.85217 on 28 procs for 340 steps with 1008 atoms

99.5% CPU use with 28 MPI tasks x 1 OpenMP threads

Minimization stats:
  Stopping criterion = force tolerance
  Energy initial, next-to-last, final = 
     -4859.37950969087  -4870.19417354635  -4870.19417355022
  Force two-norm initial, final = 9.3928037 0.00045185036
  Force max component initial, final = 0.67588365 4.4621563e-05
  Final line search alpha, max atom move = 1 4.4621563e-05
  Iterations, force evaluations = 340 680

MPI task timing breakdown:
Section |  min time  |  avg time  |  max time  |%varavg| %total
---------------------------------------------------------------
Pair    | 5.5267     | 5.9902     | 6.6919     |  12.1 | 87.42
Neigh   | 0.00071549 | 0.0007809  | 0.00089015 |   0.0 |  0.01
Comm    | 0.12425    | 0.79518    | 1.2937     |  34.4 | 11.60
Output  | 0.00024896 | 0.00025584 | 0.00034247 |   0.0 |  0.00
Modify  | 0.0008535  | 0.00099857 | 0.0013497  |   0.0 |  0.01
Other   |            | 0.06476    |            |       |  0.95

Nlocal:             36 ave          40 max          33 min
Histogram: 2 3 9 0 4 4 0 2 3 1
Nghost:           1014 ave        1031 max        1000 min
Histogram: 4 5 4 1 3 1 0 4 4 2
Neighs:              0 ave           0 max           0 min
Histogram: 28 0 0 0 0 0 0 0 0 0
FullNghs:      5234.93 ave        5831 max        4785 min
Histogram: 2 3 6 3 4 3 1 2 3 1

Total # of neighbors = 146578
Ave neighs/atom = 145.41468
Neighbor list builds = 5
Dangerous builds = 0

################## equilibration of main calculation
# Equilibrate to specified number of ice

fix             3 all nph tri ${pressure} ${pressure} ${pressureDamp}
fix             3 all nph tri 5000 ${pressure} ${pressureDamp}
fix             3 all nph tri 5000 5000 ${pressureDamp}
fix             3 all nph tri 5000 5000 1
fix             4 all temp/csvr ${temperature} ${temperature} ${tempDamp} ${seed}
fix             4 all temp/csvr 280 ${temperature} ${tempDamp} ${seed}
fix             4 all temp/csvr 280 280 ${tempDamp} ${seed}
fix             4 all temp/csvr 280 280 0.1 ${seed}
fix             4 all temp/csvr 280 280 0.1 62568
velocity 	all create ${temperature} ${seed} dist gaussian
velocity 	all create 280 ${seed} dist gaussian
velocity 	all create 280 62568 dist gaussian

run 200000
Per MPI rank memory allocation (min/avg/max) = 3.489 | 3.491 | 3.492 Mbytes
   Step         TotEng         PotEng         KinEng         Press           Temp          Volume        Density     c_max_pace_gamma
       340  -4833.748      -4870.1942      36.44619      -3438.0976      280            8084.0073      1.2433848      0.6550148    
       400  -4828.404      -4852.9091      24.505069      5336.3577      188.26163      8063.5472      1.2465397      0.6550148    
       500  -4822.1145     -4844.0909      21.976362      4093.1124      168.83469      7968.286       1.2614421      0.6550148    
       600  -4816.5962     -4842.8263      26.230115      4018.3708      201.5144       7829.4971      1.283803       0.6550148    
       700  -4811.6573     -4841.0632      29.405942      5876.5121      225.91288      7702.4011      1.3049868      0.6550148    
       800  -4808.2075     -4839.1988      30.991326      10254.506      238.09268      7624.449       1.3183289      0.6550148    
       900  -4805.7318     -4837.1311      31.399318      8010.7341      241.22711      7607.6604      1.3212382      0.6550148    
      1000  -4804.1664     -4837.461       33.294551      8338.3689      255.78735      7647.926       1.314282       0.77401244   
      1100  -4802.6697     -4836.0814      33.411727      7856.7783      256.68756      7732.1542      1.2999652      0.77401244   
      1200  -4801.6149     -4836.1355      34.52055       8913.4137      265.20616      7837.3784      1.282512       0.77401244   
      1300  -4799.8076     -4834.2864      34.478815      4445.0061      264.88552      7934.4508      1.2668214      0.77401244   
      1400  -4800.3909     -4834.2187      33.827782      5365.9208      259.88393      8006.4237      1.2554334      0.77401244   
      1500  -4798.8468     -4834.8441      35.997267      2584.7545      276.55112      8048.1346      1.2489269      0.77401244   
      1600  -4797.4217     -4832.7263      35.304566      3425.5815      271.2294       8057.3029      1.2475057      0.77401244   
      1700  -4797.4454     -4832.9178      35.472389      4339.011       272.51871      8037.9728      1.2505058      0.77401244   
      1800  -4798.0951     -4833.6072      35.512102      2589.0843      272.82381      7996.192       1.2570398      0.77401244   
      1900  -4798.4443     -4835.391       36.946694      6069.3079      283.84515      7937.6808      1.2663059      0.77401244   
      2000  -4796.8082     -4834.1249      37.316722      9115.2048      286.68791      7878.0703      1.2758875      0.65842751   
      2100  -4796.0404     -4831.8929      35.852503      3976.0353      275.43896      7834.8124      1.282932       0.65842751   
      2200  -4796.4739     -4831.9065      35.432691      6489.2679      272.21373      7814.6996      1.2862339      0.65842751   
      2300  -4798.9588     -4833.8102      34.851401      11147.788      267.74794      7822.2103      1.2849989      0.65842751   
      2400  -4796.5933     -4832.8928      36.299451      5501.5394      278.87266      7855.047       1.2796272      0.65842751   
      2500  -4796.6836     -4833.258       36.5744        5643.3356      280.98498      7900.6845      1.2722355      0.65842751   
      2600  -4797.7235     -4833.3329      35.609342      6594.6003      273.57086      7947.143       1.2647981      0.65842751   
      2700  -4798.0169     -4833.9426      35.925727      3992.6935      276.00151      7986.1614      1.2586187      0.65842751   
      2800  -4796.0592     -4832.8948      36.835545      3437.102       282.99124      8005.3802      1.255597       0.65842751   
      2900  -4797.6019     -4833.521       35.919111      4295.092       275.95068      8002.4723      1.2560533      0.65842751   
      3000  -4796.5832     -4832.2263      35.643101      6132.5883      273.83022      7982.1325      1.2592539      0.62373607   
      3100  -4796.6266     -4831.9719      35.345324      6350.9657      271.54253      7953.115       1.2638484      0.62373607   
      3200  -4797.3237     -4833.8548      36.531104      7832.5433      280.65235      7918.9148      1.2693067      0.62373607   
      3300  -4797.6633     -4834.0665      36.403229      5115.7473      279.66995      7884.536       1.2748412      0.62373607   
      3400  -4797.3851     -4833.1626      35.777424      6420.0136      274.86216      7858.3329      1.2790921      0.62373607   
      3500  -4795.44       -4831.1125      35.672492      5123.5381      274.05602      7845.8494      1.2811273      0.62373607   
      3600  -4796.8518     -4833.4793      36.6275        6779.5768      281.39292      7853.8648      1.2798198      0.62373607   
      3700  -4796.9075     -4832.7793      35.871836      6307.3171      275.58749      7882.2121      1.2752171      0.62373607   
      3800  -4796.9076     -4833.7596      36.852046      4187.5383      283.11801      7925.4418      1.2682614      0.62373607   
      3900  -4795.8148     -4831.781       35.966232      4812.1892      276.31269      7972.7652      1.2607334      0.62373607   
      4000  -4796.1456     -4831.8851      35.739496      2510.581       274.57077      8016.6168      1.2538371      0.68235767   
      4100  -4795.3588     -4831.9331      36.574269      2210.0662      280.98397      8045.627       1.2493161      0.68235767   
      4200  -4795.627      -4831.2156      35.588568      136.34183      273.41126      8047.3803      1.2490439      0.68235767   
      4300  -4795.6254     -4832.4421      36.816711      370.73047      282.84655      8017.2602      1.2537365      0.68235767   
      4400  -4794.0189     -4831.9655      37.946666      7327.2021      291.52749      7964.7178      1.2620073      0.68235767   
      4500  -4793.1035     -4830.1874      37.083885      5577.0322      284.89913      7904.2591      1.2716602      0.68235767   
      4600  -4794.2096     -4830.9814      36.771792      8865.1889      282.50145      7853.3756      1.2798995      0.68235767   
      4700  -4795.0693     -4832.8339      37.764606      9243.126       290.12881      7823.5389      1.2847807      0.68235767   
      4800  -4795.6114     -4831.8803      36.26893       8487.5107      278.63819      7823.4467      1.2847958      0.68235767   
      4900  -4794.9009     -4830.8953      35.994476      6595.4601      276.52968      7852.5051      1.2800414      0.68235767   
      5000  -4795.8145     -4832.2897      36.475236      3058.6339      280.22315      7904.9541      1.2715484      0.68527175   
      5100  -4797.0214     -4832.6825      35.661055      6179.5369      273.96815      7966.2769      1.2617603      0.68527175   
      5200  -4797.701      -4832.402       34.70102       1950.4308      266.59263      8019.54        1.2533801      0.68527175   
      5300  -4797.7893     -4833.2486      35.45938       4004.3168      272.41877      8048.3758      1.2488895      0.68527175   
      5400  -4796.865      -4831.9277      35.062742      3436.2928      269.37158      8048.6451      1.2488477      0.68527175   
      5500  -4795.9937     -4831.6244      35.63063       3110.7596      273.73441      8021.9364      1.2530057      0.68527175   
      5600  -4795.858      -4832.8152      36.957159      4832.1964      283.92555      7970.8607      1.2610347      0.68527175   
      5700  -4796.0866     -4831.0087      34.922055      2660.0433      268.29074      7904.8105      1.2715715      0.68527175   
      5800  -4794.81       -4832.2657      37.455693      7384.1455      287.75557      7843.8194      1.2814588      0.68527175   
      5900  -4794.9805     -4832.7631      37.782615      4599.9249      290.26716      7805.2835      1.2877856      0.68527175   
      6000  -4796.7626     -4833.5521      36.789517      5685.0615      282.63763      7797.1427      1.2891301      0.66951026   
      6100  -4797.8872     -4834.2811      36.393879      5938.3324      279.59812      7822.7145      1.2849161      0.66951026   
      6200  -4798.8494     -4834.3508      35.501473      5126.9289      272.74215      7872.3783      1.27681        0.66951026   
      6300  -4798.4966     -4832.5569      34.060252      1116.636       261.66989      7931.3496      1.2673167      0.66951026   
      6400  -4796.6627     -4832.6249      35.962237      3796.8848      276.282        7987.2504      1.258447       0.66951026   
      6500  -4797.0103     -4832.5804      35.570133      2769.5149      273.26964      8023.7947      1.2527155      0.66951026   
      6600  -4796.9646     -4831.6005      34.635852      3296.5528      266.09197      8031.9263      1.2514472      0.66951026   
      6700  -4797.6533     -4833.0486      35.395271      3362.1354      271.92625      8010.958       1.2547228      0.66951026   
      6800  -4796.2365     -4832.0966      35.860027      3091.3658      275.49676      7970.0324      1.2611657      0.66951026   
      6900  -4796.2462     -4832.4204      36.174231      3544.9816      277.91065      7921.3721      1.268913       0.66951026   
      7000  -4795.438      -4832.4031      36.965101      5498.3679      283.98656      7876.7937      1.2760943      0.75245886   
      7100  -4796.5701     -4832.1179      35.547731      6676.4428      273.09753      7847.7972      1.2808093      0.75245886   
      7200  -4796.7887     -4832.7588      35.970086      8368.7162      276.3423       7839.0706      1.2822351      0.75245886   
      7300  -4796.5072     -4832.0152      35.507995      6988.1149      272.79225      7847.526       1.2808536      0.75245886   
      7400  -4796.2246     -4833.2045      36.979926      2078.4174      284.10046      7872.337       1.2768167      0.75245886   
      7500  -4795.9604     -4832.5395      36.579084      5260.4491      281.02096      7903.6485      1.2717584      0.75245886   
      7600  -4794.7146     -4831.3574      36.642771      5037.24        281.51024      7936.7882      1.2664483      0.75245886   
      7700  -4796.0934     -4831.892       35.798619      1887.4039      275.025        7965.3115      1.2619132      0.75245886   
      7800  -4796.7692     -4832.3647      35.595494      2388.8049      273.46447      7988.0424      1.2583223      0.75245886   
      7900  -4798.527      -4832.8737      34.346639      1737.8344      263.87007      7992.8326      1.2575682      0.75245886   
      8000  -4798.3608     -4833.6128      35.252054      4832.776       270.82598      7975.6982      1.2602698      0.64649543   
      8100  -4798.4268     -4833.944       35.517187      3247.3765      272.86288      7943.1756      1.2654299      0.64649543   
      8200  -4798.4817     -4834.5972      36.115534      4531.0382      277.45972      7901.4471      1.2721128      0.64649543   
      8300  -4798.2316     -4833.529       35.297403      8487.3993      271.17437      7857.141       1.2792862      0.64649543   
      8400  -4798.3223     -4833.1892      34.866909      5245.2668      267.86708      7825.2851      1.284494       0.64649543   
      8500  -4796.9397     -4833.66        36.720344      4368.3478      282.1062       7815.0536      1.2861757      0.64649543   
      8600  -4798.2414     -4832.9586      34.717199      4973.1937      266.71692      7828.7968      1.2839178      0.64649543   
      8700  -4797.145      -4833.1626      36.017592      6553.4987      276.70726      7856.4134      1.2794046      0.64649543   
      8800  -4795.8153     -4830.9401      35.124865      3776.4475      269.84884      7894.8017      1.2731836      0.64649543   
      8900  -4795.4936     -4831.8662      36.372579      2864.0995      279.43448      7942.3742      1.2655575      0.64649543   
      9000  -4796.0153     -4831.388       35.372726      7017.9325      271.75304      7987.6698      1.258381       0.79246237   
      9100  -4795.9564     -4832.136       36.179663      6225.455       277.95238      8025.0884      1.2525135      0.79246237   
      9200  -4796.3089     -4831.7009      35.392006      3856.2013      271.90116      8040.1234      1.2501713      0.79246237   
      9300  -4794.2727     -4830.857       36.584265      3710.7905      281.06077      8035.7346      1.2508541      0.79246237   
      9400  -4795.2235     -4830.9257      35.702188      1866.9614      274.28416      8006.9965      1.2553436      0.79246237   
      9500  -4793.896      -4829.6673      35.7713        3139.2216      274.81511      7959.9661      1.2627606      0.79246237   
      9600  -4793.4707     -4829.2768      35.806134      1068.5546      275.08273      7905.2339      1.2715034      0.79246237   
      9700  -4794.5078     -4832.3918      37.884009      3396.6067      291.04613      7854.359       1.2797393      0.79246237   
      9800  -4794.4555     -4831.7345      37.279009      4251.3207      286.39818      7820.1728      1.2853337      0.79246237   
      9900  -4794.4836     -4830.5612      36.077545      7667.1244      277.16786      7811.6047      1.2867435      0.79246237   
     10000  -4795.46       -4833.4183      37.95828       6794.5122      291.61672      7836.9984      1.2825742      0.69878473   
     10100  -4796.1983     -4832.6526      36.45423       5215.7807      280.06176      7890.0968      1.2739428      0.69878473   
     10200  -4796.7996     -4832.9031      36.10349       6385.8967      277.36718      7955.1964      1.2635177      0.69878473   
     10300  -4796.8865     -4831.6529      34.766445      1876.0203      267.09526      8013.8682      1.2542672      0.69878473   
     10400  -4795.1458     -4831.3678      36.222074      3948.4759      278.27821      8052.8789      1.2481911      0.69878473   
     10500  -4793.801      -4830.2293      36.428209      3544.4929      279.86185      8064.25        1.2464311      0.69878473   
     10600  -4792.0644     -4830.1667      38.10231       546.09959      292.72323      8048.0275      1.2489435      0.69878473   
     10700  -4793.9245     -4830.8321      36.907606      1465.6397      283.54485      8012.0637      1.2545497      0.69878473   
     10800  -4793.6261     -4831.5185      37.892379      5045.0896      291.11043      7964.7026      1.2620097      0.69878473   
     10900  -4794.6282     -4831.6122      36.983982      6617.5723      284.13161      7915.8697      1.269795       0.69878473   
     11000  -4794.4325     -4832.7531      38.320524      6669.3316      294.39968      7872.9145      1.2767231      0.73284492   
     11100  -4796.8339     -4832.2888      35.454969      6867.117       272.38489      7848.9475      1.2806216      0.73284492   
     11200  -4796.7616     -4831.0972      34.335668      7102.2193      263.78579      7849.4845      1.280534       0.73284492   
     11300  -4796.6932     -4832.8939      36.200649      8151.237       278.11362      7872.952       1.276717       0.73284492   
     11400  -4797.3752     -4833.2878      35.912549      7613.0643      275.90027      7912.29        1.2703695      0.73284492   
     11500  -4797.2952     -4833.2135      35.918359      4009.4265      275.9449       7955.5686      1.2634586      0.73284492   
     11600  -4796.6815     -4833.1802      36.498708      4983.5737      280.40347      7989.1312      1.2581508      0.73284492   
     11700  -4795.5223     -4831.2542      35.73191       9886.3799      274.5125       8007.5391      1.2552585      0.73284492   
     11800  -4794.945      -4830.7568      35.811761      8227.5753      275.12596      8015.1467      1.2540671      0.73284492   
     11900  -4794.6805     -4831.529       36.848463      2452.4296      283.09048      8012.2001      1.2545283      0.73284492   
     12000  -4794.7184     -4832.3614      37.643003      3248.9046      289.19458      7997.0564      1.2569039      0.62232157   
     12100  -4794.7223     -4830.48        35.75768       3380.4277      274.71048      7970.6642      1.2610658      0.62232157   
     12200  -4792.8018     -4830.899       38.097195      5867.0547      292.68394      7940.5947      1.2658412      0.62232157   
     12300  -4792.9874     -4830.6355      37.648042      5906.636       289.23329      7912.8044      1.2702869      0.62232157   
     12400  -4792.2532     -4831.1445      38.891279      5358.4539      298.78454      7895.0839      1.273138       0.62232157   
     12500  -4791.3122     -4830.0402      38.728059      7504.8359      297.53059      7894.0384      1.2733067      0.62232157   
     12600  -4791.2119     -4830.626       39.414083      5893.0852      302.801        7913.7701      1.2701319      0.62232157   
     12700  -4791.8482     -4830.4622      38.614011      1828.4555      296.65441      7946.2448      1.2649411      0.62232157   
     12800  -4791.9847     -4830.1071      38.122353      2322.0533      292.87722      7984.2483      1.2589202      0.62232157   
     12900  -4791.8444     -4829.4421      37.597702      6094.3344      288.84655      8017.765       1.2536576      0.62232157   
     13000  -4791.2483     -4830.4027      39.154381      4625.4382      300.80583      8041           1.250035       0.69815802   
     13100  -4792.7155     -4830.3879      37.672455      2145.2847      289.42085      8046.972       1.2491073      0.69815802   
     13200  -4792.8641     -4829.827       36.962861      3299.433       283.96936      8030.4687      1.2516744      0.69815802   
     13300  -4792.1044     -4829.6475      37.543119      3684.4512      288.42722      7996.1964      1.2570391      0.69815802   
     13400  -4792.6518     -4829.254       36.602217      4269.5147      281.19869      7957.0377      1.2632253      0.69815802   
     13500  -4793.4854     -4831.33        37.844541      6501.4566      290.74291      7921.0483      1.2689648      0.69815802   
     13600  -4793.573      -4830.6826      37.109646      5471.3122      285.09704      7895.0903      1.273137       0.69815802   
     13700  -4794.25       -4831.3181      37.068103      4603.4328      284.77788      7879.989       1.2755769      0.69815802   
     13800  -4794.0128     -4831.035       37.022217      2821.0795      284.42536      7877.4048      1.2759953      0.69815802   
     13900  -4794.5525     -4832.4792      37.926689      7013.8721      291.37402      7890.7728      1.2738336      0.69815802   
     14000  -4794.9297     -4831.903       36.973286      7217.9951      284.04944      7918.1716      1.2694258      0.73865428   
     14100  -4794.6007     -4831.0116      36.410859      2281.3153      279.72856      7952.2015      1.2639936      0.73865428   
     14200  -4794.2782     -4831.9866      37.708374      2864.5108      289.6968       7984.7747      1.2588372      0.73865428   
     14300  -4795.6732     -4832.0658      36.39266       2051.1304      279.58875      8006.1924      1.2554697      0.73865428   
     14400  -4795.7542     -4831.7898      36.035685      2992.0358      276.84627      8015.2507      1.2540508      0.73865428   
     14500  -4796.0515     -4832.2851      36.233641      6070.7453      278.36707      8006.7304      1.2553853      0.73865428   
     14600  -4797.1982     -4832.7059      35.507755      4830.3496      272.79042      7984.2476      1.2589203      0.73865428   
     14700  -4795.4442     -4831.8077      36.363554      5313.1173      279.36514      7953.8559      1.2637307      0.73865428   
     14800  -4796.1157     -4831.9193      35.803635      3704.6396      275.06353      7920.9978      1.2689729      0.73865428   
     14900  -4796.3504     -4832.5507      36.20028       3714.485       278.11078      7892.3644      1.2735767      0.73865428   
     15000  -4796.0051     -4831.8596      35.854468      9288.6501      275.45405      7874.5435      1.276459       0.65547771   
     15100  -4794.981      -4832.0776      37.096588      11835.718      284.99671      7870.7083      1.277081       0.65547771   
     15200  -4794.9815     -4832.6427      37.661142      5177.2381      289.33393      7884.7019      1.2748144      0.65547771   
     15300  -4793.7727     -4830.8106      37.037948      7116.2884      284.54621      7911.7599      1.2704546      0.65547771   
     15400  -4795.8532     -4831.3743      35.521066      5236.4377      272.89267      7947.8947      1.2646785      0.65547771   
     15500  -4796.5985     -4833.5009      36.902415      4252.3367      283.50497      7982.7736      1.2591528      0.65547771   
     15600  -4797.2722     -4833.2692      35.996972      4992.8371      276.54885      8004.3429      1.2557598      0.65547771   
     15700  -4797.0897     -4832.3719      35.282135      2765.5602      271.05708      8005.9067      1.2555145      0.65547771   
     15800  -4796.7664     -4833.0915      36.325054      6066.1732      279.06936      7991.0838      1.2578434      0.65547771   
     15900  -4794.6107     -4830.8925      36.281714      5497.5612      278.7364       7969.4549      1.2612571      0.65547771   
     16000  -4795.4292     -4831.2543      35.82509       858.48783      275.22836      7945.1269      1.2651191      0.79796419   
     16100  -4796.129      -4832.5111      36.382164      5362.5727      279.50811      7918.9202      1.2693058      0.79796419   
     16200  -4796.4771     -4832.9191      36.44198       5160.0715      279.96765      7896.5832      1.2728963      0.79796419   
     16300  -4796.5407     -4833.2137      36.67294       7990.5798      281.74202      7883.8591      1.2749507      0.79796419   
     16400  -4798.2544     -4833.6413      35.38688       7121.6074      271.86179      7881.3926      1.2753497      0.79796419   
     16500  -4797.0663     -4833.0272      35.960854      3212.4812      276.27138      7888.2653      1.2742385      0.79796419   
     16600  -4796.3224     -4832.5726      36.250287      4746.8301      278.49496      7902.836       1.2718892      0.79796419   
     16700  -4796.3047     -4833.1989      36.894235      7674.6945      283.44213      7922.7257      1.2686962      0.79796419   
     16800  -4796.4471     -4832.796       36.348965      4888.275       279.25306      7946.347       1.2649248      0.79796419   
     16900  -4795.9051     -4833.1549      37.249768      7653.6463      286.17353      7964.7991      1.2619944      0.79796419   
     17000  -4796.4086     -4832.5475      36.138964      7487.2396      277.63972      7975.947       1.2602305      0.643168     
     17100  -4796.8097     -4832.4683      35.658599      4623.5888      273.94929      7974.2481      1.260499       0.643168     
     17200  -4793.7449     -4830.9478      37.202947      5582.3527      285.81382      7956.1172      1.2633715      0.643168     
     17300  -4793.0687     -4829.8006      36.731906      3653.6107      282.19503      7934.1496      1.2668694      0.643168     
     17400  -4793.2334     -4829.095       35.861637      8179.168       275.50913      7915.5036      1.2698537      0.643168     
     17500  -4795.213      -4832.3949      37.18189       6703.4003      285.65206      7906.4255      1.2713118      0.643168     
     17600  -4796.2794     -4831.9083      35.62888       4574.4227      273.72096      7904.5669      1.2716107      0.643168     
     17700  -4794.9798     -4831.5763      36.596497      3689.5261      281.15474      7910.2058      1.2707042      0.643168     
     17800  -4796.1466     -4832.2424      36.095798      3811.1972      277.30809      7923.6322      1.268551       0.643168     
     17900  -4797.3964     -4832.5434      35.147016      5738.0911      270.01902      7933.3351      1.2669995      0.643168     
     18000  -4797.4754     -4832.3674      34.892001      4630.9732      268.05985      7936.9729      1.2664188      0.67404605   
     18100  -4795.4559     -4831.3323      35.876377      4949.0973      275.62237      7936.9986      1.2664147      0.67404605   
     18200  -4795.8307     -4832.4427      36.612006      2605.6383      281.27389      7937.8422      1.2662801      0.67404605   
     18300  -4795.0424     -4832.7455      37.70309       3184.9571      289.65621      7936.8781      1.2664339      0.67404605   
     18400  -4795.4288     -4832.2523      36.823427      6217.9361      282.89814      7934.7839      1.2667682      0.67404605   
     18500  -4796.1512     -4833.1672      37.015992      3954.4333      284.37754      7935.2839      1.2666883      0.67404605   
     18600  -4797.4005     -4833.4338      36.03333       7048.9456      276.82817      7935.3105      1.2666841      0.67404605   
     18700  -4796.0839     -4833.1414      37.057555      5908.1018      284.69685      7930.3566      1.2674754      0.67404605   
     18800  -4797.845      -4833.6378      35.792802      3184.5692      274.98031      7923.0678      1.2686414      0.67404605   
     18900  -4796.1379     -4832.2772      36.139226      3109.2614      277.64173      7911.5424      1.2704895      0.67404605   
     19000  -4796.369      -4832.6119      36.242887      7833.1662      278.43811      7903.7731      1.2717384      0.67672277   
     19100  -4796.8524     -4832.8091      35.956725      7602.2165      276.23965      7904.0377      1.2716958      0.67672277   
     19200  -4796.0353     -4832.4444      36.409016      6861.399       279.7144       7910.0612      1.2707274      0.67672277   
     19300  -4797.3552     -4833.8019      36.446667      1087.0299      280.00366      7916.9499      1.2696217      0.67672277   
     19400  -4796.5375     -4832.8207      36.283206      5270.113       278.74786      7921.4953      1.2688932      0.67672277   
     19500  -4796.8684     -4832.2599      35.391501      6258.2662      271.89729      7923.7126      1.2685381      0.67672277   
     19600  -4796.1962     -4832.7795      36.583293      5393.1252      281.05329      7925.1079      1.2683148      0.67672277   
     19700  -4796.2437     -4832.5557      36.311993      5254.1714      278.96902      7926.973       1.2680164      0.67672277   
     19800  -4794.8793     -4831.2327      36.35333       8022.7759      279.28659      7934.3788      1.2668329      0.67672277   
     19900  -4796.0497     -4832.6385      36.588762      6908.8565      281.09531      7947.361       1.2647634      0.67672277   
     20000  -4795.6855     -4832.1045      36.418982      4126.7116      279.79097      7957.4582      1.2631586      0.66757337   
     20100  -4794.7776     -4831.7899      37.012244      2998.0729      284.34874      7957.2243      1.2631957      0.66757337   
     20200  -4796.0519     -4831.3514      35.299489      2465.0572      271.1904       7949.5053      1.2644223      0.66757337   
     20300  -4795.3519     -4832.6356      37.283635      5849.6967      286.43372      7938.3016      1.2662068      0.66757337   
     20400  -4795.8853     -4833.0672      37.181915      4590.6005      285.65225      7928.3936      1.2677892      0.66757337   
     20500  -4795.7098     -4831.8042      36.094425      7412.7408      277.29754      7919.7655      1.2691704      0.66757337   
     20600  -4797.5114     -4832.2983      34.786909      6007.9495      267.25247      7913.1544      1.2702307      0.66757337   
     20700  -4797.9261     -4833.5581      35.631947      7193.1846      273.74452      7906.7623      1.2712576      0.66757337   
     20800  -4797.4051     -4833.4136      36.008423      3495.943       276.63682      7900.7438      1.272226       0.66757337   
     20900  -4796.2769     -4833.6153      37.338393      4532.9483      286.85439      7898.1492      1.2726439      0.66757337   
     21000  -4796.1289     -4832.7175      36.588593      4985.1851      281.09402      7900.9656      1.2721903      0.785658     
     21100  -4795.4685     -4831.3221      35.85364       4451.5192      275.4477       7906.9094      1.271234       0.785658     
     21200  -4796.3151     -4832.0119      35.69678       4824.5533      274.24261      7920.8159      1.2690021      0.785658     
     21300  -4796.9783     -4833.2586      36.280313      1535.138       278.72564      7935.7462      1.2666146      0.785658     
     21400  -4796.7602     -4832.0497      35.289438      3578.1201      271.11318      7946.5634      1.2648904      0.785658     
     21500  -4796.0692     -4831.556       35.486801      5231.2448      272.62944      7951.9378      1.2640355      0.785658     
     21600  -4797.2055     -4833.3809      36.175382      4846.4213      277.9195       7952.8356      1.2638928      0.785658     
     21700  -4795.8116     -4832.0699      36.258357      4778.1768      278.55696      7946.2372      1.2649423      0.785658     
     21800  -4794.3593     -4831.4969      37.137597      2478.2268      285.31177      7938.7566      1.2661343      0.785658     
     21900  -4794.962      -4830.8595      35.897494      7331.3684      275.7846       7934.0624      1.2668834      0.785658     
     22000  -4794.7245     -4831.1915      36.466982      6841.6561      280.15973      7932.0074      1.2672116      0.69414323   
     22100  -4796.0672     -4833.8562      37.788978      5682.5817      290.31604      7931.3784      1.2673121      0.69414323   
     22200  -4795.9898     -4831.7068      35.717067      3241.1855      274.39847      7928.9778      1.2676958      0.69414323   
     22300  -4796.9366     -4832.2007      35.264054      5086.6138      270.91816      7923.2769      1.2686079      0.69414323   
     22400  -4797.8204     -4833.1055      35.285038      6668.8764      271.07938      7917.3052      1.2695648      0.69414323   
     22500  -4796.4056     -4832.8987      36.493101      5774.0989      280.36039      7910.862       1.2705988      0.69414323   
     22600  -4796.4779     -4832.1558      35.67789       5277.8619      274.09749      7906.2646      1.2713376      0.69414323   
     22700  -4794.8097     -4831.6773      36.86763       4141.9868      283.23773      7907.2834      1.2711738      0.69414323   
     22800  -4795.4716     -4832.1166      36.645024      8272.9315      281.52755      7911.4534      1.2705038      0.69414323   
     22900  -4794.6579     -4831.451       36.793108      5099.4798      282.66521      7921.3226      1.2689209      0.69414323   
     23000  -4795.1128     -4831.1285      36.015709      1599.9311      276.6928       7936.7728      1.2664507      0.77385294   
     23100  -4795.1095     -4831.7285      36.619086      6181.6465      281.32828      7951.4182      1.2641181      0.77385294   
     23200  -4795.4732     -4830.9976      35.524393      1760.2184      272.91824      7967.265       1.2616038      0.77385294   
     23300  -4794.9536     -4831.0057      36.052171      6428.2672      276.97292      7979.2523      1.2597085      0.77385294   
     23400  -4794.5417     -4831.8474      37.305742      4391.2252      286.60355      7980.2852      1.2595454      0.77385294   
     23500  -4794.869      -4831.2031      36.334148      6009.571       279.13923      7966.7049      1.2616925      0.77385294   
     23600  -4793.7816     -4831.3689      37.587282      6288.1547      288.7665       7947.3129      1.2647711      0.77385294   
     23700  -4794.9791     -4832.6682      37.689122      6027.4919      289.5489       7926.9047      1.2680273      0.77385294   
     23800  -4795.9456     -4831.5195      35.573898      4837.5611      273.29856      7905.9613      1.2713864      0.77385294   
     23900  -4795.9826     -4833.0757      37.093103      4266.0449      284.96994      7892.0671      1.2736247      0.77385294   
     24000  -4796.0321     -4833.2079      37.175734      8768.0582      285.60476      7891.1741      1.2737688      0.61353207   
     24100  -4796.2679     -4832.9508      36.682825      2993.385       281.81796      7901.274       1.2721406      0.61353207   
     24200  -4795.4868     -4831.8727      36.385941      3814.5584      279.53713      7918.9242      1.2693052      0.61353207   
     24300  -4794.789      -4830.5587      35.769625      3679.4462      274.80225      7945.9363      1.2649902      0.61353207   
     24400  -4794.8944     -4831.9361      37.041634      3868.5745      284.57453      7974.3955      1.2604757      0.61353207   
     24500  -4796.1983     -4831.7218      35.523514      5690.8207      272.91148      7996.0545      1.2570614      0.61353207   
     24600  -4794.5331     -4832.1802      37.647089      1569.3887      289.22597      8003.3994      1.2559078      0.61353207   
     24700  -4795.7604     -4831.0896      35.329193      1001.9791      271.4186       7995.5268      1.2571444      0.61353207   
     24800  -4794.6488     -4830.7336      36.08483       6479.9748      277.22383      7977.9306      1.2599172      0.61353207   
     24900  -4796.3664     -4832.732       36.365601      5884.5956      279.38086      7956.3284      1.263338       0.61353207   
     25000  -4796.6642     -4832.4298      35.765595      4337.3349      274.77129      7934.8911      1.2667511      0.66423353   
     25100  -4796.3335     -4832.1475      35.813996      6413.373       275.14313      7915.4225      1.2698667      0.66423353   
     25200  -4796.2146     -4832.2609      36.046278      2811.9895      276.92765      7901.293       1.2721376      0.66423353   
     25300  -4795.8871     -4832.7642      36.877012      5849.8254      283.30981      7891.3441      1.2737414      0.66423353   
     25400  -4796.2403     -4833.6652      37.424832      8248.4537      287.51847      7890.9241      1.2738092      0.66423353   
     25500  -4796.5763     -4833.4511      36.874825      4028.9216      283.29301      7900.2905      1.272299       0.66423353   
     25600  -4795.3664     -4830.8783      35.511923      6786.9307      272.82244      7918.4285      1.2693847      0.66423353   
     25700  -4795.9197     -4832.9318      37.012121      3782.2217      284.3478       7942.2302      1.2655805      0.66423353   
     25800  -4797.5365     -4832.8095      35.272923      4645.183       270.9863       7961.3579      1.2625399      0.66423353   
     25900  -4796.8377     -4831.722       34.884342      4882.0971      268.00101      7968.5492      1.2614005      0.66423353   
     26000  -4795.5642     -4830.7361      35.171965      5760.6638      270.21069      7965.8756      1.2618238      0.73814946   
     26100  -4797.0441     -4832.9261      35.881922      5043.2592      275.66497      7955.2065      1.2635161      0.73814946   
     26200  -4798.0083     -4833.1661      35.15783       2927.1222      270.10209      7936.3585      1.2665168      0.73814946   
     26300  -4797.3613     -4832.6484      35.287092      5090.7643      271.09516      7912.9767      1.2702592      0.73814946   
     26400  -4799.5907     -4833.3865      33.795784      6560.3397      259.6381       7891.5331      1.2737109      0.73814946   
     26500  -4799.4067     -4834.8326      35.425934      6869.8457      272.16182      7878.2735      1.2758546      0.73814946   
     26600  -4798.0378     -4833.9578      35.920002      4676.3706      275.95753      7873.3004      1.2766605      0.73814946   
     26700  -4797.848      -4832.7853      34.937347      4760.5349      268.40822      7874.2356      1.2765089      0.73814946   
     26800  -4796.0829     -4831.9815      35.898587      5329.611       275.79301      7880.3604      1.2755168      0.73814946   
     26900  -4794.6769     -4831.2004      36.523515      7198.3368      280.59405      7895.9107      1.2730047      0.73814946   
     27000  -4795.4503     -4831.8195      36.369126      2969.8513      279.40795      7919.4144      1.2692266      0.69104996   
     27100  -4796.0817     -4833.2917      37.210002      4736.7181      285.86803      7946.8912      1.2648382      0.69104996   
     27200  -4794.623      -4831.426       36.802921      2062.0672      282.7406       7973.1911      1.2606661      0.69104996   
     27300  -4794.3091     -4830.1534      35.844253      5300.0407      275.37558      7994.9795      1.2572305      0.69104996   
     27400  -4795.1936     -4831.4011      36.207479      5270.5717      278.16608      8005.2756      1.2556135      0.69104996   
     27500  -4793.9374     -4830.6781      36.740731      4607.6061      282.26283      7999.1628      1.256573       0.69104996   
     27600  -4793.8292     -4832.1005      38.27128       3463.8984      294.02136      7980.443       1.2595205      0.69104996   
     27700  -4793.8173     -4830.1424      36.325105      2132.0665      279.06975      7952.7626      1.2639044      0.69104996   
     27800  -4795.3915     -4832.7418      37.350309      2850.8018      286.94594      7925.4574      1.2682589      0.69104996   
     27900  -4795.5113     -4831.2606      35.749345      4826.7173      274.64644      7903.1788      1.271834       0.69104996   
     28000  -4794.3084     -4831.6043      37.295919      4875.8274      286.52809      7892.3156      1.2735846      0.64104612   
     28100  -4793.6796     -4831.5653      37.885667      4327.3052      291.05886      7898.0857      1.2726542      0.64104612   
     28200  -4795.4602     -4832.2073      36.74702       6201.8152      282.31114      7918.9895      1.2692947      0.64104612   
     28300  -4794.6341     -4830.0016      35.367429      5195.7758      271.71235      7943.6455      1.265355       0.64104612   
     28400  -4795.9115     -4831.7152      35.803739      2178.8809      275.06433      7966.543       1.2617181      0.64104612   
     28500  -4795.8276     -4832.0928      36.26517       4163.0585      278.6093       7979.5432      1.2596625      0.64104612   
     28600  -4795.6413     -4831.7855      36.144214      2806.6654      277.68005      7979.7165      1.2596352      0.64104612   
     28700  -4796.529      -4834.0619      37.532917      2616.1113      288.34884      7970.6491      1.2610682      0.64104612   
     28800  -4796.805      -4832.7884      35.983381      5795.9537      276.44444      7957.1389      1.2632093      0.64104612   
     28900  -4795.2356     -4831.6494      36.413773      6903.3134      279.75095      7942.4916      1.2655389      0.64104612   
     29000  -4795.53       -4833.6904      38.16038       4294.0886      293.16936      7931.3924      1.2673099      0.69196043   
     29100  -4793.7434     -4830.7144      36.970998      6728.3149      284.03186      7919.8781      1.2691523      0.69196043   
     29200  -4795.7872     -4832.4405      36.653322      8300.7306      281.5913       7915.4048      1.2698696      0.69196043   
     29300  -4795.8433     -4831.5416      35.698369      6825.8224      274.25482      7917.1015      1.2695974      0.69196043   
     29400  -4795.0034     -4832.5126      37.509239      5184.2774      288.16693      7924.0921      1.2684774      0.69196043   
     29500  -4793.4375     -4831.5073      38.069714      4780.2526      292.47282      7933.7989      1.2669254      0.69196043   
     29600  -4794.2059     -4830.9831      36.777198      4970.9226      282.54298      7946.1943      1.2649492      0.69196043   
     29700  -4795.0084     -4831.4782      36.469751      4045.6493      280.18101      7955.642       1.263447       0.69196043   
     29800  -4794.3928     -4831.2783      36.885531      5456.5048      283.37526      7960.1027      1.2627389      0.69196043   
     29900  -4794.4071     -4831.1645      36.757337      316.65234      282.3904       7958.4531      1.2630007      0.69196043   
     30000  -4795.5233     -4833.3235      37.800229      6662.6375      290.40248      7952.6618      1.2639204      0.69765444   
     30100  -4795.7584     -4832.074       36.31555       2458.8821      278.99634      7943.5863      1.2653644      0.69765444   
     30200  -4794.8027     -4830.0429      35.240204      5044.0017      270.73494      7928.0703      1.2678409      0.69765444   
     30300  -4794.2434     -4832.9346      38.691114      5317.3317      297.24676      7908.6206      1.2709589      0.69765444   
     30400  -4794.2951     -4832.4232      38.128085      3619.261       292.92126      7891.1191      1.2737777      0.69765444   
     30500  -4794.5292     -4832.6771      38.147918      3552.1202      293.07362      7883.1671      1.2750626      0.69765444   
     30600  -4795.5406     -4831.4025      35.861924      4186.4296      275.51134      7890.1499      1.2739342      0.69765444   
     30700  -4795.4056     -4832.139       36.733343      4859.3902      282.20606      7907.1795      1.2711905      0.69765444   
     30800  -4794.7824     -4830.6081      35.825738      4172.4559      275.23334      7929.3681      1.2676334      0.69765444   
     30900  -4796.6893     -4832.3165      35.627235      3855.8268      273.70832      7958.3295      1.2630203      0.69765444   
     31000  -4796.3464     -4832.9291      36.582701      7851.7215      281.04875      7981.6607      1.2593284      0.65921254   
     31100  -4797.6528     -4834.4884      36.835513      2768.4581      282.99099      7990.6517      1.2579114      0.65921254   
     31200  -4797.3716     -4831.5415      34.169912      3105.9456      262.51236      7981.2443      1.2593941      0.65921254   
     31300  -4796.873      -4832.537       35.663968      3037.8151      273.99053      7956.4358      1.2633209      0.65921254   
     31400  -4797.046      -4832.7568      35.710852      6688.4403      274.35072      7924.6309      1.2683911      0.65921254   
     31500  -4797.4975     -4832.9982      35.500668      5366.5509      272.73597      7893.2702      1.2734306      0.65921254   
     31600  -4797.4308     -4832.7185      35.287647      7653.0196      271.09942      7869.7902      1.2772299      0.65921254   
     31700  -4797.9344     -4833.2205      35.286031      5196.4167      271.08701      7864.5472      1.2780814      0.65921254   
     31800  -4797.3441     -4834.0988      36.754757      4939.7435      282.37058      7879.0745      1.2757249      0.65921254   
     31900  -4796.8466     -4832.6326      35.785997      3607.7949      274.92802      7906.4457      1.2713085      0.65921254   
     32000  -4796.5888     -4832.1511      35.562308      3376.2679      273.20952      7945.136       1.2651176      0.769335     
     32100  -4795.5012     -4831.4478      35.946544      3985.6099      276.16144      7986.8264      1.2585139      0.769335     
     32200  -4797.2074     -4832.6273      35.419892      6612.1435      272.1154       8025.2812      1.2524834      0.769335     
     32300  -4796.1407     -4831.7158      35.575084      6022.9578      273.30768      8043.6791      1.2496187      0.769335     
     32400  -4795.2594     -4832.076       36.816642      5064.8108      282.84601      8037.3757      1.2505987      0.769335     
     32500  -4795.3344     -4831.6033      36.268902      1142.7539      278.63797      8009.7432      1.2549131      0.769335     
     32600  -4793.5985     -4831.5259      37.92739       4406.8295      291.3794       7968.3724      1.2614285      0.769335     
     32700  -4793.6628     -4831.4908      37.827917      6478.2286      290.6152       7928.5326      1.267767       0.769335     
     32800  -4794.2092     -4830.6476      36.438446      6700.8415      279.9405       7902.4809      1.2719463      0.769335     
     32900  -4795.3636     -4831.489       36.125381      5963.6498      277.53536      7894.285       1.2732669      0.769335     
     33000  -4796.3012     -4832.5599      36.258692      6954.7282      278.55953      7904.9313      1.2715521      0.67848652   
     33100  -4795.7113     -4831.4476      35.736333      4494.2157      274.54648      7926.5379      1.268086       0.67848652   
     33200  -4796.4997     -4832.6708      36.17107       5693.3872      277.88637      7952.6344      1.2639248      0.67848652   
     33300  -4797.3643     -4833.5581      36.193743      3916.7501      278.06055      7976.7079      1.2601103      0.67848652   
     33400  -4796.9379     -4833.0858      36.147837      2889.4075      277.70788      7992.3188      1.257649       0.67848652   
     33500  -4796.8354     -4833.3331      36.497735      5448.8457      280.39599      7999.843       1.2564661      0.67848652   
     33600  -4797.7559     -4833.4908      35.734859      4333.1018      274.53515      7995.6242      1.2571291      0.67848652   
     33700  -4797.707      -4832.5478      34.840843      5740.2193      267.66683      7975.8505      1.2602457      0.67848652   
     33800  -4796.4097     -4833.6439      37.234261      8226.1358      286.0544       7948.3545      1.2646054      0.67848652   
     33900  -4795.3926     -4831.1984      35.805851      6309.1187      275.08055      7925.3061      1.2682831      0.67848652   
     34000  -4796.6822     -4832.6738      35.991664      5525.5877      276.50807      7908.9823      1.2709008      0.74964636   
     34100  -4796.7671     -4833.485       36.717883      3533.3174      282.0873       7898.4128      1.2726015      0.74964636   
     34200  -4797.6525     -4834.1228      36.470355      6131.9744      280.18565      7892.91        1.2734887      0.74964636   
     34300  -4797.2119     -4833.5315      36.319601      4621.797       279.02747      7895.7974      1.273023       0.74964636   
     34400  -4797.1302     -4833.0627      35.932423      6280.1879      276.05295      7901.7298      1.2720673      0.74964636   
     34500  -4797.9181     -4833.0391      35.121035      5601.8011      269.81941      7910.8782      1.2705962      0.74964636   
     34600  -4798.7273     -4833.9557      35.22834       6035.6969      270.64379      7920.6414      1.26903        0.74964636   
     34700  -4796.6468     -4831.737       35.090189      5409.8943      269.58244      7929.1126      1.2676742      0.74964636   
     34800  -4795.9444     -4833.0722      37.127785      4854.1048      285.23639      7938.4503      1.2661831      0.74964636   
     34900  -4796.4471     -4832.7064      36.259288      4875.3053      278.56411      7946.6063      1.2648836      0.74964636   
     35000  -4796.4513     -4832.4661      36.014776      5334.1134      276.68563      7951.1167      1.264166       0.67908664   
     35100  -4795.0736     -4830.842       35.768426      5099.8476      274.79303      7946.9689      1.2648258      0.67908664   
     35200  -4794.6339     -4832.2828      37.648934      4075.3769      289.24015      7939.0052      1.2660946      0.67908664   
     35300  -4794.6375     -4831.4897      36.852183      7623.181       283.11906      7933.3033      1.2670046      0.67908664   
     35400  -4794.171      -4830.6725      36.50143       7490.6326      280.42438      7928.8394      1.2677179      0.67908664   
     35500  -4794.1023     -4831.2212      37.118914      4382.0802      285.16824      7927.3941      1.267949       0.67908664   
     35600  -4795.5038     -4832.1401      36.636321      5716.5303      281.46069      7930.969       1.2673775      0.67908664   
     35700  -4795.2521     -4831.8933      36.641171      3628.8297      281.49795      7937.2925      1.2663678      0.67908664   
     35800  -4795.3822     -4832.2411      36.858869      885.96104      283.17043      7946.2695      1.2649372      0.67908664   
     35900  -4798.0779     -4833.4638      35.385899      4784.6337      271.85425      7950.8153      1.264214       0.67908664   
     36000  -4798.2663     -4833.9612      35.694909      3685.5894      274.22824      7945.3656      1.2650811      0.71020022   
     36100  -4797.4358     -4832.7022      35.266386      6513.2598      270.93609      7929.4329      1.267623       0.71020022   
     36200  -4795.4144     -4833.3996      37.98521       3049.7773      291.82361      7910.0808      1.2707243      0.71020022   
     36300  -4796.172      -4832.5193      36.347211      6566.8387      279.23958      7896.9532      1.2728367      0.71020022   
     36400  -4795.9335     -4831.8937      35.960211      6856.6276      276.26643      7890.991       1.2737984      0.71020022   
     36500  -4796.4484     -4832.1577      35.709336      3788.2093      274.33907      7891.6836      1.2736866      0.71020022   
     36600  -4796.6145     -4833.1286      36.514133      4674.4782      280.52197      7897.8104      1.2726985      0.71020022   
     36700  -4796.4154     -4832.9001      36.484683      6313.1014      280.29572      7906.5248      1.2712958      0.71020022   
     36800  -4796.5566     -4833.1626      36.605952      3704.9861      281.22738      7924.6676      1.2683853      0.71020022   
     36900  -4795.7822     -4832.3492      36.567019      2754.5651      280.92827      7950.3153      1.2642935      0.71020022   
     37000  -4795.7006     -4831.3833      35.682684      4580.5688      274.13432      7979.2059      1.2597158      0.73108421   
     37100  -4795.2964     -4831.7114      36.414962      4296.7424      279.76009      8002.6376      1.2560274      0.73108421   
     37200  -4794.9942     -4830.7531      35.75891       2793.8631      274.71993      8014.2448      1.2542082      0.73108421   
     37300  -4793.096      -4831.4346      38.338648      4241.9367      294.53892      8006.9951      1.2553438      0.73108421   
     37400  -4792.8692     -4830.7552      37.886025      3408.6819      291.06161      7982.6804      1.2591675      0.73108421   
     37500  -4794.2394     -4830.8978      36.658457      5586.1794      281.63075      7949.0699      1.2644916      0.73108421   
     37600  -4794.6723     -4831.6962      37.023869      6250.0562      284.43805      7915.3594      1.2698768      0.73108421   
     37700  -4793.7592     -4831.2301      37.470871      7816.4907      287.87217      7891.679       1.2736873      0.73108421   
     37800  -4795.4271     -4832.9789      37.551723      5876.3546      288.49332      7884.1781      1.2748991      0.73108421   
     37900  -4794.9391     -4831.9158      36.976655      4227.0224      284.07532      7890.5659      1.273867       0.73108421   
     38000  -4795.4539     -4831.5502      36.096212      6916.1433      277.31127      7907.0702      1.2712081      0.67730197   
     38100  -4796.002      -4831.9982      35.99623       10440.224      276.54315      7926.7139      1.2680578      0.67730197   
     38200  -4794.8988     -4831.9156      37.016763      4406.1574      284.38346      7947.6015      1.2647252      0.67730197   
     38300  -4793.6924     -4832.1088      38.41636       4432.3919      295.13594      7967.0971      1.2616304      0.67730197   
     38400  -4791.7158     -4830.2854      38.56953       4129.3627      296.31268      7981.2363      1.2593953      0.67730197   
     38500  -4791.6072     -4829.8772      38.26998       3970.1688      294.01137      7989.6433      1.2580701      0.67730197   
     38600  -4792.5741     -4830.6643      38.090253      4654.0543      292.63061      7990.8474      1.2578806      0.67730197   
     38700  -4794.055      -4831.3993      37.344289      2993.4427      286.89969      7982.5733      1.2591844      0.67730197   
     38800  -4794.7541     -4831.2348      36.480743      2671.4242      280.26545      7968.1202      1.2614684      0.67730197   
     38900  -4795.2562     -4833.1468      37.890598     -580.84025      291.09675      7947.1225      1.2648014      0.67730197   
     39000  -4796.715      -4832.354       35.638909      8104.5234      273.79801      7925.0219      1.2683286      0.71159756   
     39100  -4796.74       -4832.0437      35.303685      4366.1657      271.22264      7903.3416      1.2718078      0.71159756   
     39200  -4798.3546     -4832.4984      34.143718      5713.0776      262.31112      7887.9554      1.2742886      0.71159756   
     39300  -4797.2944     -4833.5777      36.283275      2671.1616      278.74839      7879.2529      1.275696       0.71159756   
     39400  -4797.0334     -4832.5053      35.471932      5772.9988      272.5152       7878.4001      1.2758341      0.71159756   
     39500  -4795.8085     -4832.3642      36.555747      9980.8867      280.84167      7887.4392      1.274372       0.71159756   
     39600  -4797.0317     -4832.3028      35.271041      6783.9356      270.97185      7907.3229      1.2711675      0.71159756   
     39700  -4798.5437     -4833.1953      34.651579      5726.1588      266.21279      7928.6944      1.2677411      0.71159756   
     39800  -4797.2677     -4833.9093      36.641603      4892.4989      281.50127      7944.0584      1.2652892      0.71159756   
     39900  -4797.103      -4833.0461      35.943088      5003.6769      276.13488      7952.1868      1.2639959      0.71159756   
     40000  -4797.3875     -4832.6747      35.287157      3301.2685      271.09566      7951.1568      1.2641597      0.66884865   
     40100  -4796.8714     -4833.2222      36.350782      3261.8385      279.26702      7939.6716      1.2659883      0.66884865   
     40200  -4797.0059     -4832.6273      35.621372      4573.3526      273.66328      7923.0696      1.2686411      0.66884865   
     40300  -4795.8883     -4832.4379      36.549598      7975.6929      280.79444      7908.4169      1.2709916      0.66884865   
     40400  -4795.9498     -4832.108       36.158164      5606.5881      277.78722      7901.54        1.2720978      0.66884865   
     40500  -4796.8603     -4832.3627      35.50238       7950.552       272.74912      7899.9003      1.2723618      0.66884865   
     40600  -4797.3911     -4833.655       36.26391       8171.0079      278.59962      7905.877       1.2714         0.66884865   
     40700  -4796.5389     -4832.7212      36.182323      5531.9351      277.97282      7916.6953      1.2696626      0.66884865   
     40800  -4795.7846     -4831.6339      35.849273      4816.2586      275.41415      7926.4229      1.2681044      0.66884865   
     40900  -4795.9314     -4831.6961      35.764744      6232.5188      274.76475      7938.0024      1.2662546      0.66884865   
     41000  -4793.8391     -4831.5774      37.738303      7266.377       289.92673      7950.0756      1.2643316      0.62063228   
     41100  -4793.7949     -4831.2826      37.48762       5531.6497      288.00084      7956.7354      1.2632733      0.62063228   
     41200  -4793.6126     -4830.1335      36.520902      4534.4896      280.57398      7963.4663      1.2622056      0.62063228   
     41300  -4793.4332     -4830.0188      36.585538      4142.8182      281.07054      7967.2949      1.2615991      0.62063228   
     41400  -4792.8475     -4830.1981      37.35068       6410.0556      286.94879      7970.3075      1.2611222      0.62063228   
     41500  -4795.1762     -4831.5153      36.339042      2530.72        279.17683      7976.6823      1.2601143      0.62063228   
     41600  -4793.4553     -4830.6794      37.224103      2249.3927      285.97636      7974.6179      1.2604405      0.62063228   
     41700  -4794.9779     -4831.1044      36.12653       6377.6292      277.54419      7965.8218      1.2618324      0.62063228   
     41800  -4793.9941     -4831.7285      37.734384      4499.7059      289.89662      7955.0136      1.2635468      0.62063228   
     41900  -4793.3075     -4830.1165      36.80899       7578.7076      282.78723      7945.9501      1.264988       0.62063228   
     42000  -4794.727      -4830.8757      36.148691      8024.7793      277.71444      7942.8698      1.2654786      0.64527972   
     42100  -4796.9749     -4833.2472      36.272227      5836.5619      278.66351      7945.945       1.2649888      0.64527972   
     42200  -4796.0432     -4831.4358      35.39254       6229.1235      271.90527      7950.8602      1.2642068      0.64527972   
     42300  -4797.1565     -4832.3107      35.154198      3230.3974      270.0742       7953.7115      1.2637536      0.64527972   
     42400  -4798.4409     -4834.1182      35.677246      2283.7818      274.09254      7955.3407      1.2634948      0.64527972   
     42500  -4798.8707     -4832.406       33.53523       4036.7032      257.63637      7951.1397      1.2641624      0.64527972   
     42600  -4797.1755     -4832.8604      35.684891      5977.7755      274.15127      7941.8041      1.2656484      0.64527972   
     42700  -4796.9944     -4832.9697      35.975349      7588.5378      276.38273      7925.0485      1.2683243      0.64527972   
     42800  -4798.1123     -4834.0391      35.926839      4259.3386      276.01005      7906.165       1.2713536      0.64527972   
     42900  -4798.2543     -4834.5912      36.336871      7035.1147      279.16014      7888.7171      1.2741656      0.64527972   
     43000  -4798.1561     -4833.9961      35.839974      6767.5226      275.3427       7878.0232      1.2758952      0.66357872   
     43100  -4797.463      -4833.4069      35.943853      8140.6911      276.14076      7874.5919      1.2764511      0.66357872   
     43200  -4798.9782     -4833.5595      34.581323      6489.0717      265.67304      7879.473       1.2756604      0.66357872   
     43300  -4798.677      -4833.5667      34.889711      4658.1117      268.04226      7892.4188      1.273568       0.66357872   
     43400  -4797.0125     -4833.5335      36.521014      5945.1147      280.57484      7910.2317      1.2707         0.66357872   
     43500  -4797.45       -4832.3481      34.89808       3397.02        268.10655      7930.8028      1.2674041      0.66357872   
     43600  -4798.0294     -4833.5668      35.537436      58.027675      273.01844      7949.0386      1.2644965      0.66357872   
     43700  -4797.0072     -4832.8806      35.873486      3849.6406      275.60016      7960.1641      1.2627292      0.66357872   
     43800  -4796.6409     -4831.6355      34.994555      3613.5868      268.84772      7966.8667      1.2616669      0.66357872   
     43900  -4796.0071     -4832.5659      36.55878       3953.5243      280.86497      7969.932       1.2611816      0.66357872   
     44000  -4795.4277     -4832.4988      37.071021      7724.3519      284.8003       7963.3629      1.262222       0.63213626   
     44100  -4795.2694     -4831.5678      36.298414      5904.4919      278.8647       7950.6312      1.2642432      0.63213626   
     44200  -4794.1171     -4831.8871      37.770061      4181.8944      290.17072      7935.7255      1.2666179      0.63213626   
     44300  -4793.8305     -4831.5797      37.749174      4486.1881      290.01025      7924.5374      1.2684061      0.63213626   
     44400  -4794.8227     -4830.8602      36.037471      2993.4947      276.85999      7921.7671      1.2688497      0.63213626   
     44500  -4795.0917     -4830.6105      35.518764      5201.8686      272.87499      7921.6833      1.2688631      0.63213626   
     44600  -4794.7956     -4831.0563      36.260632      8316.8712      278.57443      7926.6101      1.2680744      0.63213626   
     44700  -4793.3959     -4830.7035      37.307533      4775.0456      286.61731      7934.6196      1.2667944      0.63213626   
     44800  -4793.4601     -4831.7107      38.250639      1349.6199      293.86278      7948.0845      1.2646483      0.63213626   
     44900  -4794.0786     -4831.4432      37.364576      2301.038       287.05555      7958.4575      1.263          0.63213626   
     45000  -4795.2638     -4830.8898      35.625977      5316.9391      273.69866      7965.0695      1.2619515      0.66730436   
     45100  -4796.7717     -4832.8919      36.120129      3648.1633      277.49501      7966.1029      1.2617878      0.66730436   
     45200  -4795.4423     -4832.487       37.044662      7007.0048      284.59779      7956.9512      1.2632391      0.66730436   
     45300  -4796.409      -4833.0099      36.600875      6648.451       281.18837      7942.7936      1.2654907      0.66730436   
     45400  -4796.7653     -4833.5177      36.75247       5805.2799      282.35301      7927.8356      1.2678784      0.66730436   
     45500  -4796.2114     -4833.4649      37.253504      6602.8933      286.20224      7916.0098      1.2697725      0.66730436   
     45600  -4797.1671     -4833.296       36.12891       8351.1624      277.56247      7909.2497      1.2708578      0.66730436   
     45700  -4796.9131     -4832.3994      35.486273      3709.8699      272.62538      7908.187       1.2710286      0.66730436   
     45800  -4796.5864     -4833.0947      36.508249      6757.6103      280.47677      7913.0455      1.2702482      0.66730436   
     45900  -4797.9066     -4833.5137      35.60707       5725.3979      273.55341      7919.2932      1.2692461      0.66730436   
     46000  -4796.8579     -4833.5409      36.682934      2618.8718      281.8188       7925.2612      1.2682903      0.69816566   
     46100  -4796.7923     -4833.0505      36.258212      1235.1178      278.55585      7931.1338      1.2673512      0.69816566   
     46200  -4797.006      -4831.9316      34.925554      4368.4471      268.31762      7937.2705      1.2663713      0.69816566   
     46300  -4796.7251     -4833.1981      36.473007      4623.3778      280.20602      7941.0701      1.2657654      0.69816566   
     46400  -4797.916      -4833.9297      36.013757      7073.5131      276.67781      7937.4081      1.2663494      0.69816566   
     46500  -4796.7781     -4833.1427      36.364566      7406.2609      279.37292      7925.0436      1.2683251      0.69816566   
     46600  -4796.1782     -4831.706       35.527828      4259.9626      272.94462      7910.5388      1.2706507      0.69816566   
     46700  -4796.8701     -4832.6924      35.822251      5161.0855      275.20655      7897.1709      1.2728016      0.69816566   
     46800  -4795.6077     -4831.8508      36.243116      3594.732       278.43987      7892.5113      1.273553       0.69816566   
     46900  -4795.9568     -4831.9608      36.003973      5441.3763      276.60264      7895.7379      1.2730326      0.69816566   
     47000  -4796.8329     -4832.09        35.257105      5902.423       270.86478      7906.3854      1.2713182      0.67893239   
     47100  -4795.994      -4832.3883      36.394238      4391.8618      279.60087      7925.6675      1.2682252      0.67893239   
     47200  -4796.5143     -4832.3386      35.824279      2724.2264      275.22213      7945.5366      1.2650539      0.67893239   
     47300  -4795.4739     -4831.7277      36.253795      6170.437       278.52191      7959.4543      1.2628418      0.67893239   
     47400  -4796.1412     -4832.0512      35.909993      4185.5518      275.88063      7964.3702      1.2620623      0.67893239   
     47500  -4796.0345     -4832.3514      36.316947      2729.178       279.00708      7956.3038      1.2633419      0.67893239   
     47600  -4796.0803     -4833.238       37.157671      3916.5984      285.46599      7938.8424      1.2661206      0.67893239   
     47700  -4796.6858     -4832.9913      36.305451      5101.3725      278.91876      7912.8861      1.2702738      0.67893239   
     47800  -4797.4906     -4831.6615      34.170946      5634.9667      262.5203       7887.6751      1.2743339      0.67893239   
     47900  -4795.92       -4832.314       36.393949      6798.7932      279.59865      7865.9306      1.2778566      0.67893239   
     48000  -4795.777      -4832.8697      37.092757      6762.8665      284.96728      7858.7446      1.2790251      0.70830017   
     48100  -4796.801      -4832.6131      35.812131      3475.0357      275.1288       7867.7411      1.2775626      0.70830017   
     48200  -4797.9142     -4833.3347      35.420437      6648.4345      272.11959      7888.3919      1.2742181      0.70830017   
     48300  -4797.6841     -4832.9442      35.260094      2935.0471      270.88775      7912.7709      1.2702923      0.70830017   
     48400  -4798.6289     -4834.143       35.514164      4970.0322      272.83965      7931.7955      1.2672454      0.70830017   
     48500  -4797.0658     -4833.7419      36.676188      1075.902       281.76697      7945.4585      1.2650663      0.70830017   
     48600  -4796.3942     -4831.8035      35.409276      1814.8701      272.03384      7951.4357      1.2641153      0.70830017   
     48700  -4795.9541     -4831.7667      35.812633      3750.4047      275.13266      7949.3427      1.2644482      0.70830017   
     48800  -4795.0447     -4830.5168      35.472141      4529.5994      272.51681      7937.6235      1.266315       0.70830017   
     48900  -4793.8589     -4829.774       35.915057      8192.7779      275.91954      7924.2858      1.2684464      0.70830017   
     49000  -4793.7022     -4832.3318      38.629648      4502.7682      296.77454      7918.8218      1.2693216      0.67655835   
     49100  -4795.0845     -4831.3721      36.287522      2676.4276      278.78102      7921.4121      1.2689066      0.67655835   
     49200  -4796.2127     -4833.4808      37.268114      6609.3608      286.31447      7926.6888      1.2680619      0.67655835   
     49300  -4796.6331     -4832.5841      35.951003      4467.2796      276.19569      7935.5284      1.2666493      0.67655835   
     49400  -4796.1484     -4832.9854      36.836977      6791.3207      283.00224      7944.5146      1.2652166      0.67655835   
     49500  -4796.5287     -4833.8162      37.287564      2887.1455      286.4639       7949.1796      1.2644741      0.67655835   
     49600  -4796.5023     -4832.9551      36.452779      4958.1675      280.05062      7946.9073      1.2648357      0.67655835   
     49700  -4795.0686     -4833.0606      37.992029      2772.2485      291.87599      7944.047       1.2652911      0.67655835   
     49800  -4794.4809     -4831.8821      37.401242      5815.5816      287.33724      7940.0865      1.2659222      0.67655835   
     49900  -4795.4517     -4831.2064      35.754745      4927.2111      274.68793      7937.3529      1.2663582      0.67655835   
     50000  -4795.263      -4832.6563      37.393364      2371.201       287.27672      7939.7776      1.2659714      0.73796563   
     50100  -4795.0728     -4831.9072      36.834441      3689.5129      282.98276      7940.9136      1.2657903      0.73796563   
     50200  -4794.8428     -4832.2188      37.375998      6428.148       287.1433       7944.3374      1.2652448      0.73796563   
     50300  -4794.5791     -4831.3663      36.787225      6275.6245      282.62002      7948.6061      1.2645653      0.73796563   
     50400  -4795.7108     -4831.2767      35.565906      5533.8797      273.23717      7955.2746      1.2635053      0.73796563   
     50500  -4796.6826     -4832.3017      35.619127      5275.359       273.64604      7954.6567      1.2636035      0.73796563   
     50600  -4795.4886     -4833.0626      37.574023      8005.8136      288.66464      7948.441       1.2645916      0.73796563   
     50700  -4794.5529     -4832.8695      38.316685      5613.3579      294.37018      7938.8598      1.2661178      0.73796563   
     50800  -4795.7751     -4831.8281      36.053026      7734.1031      276.97949      7929.9234      1.2675446      0.73796563   
     50900  -4795.3612     -4832.5417      37.180519      8889.0616      285.64152      7927.3076      1.2679629      0.73796563   
     51000  -4795.1629     -4832.0932      36.930269      8511.965       283.71896      7931.5593      1.2672832      0.68878009   
     51100  -4794.1157     -4830.6752      36.5595        6130.7667      280.87051      7941.1136      1.2657585      0.68878009   
     51200  -4794.5214     -4832.5754      38.053976      3155.5235      292.35191      7950.8937      1.2642015      0.68878009   
     51300  -4795.5806     -4831.7375      36.156869      3215.9095      277.77727      7955.8041      1.2634212      0.68878009   
     51400  -4796.048      -4833.2622      37.214189      1734.9689      285.90019      7957.9406      1.263082       0.68878009   
     51500  -4794.918      -4831.5764      36.658352      4155.551       281.62994      7954.8196      1.2635776      0.68878009   
     51600  -4795.961      -4831.9127      35.951606      4176.4555      276.20032      7948.7853      1.2645368      0.68878009   
     51700  -4795.4067     -4832.7465      37.339882      4930.514       286.86584      7942.2479      1.2655777      0.68878009   
     51800  -4794.9555     -4832.401       37.445498      6014.5161      287.67724      7938.7883      1.2661292      0.68878009   
     51900  -4795.1357     -4830.4915      35.355825      5206.957       271.6232       7935.1981      1.266702       0.68878009   
     52000  -4795.6354     -4831.726       36.090577      1640.4699      277.26798      7934.0629      1.2668833      0.69043961   
     52100  -4795.6656     -4831.6234      35.95786       8657.3936      276.24837      7933.0233      1.2670493      0.69043961   
     52200  -4796.4578     -4833.4671      37.009283      6775.787       284.32599      7933.361       1.2669954      0.69043961   
     52300  -4796.838      -4833.0845      36.246505      3210.8195      278.46591      7937.6913      1.2663042      0.69043961   
     52400  -4796.1152     -4832.3033      36.188132      4691.3781      278.01745      7943.0862      1.2654441      0.69043961   
     52500  -4796.0105     -4833.3204      37.309938      5951.2456      286.63579      7946.8334      1.2648474      0.69043961   
     52600  -4794.7425     -4831.923       37.180553      4437.9088      285.64179      7951.6738      1.2640775      0.69043961   
     52700  -4794.6916     -4831.8422      37.150544      4381.1682      285.41124      7959.12        1.2628949      0.69043961   
     52800  -4795.5905     -4831.0584      35.467895      4066.0754      272.48418      7967.1714      1.2616186      0.69043961   
     52900  -4795.2378     -4830.2864      35.048551      1122.0639      269.26255      7974.5147      1.2604568      0.69043961   
     53000  -4793.9668     -4831.7666      37.799826      6263.8182      290.39939      7975.197       1.260349       0.66418589   
     53100  -4794.5082     -4832.3451      37.836919      4739.5557      290.68435      7972.7742      1.260732       0.66418589   
     53200  -4795.5092     -4831.9314      36.422258      2966.904       279.81614      7966.9042      1.2616609      0.66418589   
     53300  -4795.0496     -4831.712       36.662343      4789.5547      281.6606       7958.5573      1.2629841      0.66418589   
     53400  -4795.075      -4832.4776      37.402658      5678.4162      287.34812      7942.3255      1.2655653      0.66418589   
     53500  -4794.6192     -4832.1875      37.568367      5945.2515      288.62119      7923.7337      1.2685348      0.66418589   
     53600  -4794.8152     -4831.0148      36.199606      7896.4678      278.1056       7911.2965      1.270529       0.66418589   
     53700  -4794.8511     -4832.0338      37.182706      5229.448       285.65832      7909.4959      1.2708182      0.66418589   
     53800  -4795.3683     -4832.182       36.813692      6242.7049      282.82335      7919.9129      1.2691467      0.66418589   
     53900  -4794.1149     -4831.9433      37.828408      5652.4488      290.61897      7937.8648      1.2662765      0.66418589   
     54000  -4794.9931     -4832.7067      37.713519      2038.1598      289.73633      7957.3421      1.263177       0.65883205   
     54100  -4795.1527     -4831.0518      35.899126      3135.5482      275.79714      7972.4075      1.26079        0.65883205   
     54200  -4795.4234     -4831.8206      36.39728       4716.1023      279.62424      7983.2115      1.2590837      0.65883205   
     54300  -4795.81       -4832.8869      37.076917      5624.8993      284.84559      7986.1327      1.2586232      0.65883205   
     54400  -4796.7191     -4832.6983      35.979201      8156.7638      276.41232      7979.6822      1.2596406      0.65883205   
     54500  -4796.3816     -4832.3963      36.014728      4338.8941      276.68527      7959.6711      1.2628074      0.65883205   
     54600  -4796.3821     -4832.2279      35.845868      2522.7315      275.38799      7932.7133      1.2670988      0.65883205   
     54700  -4795.1765     -4831.7478      36.571353      5810.8213      280.96156      7908.0288      1.271054       0.65883205   
     54800  -4795.7772     -4832.5507      36.773525      3396.7186      282.51477      7891.7709      1.2736725      0.65883205   
     54900  -4796.2285     -4831.7938      35.565354      5103.3308      273.23292      7884.5283      1.2748425      0.65883205   
     55000  -4796.5044     -4834.0096      37.505187      3850.9345      288.13581      7890.6305      1.2738566      0.71029118   
     55100  -4797.0748     -4832.2021      35.127338      3549.2097      269.86784      7901.9598      1.2720302      0.71029118   
     55200  -4796.0364     -4832.2568      36.220371      4781.1097      278.26513      7919.3587      1.2692356      0.71029118   
     55300  -4794.3131     -4831.4678      37.154668      7711.4812      285.44292      7938.4696      1.26618        0.71029118   
     55400  -4794.7204     -4831.1689      36.448486      4871.6911      280.01764      7958.9547      1.2629211      0.71029118   
     55500  -4793.2126     -4830.5868      37.374196      1687.008       287.12946      7974.8945      1.2603968      0.71029118   
     55600  -4793.0185     -4831.3762      38.357742      3742.3329      294.68561      7979.5983      1.2596538      0.71029118   
     55700  -4793.7941     -4831.2298      37.435768      607.50353      287.60248      7976.977       1.2600678      0.71029118   
[...]
    386300  -4797.0174     -4832.623       35.605535      5220.348       273.54162      7883.159       1.2750639      0.66150069   
    386400  -4796.8539     -4833.7085      36.854558      5050.6531      283.13731      7884.382       1.2748661      0.66150069   
    386500  -4797.7473     -4833.3766      35.629332      5055.5655      273.72444      7895.2715      1.2731078      0.66150069   
    386600  -4796.716      -4834.261       37.544939      5966.0169      288.4412       7912.3084      1.2703665      0.66150069   
    386700  -4796.9541     -4833.9068      36.952744      5335.3259      283.89163      7933.2449      1.2670139      0.66150069   
    386800  -4797.287      -4832.5884      35.301434      5101.3207      271.20534      7953.1915      1.2638362      0.66150069   
    386900  -4796.4681     -4831.9085      35.440461      2909.1566      272.27343      7968.6751      1.2613805      0.66150069   
    387000  -4793.5148     -4829.9744      36.459584      4064.9454      280.1029       7972.151       1.2608306      0.67430752   
    387100  -4793.736      -4830.7067      36.970673      2419.3135      284.02937      7966.0512      1.261796       0.67430752   
    387200  -4794.5131     -4830.8463      36.333161      1077.5836      279.13165      7955.6804      1.2634409      0.67430752   
    387300  -4793.9203     -4832.012       38.091656      5981.9172      292.64139      7944.7323      1.2651819      0.67430752   
    387400  -4792.7065     -4830.7546      38.048151      4621.0288      292.30716      7932.884       1.2670716      0.67430752   
    387500  -4792.6158     -4830.1397      37.523969      5260.9135      288.2801       7928.0405      1.2678457      0.67430752   
    387600  -4793.2796     -4830.8202      37.540583      6470.9055      288.40773      7934.5588      1.2668041      0.67430752   
    387700  -4793.5795     -4831.4195      37.840017      6021.4365      290.70816      7945.7919      1.2650132      0.67430752   
    387800  -4794.5953     -4831.9714      37.376087      5531.2067      287.14398      7960.5095      1.2626744      0.67430752   
    387900  -4794.6213     -4831.5324      36.911121      5936.9402      283.57185      7971.601       1.2609176      0.67430752   
    388000  -4796.0856     -4831.831       35.745417      5674.5401      274.61627      7977.4741      1.2599893      0.65580566   
    388100  -4795.3688     -4831.7134      36.344588      6020.272       279.21943      7977.0543      1.2600556      0.65580566   
    388200  -4794.3526     -4830.814       36.461371      4385.1489      280.11663      7970.7619      1.2610503      0.65580566   
    388300  -4796.2431     -4833.9319      37.688841      4456.5002      289.54674      7958.3966      1.2630096      0.65580566   
    388400  -4795.0708     -4831.7326      36.661792      5910.8724      281.65637      7940.8042      1.2658078      0.65580566   
    388500  -4794.4267     -4831.5441      37.117473      7561.4873      285.15717      7925.7395      1.2682137      0.65580566   
    388600  -4794.0165     -4832.1197      38.103203      5721.504       292.73009      7916.9847      1.2696162      0.65580566   
    388700  -4795.3177     -4831.9341      36.616408      4870.666       281.3077       7918.8077      1.2693239      0.65580566   
    388800  -4795.5494     -4831.8505      36.30112       7815.0825      278.88549      7930.4854      1.2674548      0.65580566   
    388900  -4794.8601     -4832.3822      37.522059      5433.0489      288.26542      7945.2544      1.2650988      0.65580566   
    389000  -4795.0196     -4831.527       36.507454      2465.0051      280.47066      7958.1474      1.2630492      0.64369348   
    389100  -4793.5552     -4829.8765      36.321308      4457.5961      279.04058      7967.3206      1.261595       0.64369348   
    389200  -4794.6934     -4830.5247      35.831326      5897.3681      275.27627      7973.7659      1.2605752      0.64369348   
    389300  -4794.8759     -4832.5304      37.654485      4972.3939      289.2828       7976.801       1.2600956      0.64369348   
    389400  -4795.4171     -4831.5819      36.164765      4146.7156      277.83793      7978.6961      1.2597963      0.64369348   
    389500  -4795.4299     -4831.7065      36.276678      2288.8942      278.69771      7978.1406      1.259884       0.64369348   
    389600  -4795.2435     -4832.3478      37.104287      5184.5109      285.05586      7970.3073      1.2611222      0.64369348   
    389700  -4795.8196     -4832.8208      37.001144      4420.9453      284.26347      7958.8195      1.2629425      0.64369348   
    389800  -4795.8428     -4831.4603      35.617468      5679.8269      273.63329      7940.8437      1.2658015      0.64369348   
    389900  -4794.8875     -4832.0482      37.160638      6141.0295      285.48879      7919.8786      1.2691522      0.64369348   
    390000  -4795.1644     -4832.8086      37.644168      5908.9191      289.20353      7905.1786      1.2715123      0.80894792   
    390100  -4794.8545     -4830.0974      35.242863      5441.0383      270.75537      7900.7157      1.2722305      0.80894792   
    390200  -4795.0373     -4831.3948      36.357537      5449.343       279.31892      7909.1932      1.2708669      0.80894792   
    390300  -4794.6949     -4833.1348      38.439929      5928.213       295.31701      7929.063       1.2676822      0.80894792   
    390400  -4795.382      -4831.4305      36.048588      5656.3486      276.94539      7953.012       1.2638648      0.80894792   
    390500  -4795.9774     -4832.7229      36.745542      3082.4776      282.29979      7974.8262      1.2604076      0.80894792   
    390600  -4795.6804     -4832.4884      36.80794       2924.1372      282.77916      7987.1099      1.2584692      0.80894792   
    390700  -4795.1569     -4832.7558      37.598905      2703.4641      288.85579      7985.9105      1.2586582      0.80894792   
    390800  -4795.4522     -4831.6669      36.214746      3163.7249      278.22191      7971.799       1.2608862      0.80894792   
    390900  -4794.7676     -4831.4907      36.723183      7491.2808      282.12801      7949.9717      1.2643481      0.80894792   
    391000  -4794.7088     -4832.4782      37.769393      2060.1866      290.16558      7929.3013      1.2676441      0.65666935   
    391100  -4794.9376     -4831.1943      36.2567        5239.8805      278.54423      7909.6723      1.2707899      0.65666935   
    391200  -4793.5428     -4831.3004      37.757615      5000.7639      290.07509      7893.2112      1.2734401      0.65666935   
    391300  -4792.9441     -4829.7885      36.844381      4718.0319      283.05913      7887.8507      1.2743055      0.65666935   
    391400  -4793.121      -4830.3067      37.185713      5372.5594      285.68142      7893.3556      1.2734168      0.65666935   
    391500  -4791.8177     -4829.8059      37.988214      8769.7828      291.84669      7914.3821      1.2700337      0.65666935   
    391600  -4791.9495     -4829.462       37.512471      3819.6121      288.19176      7950.0143      1.2643413      0.65666935   
    391700  -4792.3941     -4830.2435      37.849356      2631.6889      290.7799       7989.6787      1.2580646      0.65666935   
    391800  -4792.0825     -4829.8623      37.779854      2826.762       290.24595      8030.9401      1.2516009      0.65666935   
    391900  -4791.0265     -4828.3357      37.309201      5377.7393      286.63013      8063.0836      1.2466114      0.65666935   
    392000  -4793.4554     -4830.5953      37.139868      1209.0483      285.32922      8077.0234      1.2444599      0.7455321    
    392100  -4794.2487     -4830.3247      36.075933      2628.1074      277.15548      8064.2744      1.2464273      0.7455321    
    392200  -4793.1713     -4830.115       36.943719      2991.0768      283.82229      8029.3999      1.251841       0.7455321    
    392300  -4792.4084     -4830.2512      37.842788      4180.7589      290.72944      7979.247       1.2597093      0.7455321    
    392400  -4793.1157     -4831.0979      37.982118      7489.5523      291.79985      7928.4292      1.2677835      0.7455321    
    392500  -4793.6919     -4831.9175      38.225546      8786.7773      293.67         7884.9288      1.2747777      0.7455321    
    392600  -4792.9429     -4830.34        37.39714       4614.3329      287.30572      7857.2841      1.2792629      0.7455321    
    392700  -4794.4605     -4832.2654      37.804873      6705.6349      290.43816      7854.7504      1.2796755      0.7455321    
    392800  -4793.6025     -4830.6923      37.089799      6807.1888      284.94456      7873.4047      1.2766436      0.7455321    
    392900  -4793.658      -4830.6568      36.998832      8846.0071      284.2457       7903.747       1.2717426      0.7455321    
    393000  -4794.1051     -4831.3365      37.231403      6291.1812      286.03244      7944.42        1.2652317      0.70973491   
    393100  -4795.1611     -4831.2685      36.107381      5718.0506      277.39707      7987.0286      1.258482       0.70973491   
    393200  -4794.4387     -4830.6222      36.18354       1968.2166      277.98217      8018.1777      1.253593       0.70973491   
    393300  -4794.9987     -4831.3806      36.381914      34.895036      279.50619      8027.453       1.2521446      0.70973491   
    393400  -4794.5172     -4830.9577      36.440509      3790.2782      279.95635      8013.9976      1.2542469      0.70973491   
    393500  -4794.7424     -4831.7533      37.010869      3057.2745      284.33818      7982.685       1.2591668      0.70973491   
    393600  -4795.9381     -4831.4703      35.532249      6593.5763      272.97859      7942.5036      1.2655369      0.70973491   
    393700  -4796.2392     -4830.98        34.740762      7446.7744      266.89795      7904.3764      1.2716413      0.70973491   
    393800  -4795.8698     -4833.1351      37.265345      4759.6138      286.2932       7874.0431      1.2765401      0.70973491   
    393900  -4796.5712     -4832.0429      35.471672      7865.4367      272.5132       7857.0664      1.2792983      0.70973491   
    394000  -4795.268      -4832.3788      37.110763      6391.2299      285.10562      7859.3295      1.2789299      0.75470574   
    394100  -4795.6445     -4832.1706      36.52604       2860.3428      280.61345      7877.6914      1.2759489      0.75470574   
    394200  -4796.6503     -4833.1136      36.463351      3827.9877      280.13183      7907.9958      1.2710593      0.75470574   
    394300  -4795.175      -4833.2135      38.038565      5202.1129      292.23351      7940.2589      1.2658947      0.75470574   
    394400  -4793.553      -4830.8631      37.310051      6709.5057      286.63666      7968.9035      1.2613444      0.75470574   
    394500  -4791.9868     -4830.3565      38.369697      3617.4358      294.77745      7994.428       1.2573172      0.75470574   
    394600  -4794.1785     -4831.235       37.056565      2961.5189      284.68924      8008.1878      1.2551568      0.75470574   
    394700  -4793.8048     -4830.5123      36.707482      7773.5502      282.00739      8004.3847      1.2557532      0.75470574   
    394800  -4792.9115     -4830.9564      38.04495       4015.3282      292.28256      7983.6971      1.2590071      0.75470574   
    394900  -4792.8943     -4830.9031      38.008777      2382.2705      292.00466      7955.2619      1.2635073      0.75470574   
    395000  -4793.2472     -4830.7285      37.481274      6550.3111      287.95209      7925.9472      1.2681805      0.70676165   
    395100  -4792.7953     -4830.3585      37.563182      4280.2858      288.58135      7903.2816      1.2718175      0.70676165   
    395200  -4793.6637     -4832.2914      38.627655      4315.5219      296.75923      7899.7819      1.2723809      0.70676165   
    395300  -4794.6388     -4830.4255      35.786653      3581.0649      274.93306      7907.5055      1.2711381      0.70676165   
    395400  -4795.6672     -4831.8079      36.140767      2977.9516      277.65357      7924.6675      1.2683853      0.70676165   
    395500  -4795.2483     -4832.5999      37.351529      3860.1799      286.95531      7946.9408      1.2648303      0.70676165   
    395600  -4796.2156     -4833.4803      37.264654      2228.6476      286.28789      7969.746       1.261211       0.70676165   
    395700  -4795.4716     -4831.4383      35.966682      3775.4148      276.31615      7983.2239      1.2590818      0.70676165   
    395800  -4795.7847     -4832.5226      36.737922      3298.1563      282.24124      7985.2822      1.2587572      0.70676165   
    395900  -4796.0087     -4834.0263      38.017533      1963.205       292.07193      7977.2597      1.2600231      0.70676165   
    396000  -4795.2147     -4832.0841      36.869397      6184.0172      283.25131      7959.3709      1.262855       0.72019171   
    396100  -4795.1452     -4832.457       37.31174       4810.214       286.64964      7937.6576      1.2663096      0.72019171   
    396200  -4796.3733     -4832.4423      36.069024      5651.4959      277.10239      7915.9668      1.2697794      0.72019171   
    396300  -4797.1668     -4832.9251      35.758376      5377.176       274.71582      7896.1633      1.272964       0.72019171   
    396400  -4797.1928     -4833.1685      35.975704      3180.1361      276.38546      7879.7962      1.2756081      0.72019171   
    396500  -4795.5283     -4832.2763      36.748032      7790.7935      282.31892      7876.7755      1.2760973      0.72019171   
    396600  -4796.0486     -4832.1508      36.102234      6434.307       277.35754      7894.6207      1.2732127      0.72019171   
    396700  -4794.9624     -4830.944       35.981622      4742.161       276.43092      7930.4203      1.2674652      0.72019171   
    396800  -4795.105      -4830.535       35.429958      4028.968       272.19273      7974.2554      1.2604978      0.72019171   
    396900  -4795.5992     -4831.6739      36.074707     -1193.8365      277.14606      8016.3731      1.2538752      0.72019171   
    397000  -4796.4708     -4832.7921      36.3213       -184.23658      279.04052      8046.0199      1.2492551      0.73139259   
    397100  -4796.1426     -4832.1519      36.009312      3448.1118      276.64366      8051.4725      1.2484091      0.73139259   
    397200  -4795.0399     -4832.1117      37.071767      2058.4749      284.80603      8033.572       1.2511908      0.73139259   
    397300  -4796.4653     -4833.8482      37.382935      4506.0999      287.19659      7992.5915      1.2576061      0.73139259   
    397400  -4796.4015     -4832.2311      35.829641      6076.7945      275.26332      7930.5496      1.2674445      0.73139259   
    397500  -4796.2652     -4832.9583      36.693095      5355.5553      281.89686      7865.9349      1.277856       0.73139259   
    397600  -4795.8717     -4832.6046      36.732851      11518.399      282.20229      7816.554       1.2859288      0.73139259   
    397700  -4795.4524     -4832.8809      37.428416      11698.549      287.546        7796.7747      1.289191       0.73139259   
    397800  -4796.1451     -4831.9244      35.779268      6236.5708      274.87633      7807.726       1.2873827      0.73139259   
    397900  -4797.3056     -4832.1318      34.826162      7908.5809      267.55404      7849.8955      1.2804669      0.73139259   
    398000  -4797.091      -4832.0913      35.000246      6007.7137      268.89144      7912.9298      1.2702668      0.73222833   
    398100  -4797.0707     -4833.6776      36.606852      5242.2861      281.23429      7983.2449      1.2590785      0.73222833   
    398200  -4797.3763     -4833.5839      36.207566      4146.568       278.16675      8036.4637      1.2507406      0.73222833   
    398300  -4797.2639     -4833.3321      36.068203      2407.2447      277.09609      8062.5501      1.2466939      0.73222833   
    398400  -4797.1395     -4833.4956      36.356051      3944.9794      279.3075       8055.0012      1.2478622      0.73222833   
    398500  -4796.4679     -4831.05        34.582108      5866.5074      265.67907      8013.954       1.2542537      0.73222833   
    398600  -4797.3249     -4832.4024      35.077541      7859.863       269.48527      7955.3206      1.263498       0.73222833   
    398700  -4795.9505     -4831.8378      35.88725       7977.3457      275.70591      7893.2263      1.2734377      0.73222833   
    398800  -4795.3909     -4831.6143      36.223403      11760.435      278.28842      7844.018       1.2814264      0.73222833   
    398900  -4794.4996     -4832.1041      37.604555      12337.024      288.8992       7820.8389      1.2852242      0.73222833   
    399000  -4795.0891     -4833.6207      38.531577      8808.7934      296.0211       7823.9213      1.2847179      0.6894628    
    399100  -4795.6779     -4831.5846      35.906671      8250.0482      275.85511      7849.0956      1.2805974      0.6894628    
    399200  -4796.4567     -4833.2415      36.78478       7869.9924      282.60123      7889.8755      1.2739785      0.6894628    
    399300  -4795.7744     -4831.5045      35.730141      7168.2673      274.4989       7933.5148      1.2669708      0.6894628    
    399400  -4796.2541     -4832.2906      36.036562      2895.5687      276.85301      7972.1401      1.2608323      0.6894628    
    399500  -4795.4536     -4831.0281      35.574439      2335.1355      273.30272      7996.7452      1.2569529      0.6894628    
    399600  -4795.1936     -4831.0126      35.81907       6287.5294      275.18211      8003.3939      1.2559087      0.6894628    
    399700  -4794.1713     -4830.8885      36.717208      3311.1048      282.08211      7991.0497      1.2578487      0.6894628    
    399800  -4794.9963     -4831.2131      36.216771      1825.0078      278.23747      7966.0463      1.2617968      0.6894628    
    399900  -4794.8045     -4830.5631      35.758649      4109.3387      274.71792      7933.5569      1.2669641      0.6894628    
    400000  -4794.2342     -4830.1822      35.947984      5872.7203      276.1725       7900.696       1.2722337      0.6883983    
    400100  -4794.942      -4831.2376      36.295593      2166.504       278.84302      7878.0718      1.2758873      0.6883983    
    400200  -4794.9068     -4832.8212      37.914474      7122.535       291.28017      7866.8633      1.2777051      0.6883983    
    400300  -4796.6585     -4832.1558      35.497313      8948.8046      272.7102       7863.0264      1.2783286      0.6883983    
    400340  -4796.2644     -4832.1127      35.848343      7653.0087      275.407        7864.1673      1.2781432      0.6883983    
Loop time of 2173.86 on 28 procs for 200000 steps with 1008 atoms

Performance: 3.975 ns/day, 6.038 hours/ns, 92.002 timesteps/s, 92.738 katom-step/s
99.5% CPU use with 28 MPI tasks x 1 OpenMP threads

MPI task timing breakdown:
Section |  min time  |  avg time  |  max time  |%varavg| %total
---------------------------------------------------------------
Pair    | 1777.4     | 1852       | 2012.2     | 131.3 | 85.20
Neigh   | 3.3202     | 3.4669     | 3.7157     |   4.9 |  0.16
Comm    | 121.8      | 286.37     | 367.61     | 353.7 | 13.17
Output  | 0.13996    | 4.4513     | 8.2394     | 190.0 |  0.20
Modify  | 15.091     | 26.378     | 49.52      | 186.4 |  1.21
Other   |            | 1.145      |            |       |  0.05

Nlocal:             36 ave          41 max          31 min
Histogram: 1 1 6 2 4 3 1 4 0 6
Nghost:        1047.21 ave        1067 max        1022 min
Histogram: 2 0 2 3 4 2 5 5 4 1
Neighs:              0 ave           0 max           0 min
Histogram: 28 0 0 0 0 0 0 0 0 0
FullNghs:      5355.07 ave        6093 max        4586 min
Histogram: 1 5 3 1 4 4 2 2 0 6

Total # of neighbors = 149942
Ave neighs/atom = 148.75198
Neighbor list builds = 19904
Dangerous builds = 19424

unfix		3
unfix		4
Total wall time: 1:12:52
