LAMMPS (27 Jun 2024)
KOKKOS mode with Kokkos version 4.3.1 is enabled (src/KOKKOS/kokkos.cpp:72)
  will use up to 1 GPU(s) per node
WARNING: When using a single thread, the Kokkos Serial backend (i.e. Makefile.kokkos_mpi_only) gives better performance than the OpenMP backend (src/KOKKOS/kokkos.cpp:202)
  using 1 OpenMP thread(s) per MPI task
Reading data file ...
  orthogonal box = (0 0 0) to (19.665067 19.665067 32.733555)
  1 by 1 by 1 MPI processor grid
  reading atoms ...
  2160 atoms
  read_data CPU = 0.020 seconds
ACE/AL version: 2023.11.25
Loading /pc2/users/a/acepdw01/work/phase_diagram/pot_dir/interim_potential_ladder_step_1.yaml
Total number of basis functions
	H: 23 (r=1) 664 (r>1)
	O: 23 (r=1) 664 (r>1)
Mapping LAMMPS atom type #1(H) -> ACE species type #0
Mapping LAMMPS atom type #2(O) -> ACE species type #1
Loading ASI /pc2/users/a/acepdw01/work/phase_diagram/pot_dir/interim_potential_ladder_step_1.asi
LINEAR ASI is loaded

CITE-CITE-CITE-CITE-CITE-CITE-CITE-CITE-CITE-CITE-CITE-CITE-CITE

Your simulation uses code contributions which should be cited:
- Type Label Framework: https://doi.org/10.1021/acs.jpcb.3c08419
The log file lists these citations in BibTeX format.

CITE-CITE-CITE-CITE-CITE-CITE-CITE-CITE-CITE-CITE-CITE-CITE-CITE

Switching to 'neigh_modify every 1 delay 0 check yes' setting during minimization
Neighbor list info ...
  update: every = 1 steps, delay = 0 steps, check = yes
  max neighbors/atom: 2000, page size: 100000
  master list distance cutoff = 6.5
  ghost atom cutoff = 6.5
  binsize = 6.5, bins = 4 4 6
  1 neighbor lists, perpetual/occasional/extra = 1 0 0
  (1) pair pace/extrapolation/kk, perpetual
      attributes: full, newton on, kokkos_device
      pair build: full/bin/kk/device
      stencil: full/bin/3d
      bin: kk/device
Setting up cg/kk style minimization ...
  Unit style    : metal
  Current step  : 0
WARNING: Fix with atom-based arrays not compatible with sending data in Kokkos communication, switching to classic exchange/border communication (src/KOKKOS/comm_kokkos.cpp:754)
WARNING: Fix with atom-based arrays not compatible with Kokkos sorting on device, switching to classic host sorting (src/KOKKOS/atom_kokkos.cpp:216)
Per MPI rank memory allocation (min/avg/max) = 1840 | 1840 | 1840 Mbytes
   Step         TotEng         PotEng         KinEng         Press           Temp          Volume        Density     c_max_pace_gamma
         0  -10417.495     -10417.495      0              21939.986      0              12658.552      1.7015372      0.62320149   
        33  -10417.742     -10417.742      0              22350.057      0              12658.552      1.7015372      0.62320149   
Loop time of 0.360621 on 1 procs for 33 steps with 2160 atoms

99.5% CPU use with 1 MPI tasks x 1 OpenMP threads

Minimization stats:
  Stopping criterion = force tolerance
  Energy initial, next-to-last, final = 
     -10417.4952910973   -10417.742060806  -10417.7420608146
  Force two-norm initial, final = 1.0592923 0.00038830903
  Force max component initial, final = 0.040662516 1.1308344e-05
  Final line search alpha, max atom move = 1 1.1308344e-05
  Iterations, force evaluations = 33 66

MPI task timing breakdown:
Section |  min time  |  avg time  |  max time  |%varavg| %total
---------------------------------------------------------------
Pair    | 0.33487    | 0.33487    | 0.33487    |   0.0 | 92.86
Neigh   | 0          | 0          | 0          |   0.0 |  0.00
Comm    | 0.0016535  | 0.0016535  | 0.0016535  |   0.0 |  0.46
Output  | 0          | 0          | 0          |   0.0 |  0.00
Modify  | 0.014259   | 0.014259   | 0.014259   |   0.0 |  3.95
Other   |            | 0.009838   |            |       |  2.73

Nlocal:           2160 ave        2160 max        2160 min
Histogram: 1 0 0 0 0 0 0 0 0 0
Nghost:           6010 ave        6010 max        6010 min
Histogram: 1 0 0 0 0 0 0 0 0 0
Neighs:              0 ave           0 max           0 min
Histogram: 1 0 0 0 0 0 0 0 0 0
FullNghs:       419040 ave      419040 max      419040 min
Histogram: 1 0 0 0 0 0 0 0 0 0

Total # of neighbors = 419040
Ave neighs/atom = 194
Neighbor list builds = 0
Dangerous builds = 0
Setting up Verlet run ...
  Unit style    : metal
  Current step  : 33
  Time step     : 0.0005
WARNING: Fix with atom-based arrays not compatible with Kokkos sorting on device, switching to classic host sorting (src/KOKKOS/atom_kokkos.cpp:216)
Per MPI rank memory allocation (min/avg/max) = 1840 | 1840 | 1840 Mbytes
   Step         TotEng         PotEng         KinEng         Press           Temp          Volume        Density     c_max_pace_gamma
        33  -10308.904     -10417.742      108.83833      31533.741      390            12658.552      1.7015372      0.62320149   
       100  -10292.718     -10337.648      44.929883      36040.205      160.99708      12665.492      1.7006048      0.62320149   
       200  -10270.729     -10343.154      72.425124      36265.387      259.52068      12752.28       1.689031       0.62320149   
       300  -10257.1       -10337.494      80.39423       36155.844      288.07635      12916.022      1.6676185      0.62320149   
       400  -10249.709     -10333.103      83.393379      33960.06       298.82319      13114.921      1.6423276      0.62320149   
       500  -10241.66      -10331.752      90.092062      30473.507      322.82655      13288.309      1.6208982      0.62320149   
       600  -10234.436     -10326.689      92.253577      26699.027      330.5719       13401.314      1.6072302      0.62320149   
       700  -10232.584     -10324.293      91.708675      27736.449      328.61935      13459.039      1.6003369      0.62320149   
       800  -10223.189     -10323.38       100.1919       29193.814      359.01726      13473.821      1.5985812      0.62320149   
       900  -10215.285     -10316.938      101.65309      31172.901      364.25314      13463.372      1.5998219      0.62320149   
      1000  -10209.947     -10314.399      104.45218      30729.201      374.2831       13441.818      1.6023872      0.85640804   
      1033  -10207.817     -10315.886      108.06975      30511.731      387.24594      13434.247      1.6032901      0.85640804   
Loop time of 5.91133 on 1 procs for 1000 steps with 2160 atoms

Performance: 7.308 ns/day, 3.284 hours/ns, 169.167 timesteps/s, 365.400 katom-step/s
99.5% CPU use with 1 MPI tasks x 1 OpenMP threads

MPI task timing breakdown:
Section |  min time  |  avg time  |  max time  |%varavg| %total
---------------------------------------------------------------
Pair    | 4.8677     | 4.8677     | 4.8677     |   0.0 | 82.34
Neigh   | 0.043944   | 0.043944   | 0.043944   |   0.0 |  0.74
Comm    | 0.048119   | 0.048119   | 0.048119   |   0.0 |  0.81
Output  | 0.0014335  | 0.0014335  | 0.0014335  |   0.0 |  0.02
Modify  | 0.92749    | 0.92749    | 0.92749    |   0.0 | 15.69
Other   |            | 0.02267    |            |       |  0.38

Nlocal:           2160 ave        2160 max        2160 min
Histogram: 1 0 0 0 0 0 0 0 0 0
Nghost:           5924 ave        5924 max        5924 min
Histogram: 1 0 0 0 0 0 0 0 0 0
Neighs:              0 ave           0 max           0 min
Histogram: 1 0 0 0 0 0 0 0 0 0
FullNghs:       396808 ave      396808 max      396808 min
Histogram: 1 0 0 0 0 0 0 0 0 0

Total # of neighbors = 396808
Ave neighs/atom = 183.70741
Neighbor list builds = 99
Dangerous builds = 96
1068 atoms in group g_bulk
1092 atoms in group g_liquid
Setting up Verlet run ...
  Unit style    : metal
  Current step  : 1033
  Time step     : 0.0005
WARNING: Fix with atom-based arrays not compatible with Kokkos sorting on device, switching to classic host sorting (src/KOKKOS/atom_kokkos.cpp:216)
Per MPI rank memory allocation (min/avg/max) = 1872 | 1872 | 1872 Mbytes
   Step         TotEng         PotEng         KinEng         Press           Temp          Volume        Density     c_max_pace_gamma
      1033  -10203.068     -10315.886      112.81825      30889.27       404.26123      13434.247      1.6032901      0.85640804   
      1100  -10194.434     -10274.843      80.408959      32857.149      288.12912      13439.793      1.6026286      0.85640804   
      1200  -10180.179     -10272.767      92.58709       33321.439      331.76697      13495.237      1.5960443      0.85640804   
      1300  -10169.22      -10264.833      95.612372      29936.974      342.60746      13591.68       1.5847192      0.85640804   
      1400  -10165.95      -10264.317      98.36693       22415.588      352.47785      13686.948      1.5736888      0.85640804   
      1500  -10160.881     -10261.055      100.1738       29326.208      358.95239      13733.227      1.5683856      0.85640804   
      1600  -10153.278     -10255.214      101.93575      24020.242      365.26601      13720.228      1.5698717      0.85640804   
      1700  -10153.069     -10252.299      99.229778      27218.626      355.5697       13671.454      1.5754722      0.85640804   
      1800  -10143.365     -10249.383      106.01852      32623.204      379.89578      13617.135      1.5817569      0.85640804   
      1900  -10135.362     -10242.543      107.18087      39750.263      384.06083      13591.993      1.5846828      0.85640804   
      2000  -10131.96      -10243.247      111.28713      34413.3        398.77476      13624.534      1.5808979      0.97048665   
      2100  -10131.931     -10241.526      109.59502      34096.816      392.71141      13701.034      1.5720709      0.97048665   
      2200  -10127.861     -10241.976      114.11567      30164.526      408.91024      13780.726      1.5629798      0.97048665   
      2300  -10127.219     -10235.002      107.78315      26891.18       386.21896      13820.455      1.5584867      0.97048665   
      2400  -10123.835     -10232.335      108.50058      29077.162      388.78971      13810.214      1.5596425      0.97048665   
      2500  -10120.179     -10228.705      108.5263       31501.421      388.88188      13772.789      1.5638806      0.97048665   
      2600  -10116.378     -10230.513      114.13427      31877.268      408.97689      13732.911      1.5684218      0.97048665   
      2700  -10115.072     -10226.056      110.984        34143.923      397.68857      13719.778      1.5699231      0.97048665   
      2800  -10111.253     -10226.369      115.11644      33455.252      412.49633      13746.078      1.5669194      0.97048665   
      2900  -10106.527     -10222.141      115.61453      29782.255      414.2811       13806.544      1.5600571      0.97048665   
      3000  -10104.935     -10217.712      112.77716      27501.84       404.11397      13875.695      1.5522824      0.81434603   
      3100  -10104.44      -10218.822      114.38215      24337.916      409.86512      13916.068      1.5477789      0.81434603   
      3200  -10103.114     -10217.476      114.36203      23928.327      409.79303      13911.692      1.5482658      0.81434603   
      3300  -10098.244     -10215.504      117.26023      29575.391      420.17813      13871.826      1.5527154      0.81434603   
      3400  -10098.569     -10215.97       117.40074      29328.138      420.68165      13833.174      1.5570538      0.81434603   
      3500  -10099.433     -10213.053      113.62053      35567.53       407.13603      13806.587      1.5600523      0.81434603   
      3600  -10098.762     -10219.814      121.05138      32235.018      433.76297      13805.875      1.5601326      0.81434603   
      3700  -10103.88      -10218.558      114.67804      29168.859      410.92539      13829.691      1.5574459      0.81434603   
      3800  -10105.475     -10214.205      108.7296       28825.906      389.61038      13866.6        1.5533005      0.81434603   
      3900  -10105.068     -10212.926      107.85818      29671.778      386.48782      13899.41       1.5496338      0.81434603   
      4000  -10102.004     -10215.244      113.23987      28167.569      405.77202      13913.55       1.5480591      0.91373203   
      4100  -10099.361     -10213.007      113.64662      29774.905      407.22952      13909.507      1.548509       0.91373203   
      4200  -10097.728     -10213.39       115.66199      27628.969      414.45118      13895.649      1.5500533      0.91373203   
      4300  -10095.693     -10211.783      116.09013      33293.808      415.98532      13880.806      1.5517108      0.91373203   
      4400  -10106.242     -10216.439      110.19703      28783.952      394.86862      13877.777      1.5520495      0.91373203   
      4500  -10103.22      -10216.05       112.83065      31225.23       404.30564      13871.404      1.5527626      0.91373203   
      4600  -10100.117     -10212.665      112.54809      29675.656      403.29314      13868.343      1.5531052      0.91373203   
      4700  -10096.627     -10214.023      117.39588      29843.652      420.66422      13878.065      1.5520173      0.91373203   
      4800  -10102.093     -10215.268      113.17467      32120.967      405.53837      13900.734      1.5494862      0.91373203   
      4900  -10101.238     -10215.829      114.59103      28038.833      410.61362      13924.993      1.5467869      0.91373203   
      5000  -10103.184     -10213.873      110.68846      25257.941      396.62953      13935.208      1.545653       0.83410532   
      5100  -10098.609     -10213.209      114.60051      29457.399      410.64758      13927.77       1.5464785      0.83410532   
      5200  -10099.512     -10214.991      115.47917      31264.37       413.79606      13905.776      1.5489245      0.83410532   
      5300  -10099.613     -10219.372      119.75841      30903.866      429.12988      13876.948      1.5521422      0.83410532   
      5400  -10099.491     -10210.767      111.27506      35323.161      398.7315       13861.041      1.5539235      0.83410532   
      5500  -10098.445     -10212.549      114.10424      31745.947      408.86931      13882.288      1.5515452      0.83410532   
      5600  -10097.739     -10213.041      115.30148      32741.199      413.15938      13923.401      1.5469637      0.83410532   
      5700  -10101.03      -10214.17       113.14005      26468.062      405.41432      13959.129      1.5430044      0.83410532   
      5800  -10101.973     -10215.85       113.87701      23617.23       408.05507      13968.778      1.5419385      0.83410532   
      5900  -10100.959     -10215.95       114.99116      27409.572      412.0474       13947.296      1.5443134      0.83410532   
      6000  -10099.793     -10212.94       113.14721      29808.445      405.43997      13904.386      1.5490793      0.78773025   
      6100  -10098.553     -10210.74       112.18754      31234.954      402.0012       13871.286      1.5527757      0.78773025   
      6200  -10102.104     -10212.898      110.7941       34019.663      397.0081       13865.838      1.5533858      0.78773025   
      6300  -10097.675     -10211.315      113.63954      32810.578      407.20416      13891.683      1.5504958      0.78773025   
      6400  -10096.966     -10212.316      115.35006      28066.457      413.33343      13937.119      1.5454411      0.78773025   
      6500  -10100.026     -10209.977      109.9506       26578.22       393.98559      13979.842      1.5407182      0.78773025   
      6600  -10102.879     -10214.39       111.51077      26715.629      399.57612      13999.912      1.5385094      0.78773025   
      6700  -10102.154     -10217.179      115.02584      28035.606      412.17167      13976.014      1.5411402      0.78773025   
      6800  -10100.272     -10208.612      108.33955      31842.591      388.21271      13917.931      1.5475717      0.78773025   
      6900  -10099.937     -10212.994      113.05624      32794.197      405.11402      13861.275      1.5538972      0.78773025   
      7000  -10099.103     -10213.037      113.93396      36672.18       408.25913      13835.457      1.5567969      0.84494761   
      7100  -10094.769     -10211.454      116.68542      29801.824      418.11845      13857.174      1.5543571      0.84494761   
      7200  -10095.147     -10213.717      118.56949      31096.215      424.86961      13909.314      1.5485304      0.84494761   
      7300  -10098.959     -10211.214      112.2547       28400.917      402.24185      13963.551      1.5425156      0.84494761   
      7400  -10100.596     -10212.356      111.76004      24952.047      400.46932      13988.023      1.5398171      0.84494761   
      7500  -10095.441     -10208.044      112.60278      31532.167      403.48913      13971.348      1.5416549      0.84494761   
      7600  -10096.261     -10214.729      118.46759      26991.991      424.50449      13927.925      1.5464613      0.84494761   
      7700  -10100.32      -10211.415      111.09462      33931.471      398.08493      13873.754      1.5524995      0.84494761   
      7800  -10102.285     -10218.803      116.51787      32857.434      417.51805      13848.446      1.5553367      0.84494761   
      7900  -10101.949     -10214.422      112.47293      31606.258      403.02382      13860.748      1.5539562      0.84494761   
      8000  -10106.94      -10214.72       107.77953      27771.607      386.20598      13897.869      1.5498057      0.78393932   
      8100  -10108.667     -10218.902      110.23454      28132.316      395.00303      13926.282      1.5466437      0.78393932   
      8200  -10105.525     -10216.824      111.29846      24549.193      398.81534      13934.054      1.5457811      0.78393932   
      8300  -10108.673     -10220.556      111.88357      31187.996      400.91197      13918.951      1.5474583      0.78393932   
      8400  -10106.517     -10216.44       109.92299      29327.532      393.88666      13893.255      1.5503204      0.78393932   
      8500  -10106.468     -10218.949      112.48107      26348.473      403.05299      13873.965      1.5524759      0.78393932   
      8600  -10110.589     -10217.879      107.28981      31601.109      384.45117      13862.743      1.5537326      0.78393932   
      8700  -10110.674     -10218.926      108.25213      33680.222      387.89946      13866.291      1.5533351      0.78393932   
      8800  -10107.215     -10215.97       108.75466      29599.228      389.70016      13884.367      1.5513128      0.78393932   
      8900  -10105.526     -10217.063      111.53656      30084.934      399.66856      13908.254      1.5486485      0.78393932   
      9000  -10105.418     -10211.373      105.95438      27731.995      379.66593      13926.116      1.5466622      0.79760342   
      9100  -10107.465     -10222.559      115.09459      25742.323      412.41801      13930.652      1.5461586      0.79760342   
      9200  -10109.353     -10218.341      108.98754      28672.744      390.53464      13906.737      1.5488174      0.79760342   
      9300  -10107.069     -10217.088      110.01982      29398.735      394.23362      13856.395      1.5544445      0.79760342   
      9400  -10105.892     -10216.826      110.93317      34869.395      397.50642      13812.983      1.5593299      0.79760342   
      9500  -10102.481     -10216.23       113.74952      36393.733      407.59823      13807.409      1.5599593      0.79760342   
      9600  -10102.05      -10216.524      114.47376      32556.059      410.19338      13847.755      1.5554143      0.79760342   
      9700  -10098.991     -10215.079      116.08833      30626.421      415.97889      13911.455      1.5482922      0.79760342   
      9800  -10098.291     -10214.907      116.61598      25006.401      417.8696       13965.739      1.542274       0.79760342   
      9900  -10096.926     -10213.495      116.56844      28808.118      417.69925      13979.718      1.5407318      0.79760342   
     10000  -10097.155     -10212.6        115.4441       27540.636      413.67042      13952.458      1.5437421      0.78715863   
     10100  -10095.406     -10208.171      112.76547      30802.907      404.07207      13908.632      1.5486064      0.78715863   
     10200  -10097.243     -10212.713      115.47016      32141.939      413.76381      13876.912      1.5521462      0.78715863   
     10300  -10101.637     -10215.387      113.7499       33393.347      407.5996       13863.29       1.5536714      0.78715863   
     10400  -10100.944     -10211.504      110.56045      33021.253      396.17086      13867.99       1.5531448      0.78715863   
     10500  -10101.564     -10215.58       114.01634      32057.969      408.55432      13886.694      1.5510528      0.78715863   
     10600  -10105.774     -10217.198      111.42408      28811.508      399.26551      13913.243      1.5480932      0.78715863   
     10700  -10106.971     -10221.237      114.26643      26474.318      409.45047      13934.698      1.5457096      0.78715863   
     10800  -10104.941     -10221.605      116.66454      30709.043      418.04362      13926.651      1.5466027      0.78715863   
     10900  -10105.123     -10216.832      111.70909      28740.967      400.28678      13903.251      1.5492057      0.78715863   
     11000  -10104.336     -10217.721      113.38518      29871.05       406.29268      13876.373      1.5522066      0.79203893   
     11100  -10104.773     -10216.847      112.07354      29435.977      401.59272      13851.043      1.5550451      0.79203893   
     11200  -10103.423     -10215.067      111.64427      33750.99       400.05449      13845.487      1.5556691      0.79203893   
     11300  -10100.256     -10218.68       118.42451      31118.145      424.35009      13863.467      1.5536515      0.79203893   
     11400  -10098.481     -10214.855      116.37452      32089.757      417.00438      13892.377      1.5504184      0.79203893   
     11500  -10103.174     -10220.767      117.59284      27456.126      421.36999      13917.377      1.5476333      0.79203893   
     11600  -10103.072     -10215.111      112.03933      24956.646      401.4701       13919.787      1.5473654      0.79203893   
     11700  -10104.525     -10215.339      110.81371      30411.692      397.07835      13904.079      1.5491135      0.79203893   
     11800  -10101.906     -10214.259      112.35332      30486.172      402.59525      13883.165      1.5514471      0.79203893   
     11900  -10098.787     -10215.089      116.30275      30363.357      416.7472       13871.696      1.5527298      0.79203893   
     12000  -10100.497     -10215.395      114.89759      32339.799      411.71209      13876.641      1.5521765      0.87720359   
     12100  -10104.793     -10214.266      109.47234      32191.841      392.27182      13898.874      1.5496936      0.87720359   
     12200  -10103.759     -10215.263      111.50363      25047.5        399.55055      13924.252      1.5468692      0.87720359   
     12300  -10103.129     -10215.709      112.57982      30674.943      403.40684      13933.252      1.54587        0.87720359   
     12400  -10101.83      -10216.09       114.25922      27331.072      409.42464      13924.634      1.5468268      0.87720359   
     12500  -10100.921     -10210.28       109.35904      28356.935      391.86584      13905.194      1.5489893      0.87720359   
     12600  -10100.927     -10213.21       112.28279      34743.006      402.34251      13893.168      1.5503301      0.87720359   
     12700  -10101.816     -10214.197      112.38096      29668.308      402.69429      13894.856      1.5501418      0.87720359   
     12800  -10098.913     -10213.035      114.12255      30680.455      408.93489      13909.355      1.5485259      0.87720359   
     12900  -10098.856     -10211.558      112.70193      28150.253      403.84441      13937.491      1.5453999      0.87720359   
     13000  -10097.784     -10212.277      114.49246      28004.457      410.26041      13962.781      1.5426008      0.79385205   
     13100  -10102.384     -10214.951      112.56659      25662.216      403.35945      13973.241      1.541446       0.79385205   
     13200  -10103.785     -10209.672      105.88699      26669.631      379.42447      13953.387      1.5436393      0.79385205   
     13300  -10101.623     -10213.894      112.2704       29338.528      402.29811      13908.804      1.5485872      0.79385205   
     13400  -10103.454     -10214.704      111.25043      33002.401      398.64326      13859.771      1.5540658      0.79385205   
     13500  -10102.4       -10214.288      111.88751      31734.327      400.92609      13831.22       1.5572738      0.79385205   
     13600  -10104.096     -10215.969      111.87369      32930.398      400.87656      13842.211      1.5560373      0.79385205   
     13700  -10098.228     -10213.991      115.76304      33530.325      414.81328      13887.227      1.5509933      0.79385205   
     13800  -10101.11      -10210.288      109.17862      25282.132      391.21934      13946.624      1.5443878      0.79385205   
     13900  -10099.457     -10211.061      111.60387      24859.846      399.90972      13991.328      1.5394533      0.79385205   
     14000  -10099.581     -10214.304      114.72352      26346.729      411.08835      14000.437      1.5384517      0.81806931   
     14100  -10096.182     -10210.574      114.39215      28059.817      409.90097      13974.954      1.541257       0.81806931   
     14200  -10099.871     -10212.621      112.74964      31908.031      404.01538      13919.433      1.5474047      0.81806931   
     14300  -10100.859     -10212.29       111.43099      33302.055      399.29024      13860.543      1.5539792      0.81806931   
     14400  -10102.684     -10217.144      114.46005      33655.839      410.14427      13831.849      1.557203       0.81806931   
     14500  -10103.525     -10212.859      109.33378      34510.876      391.77534      13843.116      1.5559355      0.81806931   
     14600  -10103.591     -10212.87       109.27852      32767.541      391.57731      13887.775      1.5509321      0.81806931   
     14700  -10107.533     -10218.261      110.72844      29215.315      396.77282      13943.528      1.5447307      0.81806931   
     14800  -10109.748     -10215.954      106.20545      28032.807      380.56558      13974.378      1.5413206      0.81806931   
     14900  -10108.824     -10214.959      106.13572      27524.223      380.31575      13963.262      1.5425476      0.81806931   
     15000  -10109.985     -10216.947      106.96191      31284.023      383.27622      13920.3        1.5473084      0.83127759   
     15100  -10106.874     -10218.688      111.81372      34130.13       400.6617       13866.099      1.5533566      0.83127759   
     15200  -10103.232     -10218.087      114.85557      32378.605      411.56155      13835.936      1.556743       0.83127759   
     15300  -10106.282     -10213.725      107.44364      31329.897      385.00238      13845.18       1.5557036      0.83127759   
     15400  -10105.596     -10218.006      112.41021      30693.097      402.79909      13889.639      1.550724       0.83127759   
     15500  -10105.838     -10216.001      110.16311      26053.853      394.74707      13946.963      1.5443503      0.83127759   
     15600  -10107.153     -10219.587      112.43324      25113.49       402.88161      13979.951      1.5407061      0.83127759   
     15700  -10109.531     -10218.77       109.23881      25694.165      391.43501      13971.871      1.5415972      0.83127759   
     15800  -10107.175     -10215.38       108.2049       29287.642      387.73022      13930.876      1.5461337      0.83127759   
     15900  -10101.46      -10212.377      110.91711      30075.004      397.44887      13887.957      1.5509118      0.83127759   
     16000  -10103.814     -10215.936      112.12277      33778.669      401.76912      13864.184      1.5535712      0.947206     
     16100  -10108.227     -10216.574      108.34617      33030.082      388.23642      13870.275      1.5528889      0.947206     
     16200  -10109.038     -10218.283      109.24528      30646.102      391.45819      13897.449      1.5498525      0.947206     
     16300  -10106.145     -10216.556      110.41032      31604.101      395.63288      13933.358      1.5458582      0.947206     
     16400  -10104.017     -10215.362      111.34571      30972.746      398.98466      13959.648      1.542947       0.947206     
     16500  -10107.233     -10217.228      109.99558      28315.894      394.14677      13965.535      1.5422966      0.947206     
     16600  -10110.464     -10216.203      105.73853      26754.042      378.8925       13943.779      1.5447029      0.947206     
     16700  -10107.408     -10213.072      105.66403      32764.368      378.62551      13898.204      1.5497683      0.947206     
     16800  -10107.982     -10213.825      105.84256      31520.836      379.26527      13856.245      1.5544613      0.947206     
     16900  -10100.612     -10213.938      113.32617      33122.295      406.08124      13836.255      1.5567071      0.947206     
     17000  -10102.838     -10212.522      109.68387      32518.296      393.02982      13853.307      1.5547909      0.82760648   
     17100  -10103.559     -10213.223      109.66444      33255.607      392.96017      13896.161      1.5499962      0.82760648   
     17200  -10105.44      -10212.975      107.53491      26414.015      385.32943      13949.967      1.5440177      0.82760648   
     17300  -10104.095     -10214.518      110.42292      25718.841      395.67803      13984.847      1.5401668      0.82760648   
     17400  -10103.216     -10215.919      112.70338      26609.143      403.84961      13986.176      1.5400205      0.82760648   
     17500  -10102.132     -10214.272      112.13994      27909.803      401.83065      13950.679      1.5439389      0.82760648   
     17600  -10101.976     -10217.095      115.11851      26980.599      412.50372      13898.654      1.5497182      0.82760648   
     17700  -10095.946     -10212.123      116.17658      30753.324      416.2951       13855.367      1.5545598      0.82760648   
     17800  -10099.442     -10213.504      114.06163      32938.476      408.71663      13840.225      1.5562606      0.82760648   
     17900  -10100.178     -10210.431      110.25263      33346.402      395.06785      13851.518      1.5549918      0.82760648   
     18000  -10092.8       -10209.379      116.57953      31447.546      417.739        13881.006      1.5516884      0.78514299   
     18100  -10093.131     -10207.856      114.72439      33198.876      411.09149      13915.477      1.5478447      0.78514299   
     18200  -10091.996     -10207.097      115.10059      25487.55       412.43952      13949.18       1.5441049      0.78514299   
     18300  -10099.991     -10210.385      110.39431      26906.008      395.57552      13968.33       1.541988       0.78514299   
     18400  -10096.548     -10214.111      117.56346      26988.081      421.26469      13956.191      1.5433292      0.78514299   
     18500  -10097.346     -10209.577      112.23101      30418.098      402.15694      13915.592      1.5478319      0.78514299   
     18600  -10100.08      -10208.1        108.01976      30262.779      387.06682      13875.995      1.5522488      0.78514299   
     18700  -10095.007     -10209.098      114.09116      30049.51       408.82245      13859.284      1.5541204      0.78514299   
     18800  -10095.028     -10207.894      112.866        32563.067      404.43234      13879.218      1.5518883      0.78514299   
     18900  -10100.066     -10212.663      112.59712      27336.959      403.46883      13925.483      1.5467324      0.78514299   
     19000  -10101.244     -10212.236      110.99186      28830.925      397.71671      13956.984      1.5432415      0.86475761   
     19100  -10099.53      -10213.019      113.48916      26525.928      406.66529      13960.323      1.5428724      0.86475761   
     19200  -10099.525     -10212.52       112.99485      28400.102      404.89403      13939.117      1.5452196      0.86475761   
     19300  -10099.89      -10212.934      113.04426      31290.603      405.07109      13909.302      1.5485318      0.86475761   
     19400  -10101.321     -10209.16       107.83943      32330.733      386.42061      13884.023      1.5513512      0.86475761   
     19500  -10096.065     -10211.295      115.23049      35298.48       412.90497      13877.099      1.5521252      0.86475761   
     19600  -10100.425     -10213.976      113.55127      32311.286      406.88783      13890.89       1.5505843      0.86475761   
     19700  -10101.047     -10214.87       113.82243      27951.494      407.85948      13918.136      1.547549       0.86475761   
     19800  -10101.364     -10214.65       113.2865       27951.705      405.9391       13934.811      1.5456971      0.86475761   
     19900  -10103.495     -10215.874      112.37915      26570.237      402.6878       13933.772      1.5458123      0.86475761   
     20000  -10103.487     -10214.064      110.57658      26411.202      396.22863      13916.741      1.547704       0.78601091   
     20100  -10099.343     -10212.47       113.12765      32783.923      405.36988      13892.616      1.5503917      0.78601091   
     20200  -10097.552     -10209.356      111.80343      31080.393      400.62483      13880.682      1.5517247      0.78601091   
     20300  -10094.357     -10208.866      114.50915      31294.951      410.32022      13885.684      1.5511657      0.78601091   
     20400  -10093.4       -10208.758      115.35795      29307.194      413.36172      13905.083      1.5490017      0.78601091   
     20500  -10096.996     -10213.515      116.51881      30611.21       417.52143      13927.478      1.5465109      0.78601091   
     20600  -10099.762     -10215.194      115.43109      28711.074      413.62381      13935.7        1.5455984      0.78601091   
     20700  -10102.231     -10218.652      116.42039      25413.434      417.16874      13920.95       1.5472361      0.78601091   
     20800  -10101.898     -10216.666      114.76816      29054.047      411.24833      13891.338      1.5505343      0.78601091   
     20900  -10100.513     -10213.94       113.42669      30899.725      406.44142      13861.31       1.5538933      0.78601091   
     21000  -10105.492     -10212.805      107.31317      31560.951      384.53487      13843.894      1.5558481      0.83681141   
     21100  -10101.45      -10213.811      112.3609       31349.329      402.62239      13851.345      1.5550112      0.83681141   
     21200  -10101.068     -10210.108      109.04061      32520.149      390.7248       13883.509      1.5514087      0.83681141   
     21300  -10101.96      -10216.632      114.67219      28469.251      410.90445      13924.553      1.5468357      0.83681141   
     21400  -10101.067     -10212.928      111.86089      25154.762      400.83072      13952.974      1.543685       0.83681141   
     21500  -10097.754     -10211.239      113.48516      27827.841      406.65096      13960.437      1.5428598      0.83681141   
     21600  -10099.981     -10211.311      111.3301       32357.959      398.92875      13943.62       1.5447206      0.83681141   
     21700  -10094.528     -10211.445      116.91751      31227.576      418.95006      13912.616      1.548163       0.83681141   
     21800  -10094.147     -10210.538      116.39129      32552.049      417.06449      13887.737      1.5509364      0.83681141   
     21900  -10095.921     -10210.078      114.15672      30718.306      409.05735      13883.325      1.5514293      0.83681141   
     22000  -10098.11      -10210.842      112.73162      33434.106      403.9508       13902.802      1.5492558      0.84439898   
     22100  -10097.025     -10212.515      115.48963      31465.64       413.83357      13934.603      1.5457201      0.84439898   
     22200  -10099.925     -10212.921      112.99591      29855.433      404.89783      13955.88       1.5433636      0.84439898   
     22300  -10098.949     -10214.577      115.62811      29702.354      414.32978      13955.053      1.543455       0.84439898   
     22400  -10100.018     -10218.243      118.2245       29352.651      423.63341      13933.6        1.5458314      0.84439898   
     22500  -10097.951     -10219.933      121.9829       32305.382      437.10087      13898.835      1.549698       0.84439898   
     22600  -10095.402     -10211.571      116.16863      34521.771      416.26662      13867.59       1.5531896      0.84439898   
     22700  -10093.635     -10211.876      118.24142      31574.835      423.69405      13868.826      1.5530511      0.84439898   
     22800  -10096.101     -10207.93       111.82848      32010.944      400.71457      13901.189      1.5494355      0.84439898   
     22900  -10090.285     -10206.826      116.54133      30039.044      417.60213      13951.231      1.5438779      0.84439898   
     23000  -10092.875     -10210.103      117.22867      28717.532      420.06504      13989.4        1.5396655      0.82071243   
     23100  -10095.001     -10212.603      117.60205      30115.741      421.40298      13990.916      1.5394986      0.82071243   
     23200  -10096.002     -10210.1        114.098        27693.882      408.84696      13958.142      1.5431135      0.82071243   
     23300  -10095.583     -10212.388      116.80453      30933.406      418.54526      13916.732      1.547705       0.82071243   
     23400  -10098.096     -10207.385      109.28958      35496.413      391.61695      13888.754      1.5508228      0.82071243   
     23500  -10094.514     -10209.797      115.28299      33719.243      413.09313      13891.491      1.5505172      0.82071243   
     23600  -10096.355     -10209.775      113.42044      31384.992      406.41903      13919.651      1.5473805      0.82071243   
     23700  -10101.068     -10216.809      115.74142      27407.653      414.7358       13955.661      1.5433878      0.82071243   
     23800  -10104.958     -10219.12       114.16227      26693.314      409.07724      13975.506      1.5411962      0.82071243   
     23900  -10108.23      -10216.934      108.70379      27560.096      389.5179       13962.169      1.5426684      0.82071243   
     24000  -10106.834     -10217.993      111.15914      28518.928      398.31613      13921.32       1.547195       0.79783642   
     24100  -10105.344     -10215.229      109.88464      29091.196      393.74921      13880.651      1.5517281      0.79783642   
     24200  -10104.938     -10218.113      113.17492      33695.372      405.53926      13858.032      1.5542608      0.79783642   
     24300  -10104.409     -10215.013      110.60415      32774.105      396.32744      13863.101      1.5536925      0.79783642   
     24400  -10102.18      -10209.808      107.62814      35410.588      385.66353      13893.994      1.5502379      0.79783642   
     24500  -10099.953     -10210.77       110.81694      27583.511      397.08993      13939.193      1.5452111      0.79783642   
     24600  -10097.764     -10208.593      110.82839      28061.798      397.13095      13976.123      1.5411282      0.79783642   
     24700  -10095.602     -10211.892      116.29025      25744.765      416.70243      13988.272      1.5397897      0.79783642   
     24800  -10096.121     -10208.968      112.84684      30480.238      404.36365      13966.721      1.5421656      0.79783642   
     24900  -10094.7       -10205.285      110.58415      29617.077      396.25576      13929.953      1.5462362      0.79783642   
     25000  -10096.187     -10207.041      110.85354      30302.215      397.22108      13901.804      1.549367       0.80685796   
     25100  -10097.388     -10211.35       113.96203      31434.034      408.35973      13895.366      1.5500848      0.80685796   
     25200  -10101.864     -10214.848      112.98399      28743.018      404.85511      13906.219      1.5488751      0.80685796   
     25300  -10100.125     -10213.35       113.22577      29920.929      405.72149      13928.971      1.5463451      0.80685796   
     25400  -10103.08      -10215.283      112.20343      26583.364      402.05814      13948.772      1.54415        0.80685796   
     25500  -10105.057     -10219.318      114.26153      26847.474      409.43293      13952.769      1.5437077      0.80685796   
     25600  -10105.893     -10213.206      107.31249      31370.433      384.53244      13936.815      1.5454748      0.80685796   
     25700  -10104.814     -10215.684      110.87015      33586.985      397.2806       13912.728      1.5481504      0.80685796   
     25800  -10103.372     -10214.831      111.45864      30280.224      399.38933      13898.598      1.5497244      0.80685796   
     25900  -10101.752     -10216.186      114.43367      31188.628      410.04975      13900.22       1.5495435      0.80685796   
     26000  -10103.476     -10213.627      110.15107      32951.472      394.70392      13918.835      1.5474713      0.79974435   
     26100  -10105.637     -10216.925      111.28821      29159.594      398.77864      13953.565      1.5436196      0.79974435   
     26200  -10107.452     -10217.508      110.05633      29804.719      394.36444      13981.08       1.5405817      0.79974435   
     26300  -10105.329     -10211.775      106.44586      30603.504      381.42706      13978.718      1.5408421      0.79974435   
     26400  -10101.848     -10216.249      114.40087      27807.517      409.93223      13955.185      1.5434404      0.79974435   
     26500  -10102.534     -10214.518      111.98454      32474.014      401.27377      13922.591      1.5470538      0.79974435   
     26600  -10102.401     -10212.961      110.56055      32854.542      396.1712       13896.432      1.549966       0.79974435   
     26700  -10103.245     -10213.585      110.34075      33934.478      395.38358      13898.004      1.5497907      0.79974435   
     26800  -10103.409     -10212.864      109.45409      29579.709      392.20644      13933.616      1.5458296      0.79974435   
     26900  -10106.693     -10216.08       109.38603      26334.561      391.96255      13976.562      1.5410798      0.79974435   
     27000  -10103.172     -10210.731      107.55896      28700.664      385.41563      13994.106      1.5391477      0.78233782   
     27100  -10101.094     -10213.518      112.42476      26852.992      402.85121      13986.776      1.5399543      0.78233782   
     27200  -10104.091     -10216.023      111.93169      26703.302      401.08439      13959.584      1.542954       0.78233782   
     27300  -10102.331     -10213.485      111.15344      29752.023      398.2957       13924.616      1.5468288      0.78233782   
     27400  -10098.662     -10213.427      114.76487      31711.047      411.23654      13898.213      1.5497674      0.78233782   
     27500  -10100.685     -10212.739      112.0543       35593.603      401.52376      13890.95       1.5505776      0.78233782   
     27600  -10099.73      -10212.508      112.77748      30512.945      404.11512      13909.809      1.5484754      0.78233782   
     27700  -10098.076     -10207.246      109.17022      27840.879      391.18925      13937.227      1.5454291      0.78233782   
     27800  -10096.342     -10214.93       118.58772      30115.691      424.93492      13959.934      1.5429153      0.78233782   
     27900  -10098.943     -10212.691      113.74797      28271.135      407.59267      13966.371      1.5422043      0.78233782   
     28000  -10100.955     -10215.946      114.99127      28819.61       412.0478       13948.368      1.5441947      0.82506148   
     28100  -10101         -10212.663      111.6633       32094.742      400.1227       13912.393      1.5481878      0.82506148   
     28200  -10106.118     -10217.709      111.59102      33236.973      399.86369      13882.52       1.5515193      0.82506148   
     28300  -10107.391     -10217.254      109.86292      30656.415      393.6714       13867.605      1.5531879      0.82506148   
     28400  -10103.167     -10218.241      115.07384      31374.581      412.34368      13873.36       1.5525436      0.82506148   
     28500  -10106.125     -10214.275      108.15046      32446.531      387.53513      13895.887      1.5500268      0.82506148   
     28600  -10106.139     -10216.776      110.63672      29875.938      396.44416      13919.204      1.5474302      0.82506148   
     28700  -10109.13      -10217.548      108.41779      29577.622      388.49307      13935.574      1.5456125      0.82506148   
     28800  -10108.826     -10218.646      109.82023      28548.714      393.51844      13931.575      1.5460561      0.82506148   
     28900  -10108.052     -10217.475      109.42363      27581.648      392.09729      13909.426      1.548518       0.82506148   
     29000  -10111.214     -10221.513      110.29931      26829.583      395.23512      13875.677      1.5522844      0.78085538   
     29100  -10106.823     -10217.942      111.11958      32912.723      398.17439      13846.343      1.5555729      0.78085538   
     29200  -10101.807     -10215.416      113.6088       35072.657      407.094        13836.286      1.5567036      0.78085538   
     29300  -10105.974     -10216.459      110.48498      33171.595      395.90042      13856.926      1.5543849      0.78085538   
     29400  -10099.93      -10215.121      115.19099      28916.523      412.76346      13898.291      1.5497586      0.78085538   
     29500  -10099.619     -10219.58       119.96115      30217.069      429.85633      13940.212      1.5450982      0.78085538   
     29600  -10102.871     -10221.103      118.23234      28587.222      423.66152      13954.493      1.543517       0.78085538   
     29700  -10102.485     -10213.354      110.86925      28164.98       397.27737      13934.652      1.5457146      0.78085538   
     29800  -10101.848     -10213.992      112.14464      30021.857      401.84748      13892.897      1.5503603      0.78085538   
     29900  -10098.438     -10215.337      116.89946      32968.219      418.88539      13850.117      1.555149       0.78085538   
     30000  -10098.612     -10216.921      118.30902      33135.426      423.93629      13832.016      1.5571841      0.89320389   
     30100  -10097.098     -10214.099      117.00079      33428.16       419.2485       13853.272      1.5547948      0.89320389   
     30200  -10098.582     -10212.255      113.67273      32027.832      407.32308      13902.043      1.5493403      0.89320389   
     30300  -10104.493     -10217.814      113.32109      28111.253      406.06305      13953.692      1.5436056      0.89320389   
     30400  -10101.191     -10215.602      114.41062      26299.558      409.96713      13973.022      1.5414702      0.89320389   
     30500  -10103.576     -10216.121      112.54528      28528.832      403.28309      13960.39       1.542865       0.89320389   
     30600  -10102.583     -10215.432      112.84906      29076.422      404.37161      13935.09       1.5456661      0.89320389   
     30700  -10100.129     -10210.7        110.57171      31001.318      396.21121      13904.987      1.5490124      0.89320389   
     30800  -10098.693     -10206.715      108.02215      32359.459      387.07536      13890.685      1.5506072      0.89320389   
     30900  -10100.738     -10211.659      110.92112      28194.566      397.46324      13896.582      1.5499493      0.89320389   
     31000  -10099.932     -10211.777      111.84435      31198.967      400.77146      13912.088      1.5482217      0.79623572   
     31100  -10100.11      -10212.952      112.84175      29841.323      404.34544      13926.944      1.5465702      0.79623572   
     31200  -10105.566     -10213.157      107.59094      29879.242      385.53023      13934.513      1.5457302      0.79623572   
     31300  -10103.945     -10217.59       113.64546      27296.896      407.22534      13931.494      1.5460651      0.79623572   
     31400  -10100.81      -10215.477      114.66719      28131.693      410.88653      13918.007      1.5475632      0.79623572   
     31500  -10101.094     -10211.99       110.89613      31638.332      397.37371      13905.225      1.5489858      0.79623572   
     31600  -10100.403     -10213.658      113.25526      30152.093      405.82714      13901.077      1.5494481      0.79623572   
     31700  -10099.022     -10209.136      110.11353      33091.71       394.56942      13898.899      1.5496908      0.79623572   
     31800  -10100.567     -10215.143      114.57602      31278.149      410.55982      13904.388      1.5490791      0.79623572   
     31900  -10101.548     -10212.57       111.0219       28068.017      397.82437      13916.836      1.5476935      0.79623572   
     32000  -10101.89      -10213.764      111.87339      31545.537      400.87549      13928.98       1.5463441      0.85979113   
     32100  -10102.206     -10213.231      111.02583      27839.288      397.83844      13940.651      1.5450496      0.85979113   
     32200  -10101.524     -10217.032      115.50769      26177.044      413.89826      13948.813      1.5441455      0.85979113   
     32300  -10099.364     -10213.406      114.04246      30419.106      408.64792      13936.341      1.5455273      0.85979113   
     32400  -10099.092     -10212.921      113.82926      28103.641      407.88395      13914.482      1.5479554      0.85979113   
     32500  -10102.773     -10216.868      114.09472      32032.604      408.83518      13895.296      1.5500927      0.85979113   
     32600  -10104.292     -10217.11       112.8174       32592.992      404.25815      13880.759      1.5517161      0.85979113   
     32700  -10100.764     -10211.51       110.74601      31684.728      396.83577      13881.875      1.5515913      0.85979113   
     32800  -10098.483     -10214.951      116.46761      28217.375      417.33794      13905.676      1.5489356      0.85979113   
     32900  -10097.972     -10213.686      115.71338      27845.678      414.63534      13937.056      1.545448       0.85979113   
     33000  -10098.7       -10212.782      114.08192      26170.503      408.7893       13959.744      1.5429364      0.78932117   
     33100  -10096.545     -10212.36       115.81516      29326.304      415.00005      13956.313      1.5433157      0.78932117   
     33200  -10101.383     -10212.399      111.0152       30520.607      397.80034      13930.792      1.546143       0.78932117   
     33300  -10101.262     -10215.17       113.90821      30905.692      408.16685      13889.568      1.5507319      0.78932117   
     33400  -10099.592     -10216.118      116.52618      29786.273      417.54783      13850.777      1.5550749      0.78932117   
     33500  -10101.84      -10216.192      114.35174      33247.315      409.75617      13842.318      1.5560253      0.78932117   
     33600  -10105.222     -10215.939      110.71678      30980.2        396.73104      13866.253      1.5533394      0.78932117   
     33700  -10103.464     -10217.688      114.22471      28344.875      409.30098      13906.728      1.5488184      0.78932117   
     33800  -10110.47      -10214.196      103.726        27903.057      371.681        13943.62       1.5447206      0.78932117   
     33900  -10105.878     -10214.979      109.10114      27414.643      390.94171      13961.549      1.5427369      0.78932117   
     34000  -10106.758     -10218.697      111.9386       24786.7        401.10918      13954.435      1.5435234      0.79279722   
     34100  -10106.744     -10215.898      109.15427      28740.587      391.13208      13919.463      1.5474014      0.79279722   
     34200  -10108.33      -10216.701      108.37105      33831.974      388.32559      13880.566      1.5517376      0.79279722   
     34300  -10105.285     -10216.457      111.17214      34591.092      398.36272      13859.99       1.5540412      0.79279722   
     34400  -10103.491     -10211.034      107.54347      31771.096      385.36011      13872.508      1.552639       0.79279722   
     34500  -10101.7       -10213.012      111.31256      28952.659      398.86588      13915.236      1.5478714      0.79279722   
     34600  -10104.927     -10216.102      111.17504      25674.99       398.37311      13963.792      1.5424891      0.79279722   
     34700  -10104.268     -10217.72       113.4521       25054.622      406.53249      13991.631      1.53942        0.79279722   
     34800  -10101.025     -10209.825      108.80021      25949.903      389.8634       13981.421      1.5405442      0.79279722   
     34900  -10099.267     -10214.957      115.69016      26190.207      414.55211      13934.27       1.5457571      0.79279722   
     35000  -10096.946     -10211.44       114.49413      31464.626      410.26638      13870.718      1.5528393      0.83201366   
     35100  -10094.995     -10209.902      114.9064       36398.201      411.74368      13835.67       1.5567729      0.83201366   
     35200  -10094.753     -10212.7        117.94703      32792.086      422.63915      13852.434      1.554889       0.83201366   
     35300  -10103.855     -10216.931      113.0753       28317.393      405.18229      13910.687      1.5483776      0.83201366   
     35400  -10106.015     -10215.917      109.90195      27849.324      393.81125      13970.527      1.5417455      0.83201366   
     35500  -10107.189     -10219.071      111.88159      29430.946      400.9049       13996.6        1.5388735      0.83201366   
     35600  -10107.366     -10222.673      115.30755      26649.411      413.18112      13971.632      1.5416235      0.83201366   
     35700  -10108.86      -10220.153      111.29324      24982.775      398.79666      13902.191      1.5493239      0.83201366   
     35800  -10105.646     -10217.284      111.63793      33126.429      400.03178      13825.481      1.5579202      0.83201366   
     35900  -10101.272     -10211.648      110.37642      35886.642      395.51142      13788.438      1.5621056      0.83201366   
     36000  -10099.988     -10212.789      112.80174      34519.584      404.20205      13817.467      1.5588238      0.85900058   
     36100  -10104.09      -10212.727      108.63727      33061.949      389.27953      13893.539      1.5502887      0.85900058   
     36200  -10102.953     -10214.873      111.9197       26715.44       401.04143      13974.185      1.5413419      0.85900058   
     36300  -10107.369     -10217.25       109.8808       21724.77       393.73547      14012.524      1.5371246      0.85900058   
     36400  -10107.963     -10219.233      111.26984      24400.96       398.7128       13987.435      1.5398818      0.85900058   
     36500  -10108.411     -10218.468      110.05698      28913.866      394.36675      13915.271      1.5478675      0.85900058   
     36600  -10102.378     -10214.118      111.73926      33444.897      400.39489      13839.801      1.5563083      0.85900058   
     36700  -10100.38      -10214.815      114.43575      31834.75       410.0572       13807.878      1.5599063      0.85900058   
     36800  -10097.942     -10208.808      110.86569      31292.135      397.26461      13833.959      1.5569655      0.85900058   
     36900  -10100.792     -10209.581      108.78895      29487.054      389.82304      13898.227      1.5497658      0.85900058   
     37000  -10103.341     -10215.252      111.91086      29253.067      401.00978      13961.254      1.5427695      0.79955022   
     37100  -10099.901     -10216.016      116.1151       26283.402      416.07479      13990.527      1.5395415      0.79955022   
     37200  -10105.152     -10215.48       110.32797      26559.414      395.3378       13974.259      1.5413337      0.79955022   
     37300  -10102.159     -10217.197      115.03815      30579.241      412.21578      13923.102      1.5469969      0.79955022   
     37400  -10099.688     -10214.297      114.60839      31574.919      410.67581      13869.288      1.5529994      0.79955022   
     37500  -10097.271     -10211.245      113.97403      31248.503      408.40271      13839.853      1.5563024      0.79955022   
     37600  -10099.455     -10212.003      112.5486       33085.298      403.29499      13847.939      1.5553936      0.79955022   
     37700  -10103.865     -10215.986      112.12051      29512.482      401.76101      13880.591      1.5517348      0.79955022   
     37800  -10104.698     -10214.608      109.90974      27768.663      393.83918      13917.448      1.5476254      0.79955022   
     37900  -10108.85      -10218.393      109.54295      27101.748      392.52486      13936.451      1.5455151      0.79955022   
     38000  -10109.975     -10220.237      110.26216      28216.654      395.10199      13930.364      1.5461905      0.92394591   
     38100  -10103.437     -10215.164      111.72678      27096.821      400.35014      13902.676      1.5492699      0.92394591   
     38200  -10106.97      -10218.751      111.78102      33044.677      400.54452      13874.1        1.5524608      0.92394591   
     38300  -10108.598     -10218.901      110.30284      33082.116      395.24774      13855.122      1.5545873      0.92394591   
     38400  -10110.569     -10221.233      110.66406      33029.794      396.54211      13849.421      1.5552272      0.92394591   
     38500  -10105.23      -10218.563      113.33375      29203.902      406.10841      13853.935      1.5547205      0.92394591   
     38600  -10111.853     -10221.914      110.06134      31806.278      394.38239      13872.256      1.5526671      0.92394591   
     38700  -10114.878     -10225.467      110.58861      31508.934      396.27175      13893.56       1.5502863      0.92394591   
     38800  -10112.694     -10222.049      109.35563      30642.742      391.85364      13900.163      1.54955        0.92394591   
     38900  -10107.888     -10219.794      111.90555      28772.622      400.99074      13893.717      1.5502688      0.92394591   
     39000  -10110.852     -10220.304      109.45179      32337.909      392.19818      13875.622      1.5522905      0.88744453   
     39100  -10113.621     -10222.961      109.34006      31212.588      391.79782      13861.35       1.5538888      0.88744453   
     39200  -10113.911     -10226.189      112.27856      31761.39       402.32734      13862.834      1.5537225      0.88744453   
     39300  -10114.74      -10222.503      107.76267      30283.933      386.14556      13879.119      1.5518994      0.88744453   
     39400  -10113.96      -10219.462      105.50231      28203.555      378.04605      13900.736      1.549486       0.88744453   
     39500  -10111.9       -10220.529      108.62943      27841.403      389.25143      13926.847      1.546581       0.88744453   
     39600  -10110.805     -10219.546      108.74143      25592.345      389.65277      13941.353      1.5449717      0.88744453   
     39700  -10113.757     -10222.693      108.93639      27391.121      390.35136      13930.812      1.5461408      0.88744453   
     39800  -10110.272     -10218.559      108.28759      30462.867      388.02652      13890.769      1.5505979      0.88744453   
     39900  -10106.567     -10218.948      112.38181      32183.898      402.69731      13849.831      1.5551812      0.88744453   
     40000  -10106.372     -10220.037      113.66445      31078.421      407.2934       13832.169      1.5571669      0.87721861   
     40100  -10109.874     -10222.301      112.42705      29439.916      402.85945      13851.326      1.5550133      0.87721861   
     40200  -10108.662     -10219.346      110.6839       29973.35       396.61321      13892.515      1.550403       0.87721861   
     40300  -10106.65      -10216.588      109.93796      29849.649      393.94028      13935.042      1.5456714      0.87721861   
     40400  -10109.318     -10221.123      111.80494      24295.498      400.63021      13952.496      1.5437378      0.87721861   
     40500  -10106.434     -10219.101      112.6673       29216.131      403.7203       13926.172      1.5466559      0.87721861   
     40600  -10106.401     -10217.907      111.50587      33723.055      399.55859      13877.584      1.552071       0.87721861   
     40700  -10105.058     -10215.325      110.26768      34967.572      395.12177      13837.087      1.5566135      0.87721861   
     40800  -10105.276     -10217.405      112.12942      30768.59       401.79294      13829.045      1.5575188      0.87721861   
     40900  -10105.729     -10217.388      111.65864      29548.439      400.10599      13853.707      1.554746       0.87721861   
     41000  -10107.642     -10220.183      112.54059      24625.873      403.26628      13904.031      1.5491189      0.83935265   
     41033  -10107.398     -10215.738      108.34074      32405.487      388.21699      13921.326      1.5471943      0.83935265   
Loop time of 231.587 on 1 procs for 40000 steps with 2160 atoms

Performance: 7.462 ns/day, 3.216 hours/ns, 172.722 timesteps/s, 373.079 katom-step/s
99.8% CPU use with 1 MPI tasks x 1 OpenMP threads

MPI task timing breakdown:
Section |  min time  |  avg time  |  max time  |%varavg| %total
---------------------------------------------------------------
Pair    | 188.09     | 188.09     | 188.09     |   0.0 | 81.22
Neigh   | 1.7625     | 1.7625     | 1.7625     |   0.0 |  0.76
Comm    | 1.8371     | 1.8371     | 1.8371     |   0.0 |  0.79
Output  | 0.14184    | 0.14184    | 0.14184    |   0.0 |  0.06
Modify  | 38.854     | 38.854     | 38.854     |   0.0 | 16.78
Other   |            | 0.9014     |            |       |  0.39

Nlocal:           2160 ave        2160 max        2160 min
Histogram: 1 0 0 0 0 0 0 0 0 0
Nghost:           5896 ave        5896 max        5896 min
Histogram: 1 0 0 0 0 0 0 0 0 0
Neighs:              0 ave           0 max           0 min
Histogram: 1 0 0 0 0 0 0 0 0 0
FullNghs:       384800 ave      384800 max      384800 min
Histogram: 1 0 0 0 0 0 0 0 0 0

Total # of neighbors = 384800
Ave neighs/atom = 178.14815
Neighbor list builds = 4000
Dangerous builds = 4000
Setting up Verlet run ...
  Unit style    : metal
  Current step  : 41033
  Time step     : 0.0005
WARNING: Fix with atom-based arrays not compatible with Kokkos sorting on device, switching to classic host sorting (src/KOKKOS/atom_kokkos.cpp:216)
Per MPI rank memory allocation (min/avg/max) = 1873 | 1873 | 1873 Mbytes
   Step         TotEng         PotEng         KinEng         Press           Temp          Volume        Density     c_max_pace_gamma
     41033  -10106.9       -10215.738      108.83833      32443.665      390            13921.326      1.5471943      0.83935265   
     41100  -10115.394     -10249.812      134.4182       43587.295      481.66025      13954.938      1.5434677      0.83935265   
     41200  -10127.204     -10255.368      128.16383      37967.577      459.24899      14095.412      1.5280856      0.83935265   
     41300  -10138.476     -10265.258      126.78166      31099.469      454.29625      14287.706      1.5075196      0.83935265   
     41400  -10150.027     -10267.218      117.19155      27663.79       419.93205      14460.155      1.4895411      0.83935265   
     41500  -10156.569     -10277.355      120.78624      27050.994      432.81288      14568.913      1.4784217      0.83935265   
     41600  -10160.247     -10272.522      112.27488      26737.031      402.31415      14599.519      1.4753223      0.83935265   
     41700  -10167.344     -10279.46       112.11581      26908.784      401.74417      14571.922      1.4781164      0.83935265   
     41800  -10164.086     -10276.211      112.12551      29343.607      401.77892      14496.81       1.4857749      0.83935265   
     41900  -10161.596     -10276.833      115.23778      27450.566      412.9311       14402.389      1.4955155      0.83935265   
     42000  -10160.806     -10276.843      116.03674      31658.101      415.79401      14310.558      1.5051123      0.85686753   
     42100  -10162.378     -10277.444      115.06672      31306.109      412.31816      14244.279      1.5121156      0.85686753   
     42200  -10162.917     -10280.558      117.64104      31089.888      421.54271      14207.871      1.5159905      0.85686753   
     42300  -10164.069     -10278.502      114.43233      33729.439      410.04495      14193.781      1.5174953      0.85686753   
     42400  -10165.075     -10277.219      112.14455      29224.341      401.84716      14200.72       1.5167539      0.85686753   
     42500  -10166.558     -10278.988      112.42971      33793.375      402.86898      14224.483      1.51422        0.85686753   
     42600  -10168.859     -10281.573      112.71362      29705.111      403.88628      14251.456      1.5113541      0.85686753   
     42700  -10169.789     -10280.957      111.16803      30988.473      398.34797      14266.776      1.5097312      0.85686753   
     42800  -10168.861     -10284.283      115.42175      31332.578      413.59034      14271.778      1.5092021      0.85686753   
     42900  -10167.979     -10284.38       116.40139      32107.038      417.10068      14270.425      1.5093451      0.85686753   
     43000  -10169.341     -10283.055      113.71304      26353.975      407.46753      14266.404      1.5097705      0.90791386   
     43033  -10168.432     -10282.401      113.96963      31795.038      408.38695      14265.971      1.5098163      0.90791386   
Loop time of 11.2615 on 1 procs for 2000 steps with 2160 atoms

Performance: 7.672 ns/day, 3.128 hours/ns, 177.597 timesteps/s, 383.609 katom-step/s
99.8% CPU use with 1 MPI tasks x 1 OpenMP threads

MPI task timing breakdown:
Section |  min time  |  avg time  |  max time  |%varavg| %total
---------------------------------------------------------------
Pair    | 9.2371     | 9.2371     | 9.2371     |   0.0 | 82.02
Neigh   | 0.088823   | 0.088823   | 0.088823   |   0.0 |  0.79
Comm    | 0.091997   | 0.091997   | 0.091997   |   0.0 |  0.82
Output  | 0.0070645  | 0.0070645  | 0.0070645  |   0.0 |  0.06
Modify  | 1.7909     | 1.7909     | 1.7909     |   0.0 | 15.90
Other   |            | 0.04562    |            |       |  0.41

Nlocal:           2160 ave        2160 max        2160 min
Histogram: 1 0 0 0 0 0 0 0 0 0
Nghost:           5819 ave        5819 max        5819 min
Histogram: 1 0 0 0 0 0 0 0 0 0
Neighs:              0 ave           0 max           0 min
Histogram: 1 0 0 0 0 0 0 0 0 0
FullNghs:       377428 ave      377428 max      377428 min
Histogram: 1 0 0 0 0 0 0 0 0 0

Total # of neighbors = 377428
Ave neighs/atom = 174.73519
Neighbor list builds = 200
Dangerous builds = 200
Total wall time: 0:04:09
