ITEM: TIMESTEP
2000
ITEM: NUMBER OF ATOMS
2160
ITEM: BOX BOUNDS pp pp pp
-2.2512030492075269e-01 1.9890187114920781e+01
-2.0724252065232410e-01 1.9872309270652277e+01
-4.9917855004161393e-01 3.3232733500041341e+01
ITEM: ATOMS id type element x y z
2 1 H 0.679997 -0.0886841 -0.114317
3 1 H 2.94777 2.81385 0.291056
9 1 H 0.894811 1.84097 1.72601
10 1 H 2.23095 1.03245 1.7924
1445 2 O 1.56394 1.43854 1.11627
1444 2 O -0.208608 3.05798 2.59866
17 1 H 3.74277 0.177045 0.199789
20 1 H 5.90677 2.61583 0.180961
25 1 H 4.4224 2.17965 1.77214
26 1 H 5.289 0.828893 1.92915
1453 2 O 4.79064 1.38128 1.28389
482 1 H 7.31539 -0.0235909 -0.288603
483 1 H 9.0831 2.64324 0.0983056
489 1 H 7.70306 2.0568 1.88554
490 1 H 8.98094 0.965587 1.56407
1685 2 O 8.25582 1.58901 1.20264
1691 2 O 6.72022 0.0344527 2.81391
1849 2 O 9.60426 -0.164608 -0.283666
1692 2 O 9.81111 3.13493 2.75893
497 1 H 10.3764 0.354478 0.0310724
500 1 H 12.6595 2.37747 0.15305
505 1 H 11.0664 2.11519 1.66615
506 1 H 12.0979 0.830826 1.71144
1693 2 O 11.5838 1.46277 1.1072
1746 2 O 9.77289 3.19435 -0.468264
1931 2 O 13.0669 -0.0586914 2.82659
962 1 H 13.6094 0.366883 0.0495293
963 1 H 15.9111 2.6038 0.191248
969 1 H 14.1766 2.11119 1.72913
970 1 H 15.1978 0.886016 1.84012
1925 2 O 14.8895 1.59967 1.20184
1986 2 O 16.6351 3.07294 -0.363077
1690 2 O 12.9788 3.14878 -0.436034
977 1 H 17.0465 0.245578 -0.00619205
980 1 H 19.5158 2.74531 0.209363
985 1 H 17.598 1.92801 1.66673
986 1 H 18.8768 0.994031 1.74102
1933 2 O 18.112 1.24502 1.15487
22 1 H 0.123951 5.98659 2.35968
24 1 H 2.53225 3.66667 2.44556
27 1 H 1.99489 5.50227 0.746996
28 1 H 1.03926 4.22881 0.657479
1454 2 O 1.44749 4.8716 1.27933
129 1 H 0.557388 6.27516 33.235
5 1 H 3.7883 5.96044 2.35494
7 1 H 5.95517 3.95534 2.28143
11 1 H 5.48584 5.59692 0.67074
12 1 H 4.28278 4.48556 0.579014
1446 2 O 4.91404 4.94445 1.21318
1506 2 O 3.52749 3.38038 -0.221331
1449 2 O 3.32293 6.70261 -0.460565
1450 2 O 6.32386 3.30211 -0.475261
1684 2 O 6.58269 3.37654 2.75624
502 1 H 7.31629 6.01108 2.31074
504 1 H 9.30178 3.82326 2.16043
507 1 H 8.70489 5.4712 0.32467
508 1 H 7.59827 4.29348 0.542431
1694 2 O 8.21563 4.84082 1.04679
485 1 H 10.4951 5.75736 2.32489
487 1 H 12.7621 3.75994 2.04752
491 1 H 12.4104 5.09158 0.581958
492 1 H 11.0838 4.09137 0.730584
1686 2 O 11.7978 4.61523 1.15471
1924 2 O 13.2966 3.20701 2.75194
982 1 H 13.812 5.99979 2.22461
984 1 H 16.049 3.35929 2.29793
987 1 H 15.6694 5.45757 0.708888
988 1 H 14.5749 4.43556 0.546225
1934 2 O 15.0368 4.89633 1.30703
1745 2 O 13.3146 6.39599 -0.461908
965 1 H 17.0279 6.30577 2.46327
967 1 H 19.0711 3.47169 2.28196
971 1 H 18.8001 5.2891 0.873655
972 1 H 17.4559 4.25002 0.654966
1926 2 O 18.0506 4.81493 1.32611
1985 2 O -0.0988508 6.7223 -0.0929573
162 1 H 0.385641 7.36435 0.427079
163 1 H 2.51581 9.19817 0.216121
169 1 H 0.819588 8.47464 2.14341
170 1 H 1.99551 7.4845 2.01852
1525 2 O 1.47425 8.20098 1.48468
1523 2 O 3.22441 6.6804 2.75624
177 1 H 3.74012 7.07196 0.345697
180 1 H 6.03245 9.53384 0.330008
185 1 H 4.17484 8.90257 1.73486
186 1 H 5.49835 7.97567 1.85361
1533 2 O 4.90741 8.48644 1.2182
1505 2 O 6.38002 6.67233 -0.391393
642 1 H 7.0174 7.28185 0.076134
643 1 H 9.16635 9.27359 0.0849237
649 1 H 7.69824 8.61311 1.90335
650 1 H 8.77743 7.49987 1.52131
1765 2 O 8.17435 8.13384 1.12711
1771 2 O 6.69604 6.64391 2.86077
1826 2 O 9.95464 9.81637 -0.259341
657 1 H 10.6596 7.02009 0.0822613
660 1 H 12.8216 9.28017 0.0934332
665 1 H 11 8.57305 1.90617
666 1 H 12.2018 7.48192 1.64836
1773 2 O 11.4629 8.03425 1.26634
2004 2 O 13.1251 9.61999 2.80011
1122 1 H 13.9331 7.04545 -0.0748444
1123 1 H 16.0408 9.3391 0.169277
1129 1 H 14.2683 8.94442 1.67808
1130 1 H 15.3945 7.81827 1.71651
2005 2 O 14.9257 8.5033 1.12299
1929 2 O 16.6186 6.37639 -0.278958
1137 1 H 16.9584 7.06392 0.287126
1140 1 H 19.1769 9.32354 0.478642
1145 1 H 17.5825 8.72893 2.01118
1146 1 H 18.7706 7.71525 2.01742
2013 2 O 18.2126 8.28935 1.38604
182 1 H 0.261222 12.7722 2.35686
184 1 H 2.6827 10.2088 2.22772
187 1 H 1.78819 11.741 0.745387
188 1 H 0.848025 10.7722 1.16571
1534 2 O 1.4235 11.4832 1.60436
1586 2 O 3.1442 9.93878 0.0596801
1603 2 O 2.85761 13.15 2.78802
1529 2 O 2.94956 13.1364 -0.480626
165 1 H 3.59409 12.6947 2.29607
167 1 H 6.30061 10.4891 2.34001
171 1 H 5.52005 12.1135 0.744829
172 1 H 4.21347 11.0929 0.72627
1526 2 O 4.95027 11.5492 1.31616
1585 2 O 6.48341 13.1792 -0.281976
662 1 H 7.02611 12.6586 2.218
664 1 H 9.37382 10.2832 2.49039
667 1 H 8.89465 11.8412 0.476673
668 1 H 7.6786 10.7958 0.644155
1774 2 O 8.22236 11.5467 1.09359
1530 2 O 6.61814 10.017 -0.346362
645 1 H 10.6046 12.6892 2.65293
647 1 H 12.4158 10.2776 2.4329
651 1 H 11.9767 11.5368 0.603937
652 1 H 10.8972 10.5724 0.927644
1766 2 O 11.5047 11.2441 1.39865
1142 1 H 13.9623 12.4496 2.19204
1144 1 H 16.1781 10.2283 2.45035
1147 1 H 15.5085 11.9885 0.610859
1148 1 H 14.4302 10.963 0.477338
2014 2 O 14.9046 11.4913 1.24827
2009 2 O 16.4696 12.952 -0.37355
2091 2 O 13.407 13.0072 2.80676
2066 2 O 16.7312 9.73625 -0.343189
1125 1 H 17.1375 12.3872 2.49601
1127 1 H 19.3393 10.1363 2.67816
1131 1 H 18.8603 11.8673 0.961188
1132 1 H 17.6509 10.96 0.716056
2006 2 O 18.1072 11.428 1.44609
2065 2 O 19.8821 13.0585 -0.337675
2010 2 O 19.8473 9.86253 -0.0331527
322 1 H 0.180247 13.8347 0.0329829
323 1 H 2.50883 15.9854 0.290187
329 1 H 0.820438 15.4562 1.71917
330 1 H 1.88408 14.2999 1.72763
1605 2 O 1.31862 14.7891 1.11651
1666 2 O 3.0579 16.5861 -0.159684
337 1 H 3.49873 13.6898 0.157282
340 1 H 6.03361 15.9683 0.18291
345 1 H 4.11308 15.4135 1.52891
346 1 H 5.37029 14.4335 1.76269
1613 2 O 4.80398 14.8388 1.09515
1851 2 O 6.43589 13.2771 2.71259
802 1 H 7.38596 13.3165 0.0916821
803 1 H 9.21433 15.7933 0.00437498
809 1 H 7.70767 15.2757 1.53321
810 1 H 8.92627 14.3888 1.80148
1845 2 O 8.40143 14.75 1.06276
1610 2 O 6.54361 16.5176 -0.447511
817 1 H 10.6413 13.8606 -0.242411
820 1 H 12.5608 15.8906 0.31351
825 1 H 11.1302 15.5375 1.90406
826 1 H 12.2592 14.2766 1.83208
1853 2 O 11.6138 14.8265 1.32385
1850 2 O 13.0982 16.5268 -0.255344
1282 1 H 13.6211 13.5924 -0.00746311
1283 1 H 15.8765 16.2398 0.0156016
1289 1 H 14.0308 15.2971 1.52243
1290 1 H 15.3189 14.3748 1.70658
2085 2 O 14.8048 14.9152 1.06694
1297 1 H 17.1943 13.4345 0.264403
1300 1 H 19.1163 16.1083 0.063135
1305 1 H 17.3479 15.319 1.7846
1306 1 H 18.5858 14.4234 1.63825
2093 2 O 17.9088 14.8827 1.10405
342 1 H 0.211944 19.3998 2.20988
344 1 H 2.07357 17.0185 2.60713
347 1 H 1.99154 18.486 0.840263
348 1 H 0.673562 17.6403 0.746917
1614 2 O 1.2843 18.0935 1.35767
325 1 H 3.76488 19.3376 2.68008
327 1 H 6.00781 17.1848 2.27617
331 1 H 5.5742 18.9048 0.844742
332 1 H 4.52382 17.7838 0.56373
1606 2 O 4.98561 18.2718 1.27421
1609 2 O 3.15408 19.7598 -0.407462
1683 2 O 9.79181 19.7874 2.48642
822 1 H 7.33749 19.5694 2.3163
824 1 H 9.34864 17.006 2.29997
827 1 H 8.63397 18.679 0.723474
828 1 H 7.45599 17.6189 0.74403
1854 2 O 8.1643 17.9942 1.29753
1905 2 O 12.9957 19.8012 -0.322005
805 1 H 10.3923 19.1215 1.99931
807 1 H 12.7634 17.1116 2.41995
811 1 H 11.9644 18.6859 0.608071
812 1 H 11.0266 17.4087 0.750255
1846 2 O 11.448 18.1658 1.21627
1302 1 H 13.5862 19.3722 2.32434
1304 1 H 15.5819 16.868 2.69679
1307 1 H 15.4095 18.8829 0.94414
1308 1 H 14.4419 17.7754 0.579758
2094 2 O 14.7398 18.3015 1.30628
2146 2 O 16.5016 16.7571 33.2019
1285 1 H 16.8796 19.2609 2.53631
1287 1 H 19.1514 17.0327 2.57789
1291 1 H 18.6008 18.7765 1.06909
1292 1 H 17.3816 17.8907 0.669004
2086 2 O 17.9575 18.1301 1.44341
2145 2 O 19.8674 19.8448 -0.457791
2090 2 O 19.785 16.7127 -0.274626
18 1 H 2.67315 0.205428 5.7614
19 1 H 0.198341 2.63017 5.89951
29 1 H 2.03361 1.89527 4.1522
30 1 H 0.782919 0.794441 4.23889
1455 2 O 1.33312 1.47066 4.71486
1442 2 O 3.11242 3.13019 6.04911
1451 2 O -0.163474 -0.144959 2.99112
1443 2 O 3.26699 0.0325906 3.06531
6 1 H 3.99667 0.456072 3.56505
8 1 H 5.96848 2.86968 3.339
13 1 H 4.25281 2.03929 5.03089
14 1 H 5.39511 1.0014 5.22736
1447 2 O 4.93448 1.57189 4.53015
498 1 H 9.24346 0.315224 5.7038
499 1 H 7.04744 2.84905 5.68878
509 1 H 8.75985 2.0992 4.03361
510 1 H 7.52204 1.01464 3.81458
1695 2 O 8.12511 1.49167 4.49538
486 1 H 10.3598 0.105799 3.16967
488 1 H 12.6532 2.67403 3.31011
493 1 H 11.225 1.89175 5.21442
494 1 H 12.0769 0.660953 4.90051
1687 2 O 11.555 1.36725 4.46117
1682 2 O 10.1301 2.89787 6.24259
978 1 H 15.8813 0.405935 5.64589
979 1 H 13.7433 2.66349 5.7062
989 1 H 15.3458 2.30632 4.34119
990 1 H 14.2367 1.38567 3.98281
1935 2 O 14.5661 1.82102 4.75024
1922 2 O 16.408 3.1297 6.11851
2105 2 O 16.4418 -0.170889 6.24423
1932 2 O 16.7363 2.97939 2.91021
966 1 H 16.8205 0.197981 3.83545
968 1 H 19.5496 2.6113 3.39141
973 1 H 17.5761 1.98628 5.20175
974 1 H 18.5799 0.824151 5.09399
1927 2 O 18.0578 1.4418 4.53141
2081 2 O 19.7788 -0.0285122 6.21161
1 1 H -0.00325354 5.96949 5.68164
4 1 H 2.57998 3.68208 5.49647
15 1 H 0.976888 4.3312 4.14215
16 1 H 2.07906 5.36859 4.18514
1448 2 O 1.52451 4.87241 4.79105
1452 2 O 3.12287 3.32328 3.1254
21 1 H 6.21037 5.90147 3.37156
23 1 H 3.52387 4.04807 3.62794
31 1 H 4.5782 5.52569 5.20539
32 1 H 5.64018 4.40116 5.09612
1456 2 O 4.98136 4.88539 4.58004
481 1 H 6.80333 5.92207 5.73809
484 1 H 9.67107 3.56223 5.63748
495 1 H 7.81708 4.20809 3.9792
496 1 H 8.93984 5.30075 4.10488
1688 2 O 8.27112 4.86422 4.62228
1763 2 O 10.0059 6.27046 2.94999
501 1 H 12.7205 5.76664 3.40693
503 1 H 10.5656 3.69434 3.2091
511 1 H 11.0022 5.26024 5.2278
512 1 H 12.3841 4.37036 4.9696
1696 2 O 11.6236 4.89215 4.52197
1705 2 O 9.95394 6.27249 6.10843
961 1 H 13.7415 5.92205 5.79826
964 1 H 15.9086 3.70409 5.57584
975 1 H 14.227 4.50634 4.00243
976 1 H 15.2526 5.58072 4.37764
1928 2 O 14.6886 4.90712 4.80623
981 1 H 19.2175 5.8921 3.55726
983 1 H 17.1278 3.66815 3.48322
991 1 H 17.8481 5.69147 5.04775
992 1 H 18.6791 4.43377 5.08533
1936 2 O 18.1127 4.95054 4.42627
1946 2 O 19.6813 3.30258 6.15586
178 1 H 2.51516 7.02142 5.79642
179 1 H 0.464641 9.19761 5.7978
189 1 H 1.67316 8.67464 4.21578
190 1 H 0.752296 7.44983 4.25734
1535 2 O 1.24675 8.10415 4.83036
1532 2 O 3.18147 9.8088 2.98212
166 1 H 3.83728 7.21125 3.3544
168 1 H 6.07758 9.25111 3.44099
173 1 H 4.27589 8.65533 4.88927
174 1 H 5.56064 7.74961 5.09079
1527 2 O 5.07333 8.32925 4.42745
658 1 H 9.23011 6.84519 5.61846
659 1 H 7.09501 9.49436 5.74671
669 1 H 8.93609 8.5385 4.21896
670 1 H 7.6763 7.48859 4.00005
1775 2 O 8.1812 8.02771 4.6631
1772 2 O 9.94891 9.68781 3.01236
646 1 H 10.5981 6.77601 3.50115
648 1 H 12.7856 8.976 3.43223
653 1 H 11.0247 8.63024 5.19299
654 1 H 12.1335 7.60607 5.3008
1767 2 O 11.6781 8.17843 4.64183
1762 2 O 9.96513 9.82727 6.217
2011 2 O 13.3382 6.50495 2.89063
2003 2 O 16.3832 6.80876 2.88588
1138 1 H 15.9361 7.51022 6.16084
1139 1 H 13.8692 9.30963 5.91596
1149 1 H 15.1206 8.93114 4.00805
1150 1 H 14.2497 7.66417 4.02285
2015 2 O 14.8138 8.24798 4.5981
1531 2 O 19.8501 6.54115 3.02747
2012 2 O 16.6604 9.68826 3.12749
1524 2 O 19.8488 9.4782 3.17543
1126 1 H 16.9418 7.22551 3.5868
1128 1 H 19.2 8.95606 3.7068
1133 1 H 17.7621 8.78187 5.52501
1134 1 H 18.8521 7.68296 5.34851
2007 2 O 18.157 8.16737 4.86392
161 1 H 0.250476 12.5307 5.7894
164 1 H 2.94228 10.5011 5.69171
175 1 H 0.927616 11.1515 4.20708
176 1 H 2.01333 12.3626 4.24474
1528 2 O 1.67761 11.5566 4.7111
181 1 H 5.92407 12.6814 3.33732
183 1 H 3.67284 10.5137 3.50125
191 1 H 4.36939 12.3165 5.18481
192 1 H 5.30742 11.1608 5.01842
1536 2 O 4.78187 11.7408 4.44906
1764 2 O 6.74661 9.89373 2.9389
641 1 H 7.08664 12.5828 5.79956
644 1 H 9.34142 10.3873 5.60989
655 1 H 7.89961 10.9725 4.17232
656 1 H 8.98044 12.0729 4.21684
1768 2 O 8.35967 11.5759 4.79529
661 1 H 12.9562 12.4599 3.45639
663 1 H 10.5493 10.2148 3.62976
671 1 H 10.926 11.9581 5.18738
672 1 H 12.1397 10.945 5.17501
1776 2 O 11.567 11.4652 4.60936
1843 2 O 9.91173 13.1551 3.13981
2083 2 O 16.4439 12.8824 3.09299
1121 1 H 13.5087 12.5587 5.86029
1124 1 H 15.7457 10.4462 5.86156
1135 1 H 14.187 10.586 3.97042
1136 1 H 15.3215 11.7529 4.17315
2008 2 O 14.519 11.2217 4.58743
1141 1 H 19.1161 12.6664 3.39607
1143 1 H 17.229 10.4711 3.48569
1151 1 H 17.636 11.6576 5.20999
1152 1 H 18.9705 10.934 5.11141
2016 2 O 18.3574 11.4914 4.56872
1604 2 O -0.206055 16.5175 2.91602
338 1 H 2.67941 13.977 6.15002
339 1 H 0.157541 15.8648 5.72348
349 1 H 1.79854 15.4114 4.20953
350 1 H 0.679926 14.1471 4.26107
1615 2 O 1.26898 14.7665 4.81429
326 1 H 3.37002 13.8591 3.26386
328 1 H 5.84471 16.1044 3.54667
333 1 H 4.34261 15.5017 5.05383
334 1 H 5.31302 14.37 4.93071
1607 2 O 4.80307 14.9872 4.34973
818 1 H 9.51127 13.8959 5.85711
819 1 H 7.10661 16.1513 5.86
829 1 H 8.5181 15.4493 3.99025
830 1 H 7.76473 14.1612 3.9818
1855 2 O 8.01481 14.8703 4.59862
1852 2 O 9.98928 16.4648 2.8895
806 1 H 10.5065 13.7326 3.70977
808 1 H 12.6096 15.7853 3.37446
813 1 H 11.2127 15.5844 4.91562
814 1 H 12.2398 14.4307 5.07984
1847 2 O 11.7299 14.9056 4.37762
1866 2 O 13.1359 16.4315 6.23558
2084 2 O 13.2787 16.4659 2.94498
2092 2 O 16.237 16.1833 2.99896
1298 1 H 15.929 13.475 5.75207
1299 1 H 13.759 15.9017 5.67665
1309 1 H 15.3899 15.0924 3.92071
1310 1 H 14.4223 13.9163 3.78992
2095 2 O 14.8132 14.5512 4.54858
2082 2 O 16.4482 16.1712 6.22592
1611 2 O 19.7873 13.3517 3.03564
1286 1 H 17.0946 13.4204 3.68939
1288 1 H 19.4532 15.9181 3.52128
1293 1 H 17.4377 15.2784 5.17526
1294 1 H 18.5902 14.3814 5.2419
2087 2 O 18.0547 14.7823 4.55341
1612 2 O 2.86987 16.5998 3.04086
321 1 H 0.329634 19.652 5.6366
324 1 H 2.49954 16.9099 5.93944
335 1 H 0.947005 17.8771 4.22185
336 1 H 2.22168 18.6937 4.24725
1608 2 O 1.55945 18.3189 4.83598
341 1 H 6.20697 19.4738 3.33283
343 1 H 3.45007 17.2532 3.54031
351 1 H 4.46967 18.8988 5.15908
352 1 H 5.40197 17.5843 5.14024
1616 2 O 4.84253 18.2737 4.51786
1844 2 O 6.48252 16.6395 2.96614
801 1 H 6.94942 19.5246 5.64812
804 1 H 9.33383 17.0022 5.68199
815 1 H 7.70159 17.6549 3.99619
816 1 H 8.87107 18.5131 3.97278
1848 2 O 8.2504 18.1459 4.62886
1865 2 O 9.82646 19.72 6.1088
821 1 H 12.5518 19.5223 3.50851
823 1 H 10.3939 17.1938 3.44741
831 1 H 10.7226 18.88 4.87824
832 1 H 11.9344 17.8677 5.26126
1856 2 O 11.4072 18.2576 4.52965
1841 2 O 13.1342 19.6956 6.20257
1923 2 O 16.3254 19.7802 3.18452
1281 1 H 13.7595 19.1547 5.56591
1284 1 H 15.8472 16.7721 5.72328
1295 1 H 14.184 17.7397 4.09203
1296 1 H 15.3527 18.8311 4.13147
2088 2 O 14.9034 18.124 4.72899
1301 1 H 19.3938 19.2257 3.5339
1303 1 H 16.8762 16.7246 3.64318
1311 1 H 17.4946 18.4103 5.23195
1312 1 H 18.6536 17.43 5.10803
2096 2 O 18.0629 17.9736 4.53363
34 1 H 0.10401 0.633267 6.7602
35 1 H 2.50075 2.59945 6.61512
41 1 H 0.90924 2.2663 8.52172
42 1 H 1.65092 0.935927 8.46489
1461 2 O 1.24245 1.60291 7.88202
1459 2 O 2.93141 0.0339618 9.60015
1601 2 O 6.45786 0.0206939 6.24936
49 1 H 3.56752 0.507491 7.01124
52 1 H 5.77914 2.73028 6.56034
57 1 H 4.256 2.23303 8.52498
58 1 H 5.24414 1.07721 8.59723
1469 2 O 4.80207 1.65026 7.94581
514 1 H 7.18265 0.415079 6.74435
515 1 H 9.51751 2.30245 6.76486
521 1 H 7.69403 2.38417 8.42148
522 1 H 8.41854 0.997646 8.37072
1701 2 O 8.15675 1.7355 7.83757
1707 2 O 6.51301 0.147653 9.57747
529 1 H 10.3346 0.154136 6.87557
532 1 H 12.5165 2.80028 6.84566
537 1 H 10.8759 1.66128 8.52985
538 1 H 12.12 0.831443 8.19359
1709 2 O 11.3272 1.25538 7.68802
994 1 H 13.6853 0.283092 6.617
995 1 H 15.7539 2.71581 6.78301
1001 1 H 13.9469 2.32392 8.30225
1002 1 H 14.8534 1.13166 8.66086
1941 2 O 14.5205 1.67019 7.85412
1939 2 O 16.5278 -0.0517295 9.50416
1947 2 O 13.2788 -0.131072 9.35657
1009 1 H 16.9765 0.49886 6.80816
1012 1 H 19.0803 2.78032 6.80365
1017 1 H 17.5166 2.19266 8.61098
1018 1 H 18.5841 1.26434 8.43095
1949 2 O 17.9302 1.72336 7.85961
1467 2 O 19.7842 -0.168644 9.38451
54 1 H 0.333032 5.87973 9.11613
56 1 H 2.62705 3.93312 9.10017
59 1 H 2.12313 5.42547 7.391
60 1 H 0.843404 4.51752 7.36012
1470 2 O 1.5722 4.83628 7.96804
1466 2 O 6.45143 3.39091 6.29001
37 1 H 3.65004 6.00222 9.01455
39 1 H 5.99806 3.61997 8.90799
43 1 H 5.20436 5.54787 7.49626
44 1 H 4.27772 4.34803 7.35044
1462 2 O 4.82671 4.80212 8.02621
1468 2 O 3.29004 3.28021 9.5724
1700 2 O 6.63207 3.29328 9.61029
534 1 H 7.00407 5.91587 8.87034
536 1 H 9.37726 4.12216 9.19653
539 1 H 9.02306 5.32085 7.29306
540 1 H 7.80689 4.29845 7.26074
1710 2 O 8.31494 4.90363 7.84582
1706 2 O 13.1227 3.28452 6.27175
1940 2 O 13.1714 3.19907 9.51159
517 1 H 10.6848 5.93143 8.90966
519 1 H 12.5043 3.74885 9.06518
523 1 H 12.3004 5.25816 7.47162
524 1 H 11.2075 4.16261 7.52176
1702 2 O 11.6621 4.83264 8.04427
1779 2 O 9.97583 6.3722 9.39332
1708 2 O 9.9347 3.35105 9.54126
1014 1 H 13.7932 5.7084 9.37214
1016 1 H 15.6259 3.64591 9.02698
1019 1 H 15.6013 5.51141 7.70347
1020 1 H 14.4016 4.59979 7.30035
1950 2 O 14.961 4.89376 8.06936
1948 2 O 16.2483 3.15337 9.61245
1460 2 O 19.871 3.58882 9.58824
997 1 H 16.994 6.16836 9.21077
999 1 H 19.1667 4.0736 9.07642
1003 1 H 18.5397 5.48667 7.30438
1004 1 H 17.5505 4.25296 7.12448
1942 2 O 18.0269 4.7671 7.85336
194 1 H 0.541307 7.0161 6.67298
195 1 H 2.89417 9.40855 6.88548
201 1 H 0.824999 8.61219 8.30386
202 1 H 2.04774 7.59973 8.37427
1541 2 O 1.44848 8.1256 7.71147
1540 2 O -0.108412 9.72773 9.52784
1539 2 O 3.05027 6.50991 9.61851
1465 2 O 3.32165 6.72664 6.29304
1441 2 O 6.29079 6.6273 6.27018
209 1 H 3.67939 7.48807 6.77298
212 1 H 5.98028 9.447 6.81721
217 1 H 4.42561 8.77216 8.66404
218 1 H 5.57978 7.84108 8.64782
1549 2 O 4.94585 8.24862 7.99542
1787 2 O 6.58506 6.49109 9.58774
674 1 H 6.99813 7.04687 6.84198
675 1 H 9.36102 9.33019 6.68281
681 1 H 7.6318 8.70883 8.52775
682 1 H 8.68658 7.62443 8.69803
1781 2 O 8.21643 8.19788 7.98201
1788 2 O 9.72372 9.68363 9.60686
689 1 H 10.553 6.8585 6.60622
692 1 H 12.6124 9.19126 6.85726
697 1 H 10.8474 8.57165 8.4315
698 1 H 12.1422 7.53853 8.47754
1789 2 O 11.5129 8.03547 7.93977
1681 2 O 13.2345 6.51139 6.41124
1154 1 H 13.8134 7.0406 6.99079
1155 1 H 15.845 9.47523 7.12982
1161 1 H 13.8826 8.74089 8.60374
1162 1 H 15.1554 7.72958 8.55871
2021 2 O 14.5005 8.20683 8.0205
1945 2 O 16.5114 6.79289 6.47383
1921 2 O 19.7964 6.57308 6.35915
1169 1 H 17.1677 7.22134 7.09675
1172 1 H 19.393 9.47134 6.88489
1177 1 H 17.7353 8.41276 8.80968
1178 1 H 18.979 7.40996 8.6149
2029 2 O 18.2808 7.98012 8.10434
2026 2 O -0.108553 9.92367 6.25843
214 1 H 0.345342 12.5526 8.78913
216 1 H 2.5044 10.3303 9.32522
219 1 H 2.07138 11.8766 7.41184
220 1 H 0.871047 10.789 7.46321
1550 2 O 1.43713 11.4168 8.04373
1627 2 O -0.0201014 13.0539 9.53666
1522 2 O 3.49835 10.0837 6.40964
197 1 H 3.90968 12.3531 9.03816
199 1 H 5.95723 10.6609 9.07688
203 1 H 5.58006 12.1765 7.38324
204 1 H 4.45401 11.0159 7.33442
1542 2 O 4.99778 11.5858 7.95243
1619 2 O 3.23177 13.0161 9.45619
1546 2 O 6.64344 10.0538 6.4296
694 1 H 7.3279 12.6784 9.12971
696 1 H 9.21276 10.3814 9.05158
699 1 H 8.64558 11.9734 7.35278
700 1 H 7.81737 10.7455 7.68743
1790 2 O 8.44975 11.3636 8.07684
1780 2 O 6.55141 10.0229 9.54983
677 1 H 10.3346 12.9091 8.80993
679 1 H 12.4263 10.276 9.13232
683 1 H 12.0252 12.0357 7.49124
684 1 H 10.9752 10.869 7.27894
1782 2 O 11.468 11.4041 8.06031
1786 2 O 13.2133 9.87761 6.38514
2025 2 O 16.472 12.9239 6.32387
1174 1 H 13.7174 12.6459 9.24608
1176 1 H 15.901 10.3687 9.43999
1179 1 H 15.3209 11.9761 7.13467
1180 1 H 14.2993 10.8941 7.48904
2030 2 O 14.8091 11.6307 7.87251
2002 2 O 16.3945 9.89112 6.41078
1157 1 H 16.8786 12.6698 9.11865
1159 1 H 19.1801 10.1683 9.13228
1163 1 H 18.7207 11.9687 7.22082
1164 1 H 17.5142 10.8336 7.23967
2022 2 O 18.1723 11.2985 7.83144
2001 2 O 19.7938 13.1026 6.38667
354 1 H 0.328866 13.6843 6.87984
355 1 H 2.56072 15.6541 6.81027
361 1 H 0.758556 15.411 8.54881
362 1 H 1.82781 14.2554 8.4521
1621 2 O 1.3368 14.9144 7.9265
1602 2 O 3.144 16.3573 6.37762
1545 2 O 3.24929 13.248 6.49591
369 1 H 3.73283 13.7012 7.25963
372 1 H 5.83398 16.0369 6.69971
377 1 H 4.30062 15.2117 8.46753
378 1 H 5.57161 14.3606 8.43102
1629 2 O 4.88813 14.7838 7.87182
1521 2 O 6.6022 13.261 6.36834
834 1 H 7.25747 13.8769 6.74929
835 1 H 9.2475 15.9834 6.73013
841 1 H 7.70588 15.6554 8.64439
842 1 H 8.89014 14.7417 8.71799
1861 2 O 8.34073 15.2053 8.0282
1867 2 O 6.66509 13.2775 9.60412
1859 2 O 9.81087 13.1878 9.604
1785 2 O 10.0289 13.2722 6.41468
1761 2 O 12.9562 13.2447 6.29557
849 1 H 10.5238 13.8994 7.08123
852 1 H 12.7064 15.7354 6.83358
857 1 H 11.076 15.5943 8.84043
858 1 H 12.0048 14.4015 8.82747
1869 2 O 11.494 14.9566 8.20612
1842 2 O 9.92425 16.5026 6.28366
1314 1 H 13.7303 13.6352 6.89489
1315 1 H 15.8097 15.6691 6.79785
1321 1 H 14.2957 15.3541 8.40349
1322 1 H 15.3516 14.2051 8.41055
2101 2 O 14.743 14.7276 7.85155
1329 1 H 17.0101 13.4563 6.97697
1332 1 H 19.3569 16.044 6.92498
1337 1 H 17.5059 15.3202 8.29326
1338 1 H 18.6474 14.3986 8.62502
2109 2 O 18.0629 14.6545 7.81945
374 1 H 0.265377 19.2371 8.93417
376 1 H 2.38503 17.1187 8.95531
379 1 H 2.09053 18.8198 7.50655
380 1 H 0.807783 17.978 7.04315
1630 2 O 1.30162 18.2903 7.87396
1628 2 O 2.86863 16.5384 9.57629
1626 2 O 6.40766 16.7336 6.2607
1625 2 O 3.20823 19.8392 6.44954
357 1 H 3.49351 19.5055 9.02175
359 1 H 5.97041 17.124 8.96912
363 1 H 5.55239 18.7716 7.61628
364 1 H 4.35382 17.6335 7.65689
1622 2 O 4.9303 18.2399 8.20156
1860 2 O 6.58404 16.6075 9.57292
854 1 H 7.18587 19.7606 9.06634
856 1 H 9.3405 17.2148 9.03842
859 1 H 8.719 18.9958 7.23543
860 1 H 7.71356 17.7339 7.29791
1870 2 O 8.07929 18.4783 7.84746
837 1 H 10.4226 19.1782 9.13774
839 1 H 12.7759 17.1136 9.05778
843 1 H 12.0556 18.5304 7.30752
844 1 H 10.8312 17.7227 7.45978
1862 2 O 11.4797 18.21 8.03703
1699 2 O 9.84735 19.8203 9.59295
1334 1 H 13.85 19.3634 8.79926
1336 1 H 15.8138 16.9307 9.19657
1339 1 H 15.4126 19.1064 7.37915
1340 1 H 14.3367 17.8788 7.31576
2110 2 O 14.9766 18.3455 7.92238
2106 2 O 19.8379 16.6163 6.25163
1620 2 O 19.8577 16.6416 9.44914
1317 1 H 17.0869 19.4074 8.9639
1319 1 H 19.3432 17.2101 8.80711
1323 1 H 18.5397 18.8315 7.20808
1324 1 H 17.5588 17.4272 7.22563
2102 2 O 18.0939 18.1341 7.71594
50 1 H 2.74918 0.550977 12.1655
51 1 H 0.189934 2.79929 12.1033
61 1 H 1.94709 2.23455 10.6
62 1 H 0.9206 1.01585 10.4066
1471 2 O 1.22129 1.74221 11.061
1458 2 O 3.10046 3.11229 12.6537
38 1 H 3.5274 0.468451 10.2065
40 1 H 6.14788 2.60724 10.1059
45 1 H 4.23539 2.14441 11.7833
46 1 H 5.39084 1.21268 11.8341
1463 2 O 4.70774 1.55606 11.1858
1641 2 O 3.25239 -0.0958156 12.7244
530 1 H 9.32769 0.656909 12.4676
531 1 H 7.01312 2.62897 11.9149
541 1 H 8.8144 1.92348 10.7483
542 1 H 7.56721 0.944515 10.8421
1711 2 O 8.167 1.50199 11.3641
1617 2 O 6.58206 -0.113824 12.8802
518 1 H 10.5385 0.340176 10.0645
520 1 H 12.5443 2.68685 10.0713
525 1 H 10.9192 2.00133 11.7749
526 1 H 12.0869 0.918547 11.7058
1703 2 O 11.4081 1.42071 11.1848
1857 2 O 13.1612 -0.203644 12.6677
1010 1 H 15.9659 0.468834 12.3064
1011 1 H 13.9871 2.5857 12.3977
1021 1 H 15.457 1.98155 10.6928
1022 1 H 14.3564 0.847271 10.8466
1951 2 O 14.8265 1.5273 11.3496
998 1 H 17.1662 0.496866 10.0063
1000 1 H 19.5053 2.86428 10.0998
1005 1 H 17.3898 2.09474 11.9678
1006 1 H 18.3939 0.909655 11.7588
1943 2 O 17.9507 1.62525 11.2867
33 1 H 0.384239 6.13782 12.5218
36 1 H 2.7046 3.89258 12.1236
47 1 H 0.914622 4.51466 10.6204
48 1 H 2.17359 5.39968 10.763
1464 2 O 1.47952 4.93452 11.3768
53 1 H 5.76145 5.9453 9.94761
55 1 H 3.83868 3.88569 10.1707
63 1 H 4.49673 5.47194 11.9095
64 1 H 5.62749 4.36114 11.551
1472 2 O 4.7892 4.89594 11.1546
1481 2 O 3.42795 6.46607 12.8595
1482 2 O 6.58833 3.3329 12.5325
513 1 H 7.23762 5.87971 12.5092
516 1 H 9.18448 3.87327 12.1492
527 1 H 7.92261 4.17461 10.6235
528 1 H 8.82661 5.48378 10.679
1704 2 O 8.30119 4.81051 11.2757
533 1 H 12.7862 5.74637 10.3321
535 1 H 10.3725 3.77214 10.3493
543 1 H 10.8278 5.29691 11.8407
544 1 H 11.8288 4.10894 12.198
1712 2 O 11.5397 4.72031 11.4643
1697 2 O 12.8234 6.47683 12.8764
1698 2 O 9.86759 3.23028 12.6331
993 1 H 13.5193 5.81177 12.5027
996 1 H 15.8617 3.78739 12.1848
1007 1 H 14.3157 4.21735 10.8399
1008 1 H 15.391 5.53886 10.9185
1944 2 O 14.6922 4.89966 11.4529
2027 2 O 13.278 6.42876 9.75922
1938 2 O 16.4761 3.22447 12.7702
1722 2 O 13.3525 3.16835 12.9159
1013 1 H 19.218 5.98401 10.2167
1015 1 H 16.8208 3.8642 9.94589
1023 1 H 17.3308 5.62909 11.9415
1024 1 H 18.511 4.40277 11.7958
1952 2 O 17.983 5.17042 11.3959
1962 2 O 19.7054 3.35651 12.7081
210 1 H 2.68724 6.94338 12.3243
211 1 H 0.432004 9.42921 12.8387
221 1 H 2.41535 8.71532 11.0679
222 1 H 1.12898 7.73757 10.588
1551 2 O 1.68211 8.09283 11.3723
1548 2 O 3.16269 9.79044 9.68486
198 1 H 3.71684 7.12109 10.0782
200 1 H 6.05504 9.58336 10.2542
205 1 H 4.36942 8.93188 11.8431
206 1 H 5.61026 7.82212 11.6099
1543 2 O 4.92265 8.41233 11.1228
1538 2 O 3.25778 9.699 12.8001
1721 2 O 9.66428 6.50949 12.7477
690 1 H 9.07372 7.21689 12.4118
691 1 H 7.07053 9.3395 12.3062
701 1 H 8.59847 8.80959 10.935
702 1 H 7.70139 7.51462 11.0502
1791 2 O 7.97879 8.34954 11.5178
2020 2 O 13.0413 9.69334 9.62093
678 1 H 10.474 6.99193 10.0205
680 1 H 12.4285 9.25529 10.187
685 1 H 11.0314 8.6821 11.7695
686 1 H 11.9394 7.483 11.738
1783 2 O 11.4979 8.08967 11.116
2019 2 O 16.3023 6.58862 9.75789
1961 2 O 16.3146 6.59696 12.9628
2028 2 O 16.3772 9.6369 9.89215
1170 1 H 15.7435 7.38558 12.6803
1171 1 H 13.4994 8.94651 12.6843
1181 1 H 15.2958 8.72963 10.8186
1182 1 H 14.2531 7.60843 10.8221
2031 2 O 14.6812 8.25058 11.4333
1547 2 O 19.823 6.54534 9.65958
1158 1 H 16.7212 7.19036 10.3953
1160 1 H 19.6288 9.1581 10.2719
1165 1 H 17.8643 8.69972 12.0145
1166 1 H 18.9575 7.58765 11.8545
2023 2 O 18.385 8.21747 11.3332
193 1 H 0.18513 12.392 12.0656
196 1 H 2.75888 10.3056 12.325
207 1 H 1.09969 10.7445 10.6771
208 1 H 1.88808 12.1004 10.6079
1544 2 O 1.43018 11.478 11.2221
1561 2 O 3.10626 13.0162 12.7536
213 1 H 6.19512 12.5591 10.2029
215 1 H 3.87328 10.3933 10.0402
223 1 H 4.35619 12.0948 11.6081
224 1 H 5.39951 11.0046 11.777
1552 2 O 4.95914 11.5391 11.0544
673 1 H 6.94027 12.7943 12.3536
676 1 H 9.27985 10.3485 12.5516
687 1 H 7.61517 11.0935 10.8848
688 1 H 8.71551 12.0951 10.7283
1784 2 O 8.28018 11.5265 11.4753
1562 2 O 6.64645 9.97278 12.9854
693 1 H 12.613 12.3739 10.2905
695 1 H 10.4656 10.1222 10.0933
703 1 H 10.8176 11.8897 11.8148
704 1 H 11.9537 10.7878 12.0924
1792 2 O 11.549 11.4299 11.4148
2107 2 O 13.0997 13.1443 9.902
2099 2 O 16.2714 13.1755 9.68864
1153 1 H 13.7371 12.7173 12.694
1156 1 H 15.7482 10.3857 12.425
1167 1 H 14.2089 10.9512 10.8037
1168 1 H 15.1941 12.1601 10.8945
2024 2 O 14.6656 11.5669 11.4452
1173 1 H 19.4128 12.4833 9.87802
1175 1 H 16.9837 10.2758 10.3542
1183 1 H 17.5324 12.0726 11.9212
1184 1 H 18.5924 11.0128 11.752
2032 2 O 18.0499 11.589 11.1609
2017 2 O 19.8 13.0974 12.6023
370 1 H 2.57979 13.5141 12.0007
371 1 H 0.347768 16.0934 12.11
381 1 H 1.97123 15.2814 10.3966
382 1 H 0.729718 14.2394 10.6257
1631 2 O 1.40005 14.8082 11.091
358 1 H 3.81119 13.4828 10.1478
360 1 H 5.90999 16.0185 9.9455
365 1 H 4.27888 15.5768 11.6297
366 1 H 5.49292 14.4117 11.8635
1623 2 O 4.83784 14.8256 11.1941
850 1 H 9.12746 14.0714 12.4004
851 1 H 7.11652 16.1743 12.3929
861 1 H 8.49769 15.3472 10.9159
862 1 H 7.55329 14.2368 10.8618
1871 2 O 7.95555 14.8379 11.532
1801 2 O 9.81554 13.3933 12.8364
838 1 H 10.3603 13.7215 10.2105
840 1 H 12.6907 16.049 10.181
845 1 H 10.9602 15.4547 11.7459
846 1 H 12.0306 14.2264 11.9522
1863 2 O 11.5573 14.8719 11.356
1858 2 O 9.99216 16.509 12.9919
2100 2 O 13.3079 16.5178 9.62987
2108 2 O 16.2518 16.2001 9.72595
1330 1 H 15.9344 13.7914 12.6237
1331 1 H 13.8376 16.0208 12.5672
1341 1 H 15.2195 15.3471 10.7878
1342 1 H 14.0919 14.2871 11.1714
2111 2 O 14.7502 14.8921 11.5998
1318 1 H 16.9605 13.7143 10.2041
1320 1 H 19.1546 16.0969 9.88721
1325 1 H 17.6034 15.1049 11.9046
1326 1 H 18.8211 14.1645 11.763
2103 2 O 18.124 14.6567 11.2241
353 1 H 0.236178 19.3645 12.5291
356 1 H 2.53514 17.265 12.0585
367 1 H 0.781917 18.0215 10.8562
368 1 H 1.96179 19.0573 10.7687
1624 2 O 1.46057 18.4637 11.3663
2122 2 O -0.172641 16.5804 12.7726
1618 2 O 3.18111 16.5556 12.4018
373 1 H 6.02429 19.549 10.18
375 1 H 3.5287 17.1134 10.0222
383 1 H 4.3298 18.8202 11.5218
384 1 H 5.48555 17.8193 11.5717
1632 2 O 5.02433 18.4379 10.9954
1868 2 O 9.80009 16.6054 9.71785
833 1 H 7.24319 19.4091 12.4245
836 1 H 9.40381 16.9512 12.3136
847 1 H 7.70714 17.6562 10.552
848 1 H 8.61369 18.9208 10.8713
1864 2 O 8.16289 18.1567 11.3047
853 1 H 12.7719 19.3329 9.89191
855 1 H 10.262 17.2474 10.3587
863 1 H 10.9677 18.7806 11.7577
864 1 H 12.1223 17.7631 11.7497
1872 2 O 11.4652 18.1843 11.1861
2121 2 O 16.3528 19.8485 12.9214
1882 2 O 13.222 16.7435 12.8565
1313 1 H 13.6467 19.2447 12.1561
1316 1 H 15.7475 16.989 12.3782
1327 1 H 14.2357 17.7237 10.7003
1328 1 H 15.3032 18.7645 10.6218
2104 2 O 14.8244 18.2624 11.2993
1333 1 H 19.3499 19.3678 10.0865
1335 1 H 16.8604 16.739 10.2588
1343 1 H 17.5777 18.429 11.8507
1344 1 H 18.7844 17.335 11.7689
2112 2 O 18.3022 18.034 11.2493
66 1 H 0.204334 0.458488 13.6458
67 1 H 2.42377 2.53638 13.0965
73 1 H 0.859069 2.14707 14.9823
74 1 H 2.08307 1.11465 14.8551
1477 2 O 1.37275 1.59788 14.3147
1475 2 O 2.89054 0.0558107 16.0132
1483 2 O -0.189952 0.124799 16.3639
1484 2 O 2.85762 3.04102 16.2538
81 1 H 3.76405 0.359917 13.3496
84 1 H 5.92316 2.92666 13.1803
89 1 H 4.12787 1.91698 15.0211
90 1 H 5.37528 1.09855 14.9963
1485 2 O 4.79867 1.60246 14.3735
1723 2 O 6.50819 -0.0801737 16.2589
1881 2 O 9.75175 -0.028641 13.0079
546 1 H 7.18398 0.381375 13.5784
547 1 H 9.27489 2.67392 13.1582
553 1 H 7.41111 2.07237 15.1642
554 1 H 8.62705 1.00507 15.1204
1717 2 O 7.9275 1.36711 14.6081
1716 2 O 6.51928 3.08368 16.2928
1724 2 O 9.62395 2.92186 16.0991
561 1 H 10.4872 0.426182 13.5552
564 1 H 12.8079 2.45674 13.3182
569 1 H 10.733 1.76635 14.96
570 1 H 12.0922 0.990291 15.1886
1725 2 O 11.4651 1.37519 14.4903
1956 2 O 12.9618 3.08285 16.2029
1963 2 O 13.0547 0.0764884 16.2252
1026 1 H 13.7598 0.259894 13.2279
1027 1 H 15.8962 2.70991 13.4747
1033 1 H 14.1915 2.1321 15.0075
1034 1 H 15.4974 1.15714 15.0846
1957 2 O 14.9036 1.6409 14.4412
2097 2 O 19.7648 -0.203354 13.0527
1041 1 H 16.9047 0.312665 13.4579
1044 1 H 19.2367 2.66628 13.2965