/home/users/saadie5f/piaggi/phase_diagram/water_64.dat (written by ASE) 

864 	 atoms 
2  atom types
0.0      18.187689576042047  xlo xhi
0.0      21.422695919389334  ylo yhi
0.0      22.188938801207541  zlo zhi


Atoms 

     1   1      3.4223186291129308      3.5947332845519067      2.6738045962384787
     2   1       5.003493312248021      5.6203530006264044      1.5909753891886451
     3   1      5.7038279519615331      2.3262060470806158     0.70557544504905834
     4   1      5.3494631403321309      4.2290747909501292      2.0768502525478967
     5   1      2.0233011448228235      3.2631909166154665      2.2002591184393556
     6   1      1.1405862134311195      3.5470123222941905     0.18036599273469497
     7   1      4.3818767257425089      8.0814906112563705      2.1832346742705604
     8   1     0.17893577403948194      6.8757342454176271     0.38429224737133261
     9   1      6.0563524038961996      2.0267152600825158      3.0670243995672379
    10   1      2.3163411001592382      6.8452719708964018       1.107878081121247
    11   1      1.8600984712236872      3.1197844026693247      4.5440587188346475
    12   1      4.0458831867445326      5.8972199914987993      3.6076954296448696
    13   1      2.8551386408235935      7.8901007017077962      4.8501675100274202
    14   1      2.8312075071876044      1.3053527917246732      3.2053639768271842
    15   1      3.8573410306820506      5.6456875474309669      5.0884387314119222
    16   1     0.44182226047816242      2.7235191512230341      4.8946032417218674
    17   1      2.2227972415649284      5.7707735601206744    0.045746266208674058
    18   1      7.2475009791671878      2.8640598974009577      2.6529701702207173
    19   1      9.5854727163053273      2.2111211771352641     0.54029140397377917
    20   1      10.126673635475951      3.6062899296063176     0.31220048225766178
    21   1      8.5786307099277384      2.2776182613873752      4.7429930356901648
    22   1      9.0547801319216763        3.53941813057375      2.5286559494605712
    23   1      10.073241231092913      6.8322269484483833      1.6570509216815359
    24   1      9.0397715884355527      4.2583480554945474      3.8606989012312778
    25   1      6.5372746143341613      6.8506335804493297      1.4153366485701855
    26   1      8.8024094465067613      6.7895987756973071      2.4783882101008441
    27   1      7.8584776929728806      5.9157540208925763     0.13599126738607445
    28   1      11.529583624068692      2.4533716443973912      1.7368781102443427
    29   1      7.5916251105840526      7.6652578679407828      4.9335411695717859
    30   1      12.077494463132295       6.557060835296598      2.4553291845869243
    31   1      12.019497340997399      5.4383832301121631     0.60734522577214023
    32   1      12.048620133372568      7.2148974019684822      3.8183543714214006
    33   1      6.4088821985752498      7.2892573802655463      2.8584408833922561
    34   1      11.884615904294305      4.2939465970167685      4.8957555924922618
    35   1      9.0587600196692275      6.1872268350293869       4.742691665455796
    36   1      17.339732502728396      1.5421970779731879      3.4444689564442958
    37   1       18.10800028450231      2.8668937400550525     0.76327760185150695
    38   1      15.993283725165622      5.9036305284162598     0.95635949330998227
    39   1      15.916792825870616      3.8254350564075139     0.27876329335205097
    40   1       12.28622995096242      3.0341183792216633      2.9123104903878207
    41   1      14.564689311296316      5.4407506975278999      1.1468422084290175
    42   1      12.565433862077199      4.4172994338700908      1.5824167252479553
    43   1      13.881124098513657      1.4367785131500959      1.7305685361199037
    44   1      15.200641806301677      1.8282156596148593      1.1004287920393641
    45   1      16.637503998854982      2.8258299515616967      3.8325210879908846
    46   1      15.553903049282113      4.6735583412366104      2.9281421846062119
    47   1      16.302330739358503       4.759842491275859      4.2410909644307857
    48   1       17.39377944243072      7.5856648654379137      1.3013501840236468
    49   1      17.579839537058369         6.8423957476738      5.2280330862455564
    50   1      14.047594236457837      5.3416853003611227      4.6574431769740432
    51   1      12.554531240661628      3.0208598858568201      5.3668061273222341
    52   1      14.561144019236201      6.7450981942271024       4.416366241328098
    53   1      3.2744276868896827      8.8069925812537715      2.9171352331367806
    54   1      1.7537195318758145      8.9247464978840547      4.9385353429866274
    55   1      3.2208541663598722       12.44621927066769      3.0105161669255085
    56   1      4.5062071722018882      12.733432916893221       2.264335645557551
    57   1      2.8745548937314833      14.629324631910055      1.8843491989990815
    58   1      0.9641556863605395      13.468290801288701      4.3830904823975008
    59   1       2.660064566130496      10.600957947728384      4.2040542578170665
    60   1      2.2832179072992367      11.647135637995339      5.2311416881577193
    61   1      1.3436295892124897      14.598078053658089     0.52610565050663216
    62   1      6.0400961278769287      11.054658914708714      1.2171924133180538
    63   1      3.3980902238678814       10.12841572611887      0.9160397878938995
    64   1      3.4687137527282195      11.635884487147292      1.0342456570362522
    65   1      1.5794548125645407      11.067873047571517     0.20693668326377745
    66   1      5.2222434502230808      11.136974520770673      4.0112915559813676
    67   1     0.19080570350747172      11.200656022648035      1.9015205347652702
    68   1     0.67819974229558122      11.223780169196953      3.3344676078436994
    69   1      4.9500484534523768      10.965125771265864     0.17067438813470093
    70   1      6.4151247708025236      10.538103698608793      3.2972810815360472
    71   1      6.3801613839946318        13.6545585845091      4.6643906706027227
    72   1      8.2574753238832628      8.4898230391860956      3.8527269500538028
    73   1      8.9341120037314852      10.832147534220949      4.3082921306599058
    74   1      8.8501010686619743      10.391502738882526      2.8625436677320648
    75   1       8.091930387920014      13.695564901996432      2.7171493196557823
    76   1      8.7086638143918407      14.127909345107881      1.4040826506887707
    77   1      9.3988210957719041      11.891938843472227      1.6167134342331693
    78   1      10.701485451407663      11.150554991720073      1.8284652997598829
    79   1      6.5014800797479708      14.841857501775065      3.7332496944650089
    80   1      11.083475176745512      11.612364705425072      4.7508680194283883
    81   1       10.49963795061662      14.115918816488406       2.937365489020356
    82   1      11.809472341905821      13.707069510112394      3.5765806674019114
    83   1      6.5570029087878261      13.159916869636188     0.37107126085957581
    84   1      17.540278425536364      9.0583930722792552      4.7073496017492733
    85   1      17.731178943624393      13.987631147823135      4.4415352028831334
    86   1      12.166193657865348      8.8953232646292335      2.5624685454933398
    87   1      13.258950927272354      9.6073171225070784      1.7941119442366831
    88   1       16.48164152840328      11.619910506256774      3.4397731280173329
    89   1       15.89801128659794       8.854916324013189      1.8396251836885233
    90   1      12.818857353773534      11.490040972989577      3.1356284322074277
    91   1       13.58930468808274      12.302381198551052      4.1544209369763214
    92   1      15.265681408966678      13.118897157884257      2.4745433981951326
    93   1      16.127994212567685      14.812727111151167      2.8548789642054699
    94   1      14.388181504036741      14.009648028453766      1.6213276309541567
    95   1      17.119521286758079      9.5438025063805174       2.409515175862162
    96   1      15.150642199307502      12.373774840305725     0.40576638486712618
    97   1      15.958285716527181      11.880754256001998      4.8360125541687822
    98   1      15.000003522931825      9.9884578908924855     0.18823711052584652
    99   1       12.39651463060353      14.868250992687861      2.1466665203605406
   100   1      5.5888836650925873     0.96284232310149886      5.3570082553270222
   101   1      2.4362174459085164      16.038381127485483      2.2217544012457147
   102   1        4.79482554653704     0.60755966895454039       4.118190713883676
   103   1      2.9472497616054598      20.439280289079083      0.8403355788617296
   104   1      2.6097949809214831      21.240812470044837      3.0306451886960519
   105   1      3.5744732810039057      17.024428059579314      3.6814665988304904
   106   1      5.1509713183729966      18.138025722621485     0.87925762776295358
   107   1      4.4200172985413388      19.251488844706142       1.598514560171364
   108   1      5.6881417912022485      17.549199031380049      2.8475531269201135
   109   1     0.86488806220397985      19.549155165950665      4.8729792456651007
   110   1        1.65320878807411       19.02260122742657       3.692845490065142
   111   1      2.3710408043835542       16.66831186336233      4.5278447830565289
   112   1     0.16428577081092699      20.779727732725156      2.9043244617529416
   113   1      4.1858867704653058      16.206238261009393     0.46186165677408347
   114   1      2.4614161173201299      19.009853279910043     0.73023631765253771
   115   1    0.098086894398202049      21.276206546406456     0.48652486803630995
   116   1      5.4798642991325783      15.481324569953609     0.15932798257532652
   117   1      7.7995581988844078      1.0567847236057883       5.183486485675374
   118   1      11.112537392472822      15.540350992584221      5.0913298169649037
   119   1      6.8837640505935704      21.091811212262794      3.6519574246786917
   120   1      6.0835761720638946      17.253971017113578      4.2786010290982155
   121   1      8.5341940426630263    0.067503821652149479     0.12302836312416028
   122   1      8.0462532718598219      20.200809274870519      1.7566786337214224
   123   1      10.234099579998885        18.1472651980711      4.8333817560855383
   124   1      9.7292820692503543      16.796122567539577     0.61187520052974687
   125   1      9.3428719738381485      18.239627419916019     0.37020687713815509
   126   1      7.6092567555559549      19.852070149338818      4.1295813240234596
   127   1       9.928651638256186      17.637569003357164      3.4411401705231794
   128   1       6.930830551536113      19.749253873955166      0.8383354617484885
   129   1      8.0553783559619525      17.966484471091356      5.0200421218788103
   130   1      15.327481696674315     0.41311187921548498      4.2409535114971151
   131   1      15.019401671912266     0.15316969768159153      2.7818647830089214
   132   1      16.727529653934816      16.154182955180762      3.2188561448821615
   133   1      15.610621861251497      15.910664762207681      5.0126342445068905
   134   1      13.490351453463203      15.746783336681228      1.5782230077285015
   135   1      13.935227539864391      17.366295708657312      2.7653317952116767
   136   1      14.484900824094144      17.761856873345394      1.4115175212468261
   137   1      17.618138864243932      18.405782686980086      3.1147262149180204
   138   1      16.915922511308821      21.118065984992359      2.5656457300545799
   139   1      14.105194541536042      20.065560919712521      4.0677709093603003
   140   1      12.706782762237678      19.624222533536585      4.4433908612748843
   141   1      16.292134868026885      18.005867993523236        2.50382070435231
   142   1      17.688364681126252      17.763332001810401     0.67335678295133161
   143   1      4.4217364192424498      5.1481503063806882      7.4656957694016519
   144   1       4.116068534214107      7.1618228400738735      8.0465586391690103
   145   1        1.20459257271411        4.30340638534806      6.7377760987404587
   146   1     0.88421700170100981      6.3825907695089263      9.5049029925203588
   147   1      3.4832790149089079      6.4442709935912905      9.2196396181387268
   148   1      5.0121733266777904      2.7248840991335128      6.8127276056230821
   149   1     0.13123567625117488      4.6511105742340968       7.746949372365977
   150   1      3.2186466084775551      2.1153947197057175      10.557497753533626
   151   1      1.2910446042503609      7.8036954965344529      9.1787462627450758
   152   1       5.711371281212255      4.8641978594894981      6.7256726715871098
   153   1      5.6524461241422337      1.7606315229335463       7.788270413612441
   154   1      5.9019130447804118      6.9972469078919435        9.28886196852112
   155   1    0.041788686420815686      5.5319864862415198      5.6181788042128158
   156   1      2.0129758038886623       3.338980242090857      8.3891348528603302
   157   1      2.2298551347263547      1.8408682757079067      8.3822091687074671
   158   1      5.1973105792518162      1.2004328067784191      9.6182638848534285
   159   1      6.2674005904814694      1.9188587417756675      10.412111906647709
   160   1      7.8566911565802178      3.2972941872647854      6.2387296660215501
   161   1       7.871239269535212      3.9219420690757314      7.6175076311519998
   162   1      10.977316216357274      3.4146189938646141      8.0165517184699642
   163   1      9.0237831893003619      5.2385729289681011      5.9217823353281354
   164   1      10.370288491218355      3.0537896109338507      9.3554828778352555
   165   1      7.2185004717100805      7.7888976875745435       7.531874056742236
   166   1      11.671615704283909      6.8954669775447259      8.3928153331259345
   167   1      7.7620898920040027      5.4365910711524004      9.5547212133045569
   168   1      11.226293029304331      5.5683195296474368       8.968816860574135
   169   1       9.002876354514477      4.5722810356575119      9.4851666407702471
   170   1      6.8402027807111567      8.0234688776627845      9.8871106661360564
   171   1      7.1020420691452237      3.5346333541218482      11.103407712178326
   172   1      11.795603383200554      1.4647563034569937      6.7210692758530941
   173   1      10.735441684794845      7.7311618311203496      10.322734920210667
   174   1      12.922947902681358      7.1180955761890949      6.1164111957928275
   175   1      13.273693583204217      1.2860959407823933      6.9944841596979179
   176   1      13.378452995548779      3.4547377847887564      7.5087565859526109
   177   1      13.379915505036672      4.0195289683538009      8.9131880429686898
   178   1      15.155629553870606      5.2645885043537444      8.2921025406873099
   179   1      16.272948361997585      3.4348646799789786      9.4129552714901994
   180   1      16.910598845126728      2.2637158293485609      8.6965491840689904
   181   1      16.039692030325057      5.8326148560192248      7.2025141243983377
   182   1      15.986084242945783      7.6720075135109873      8.0187546289013145
   183   1      17.094631612371991       1.336645148010392      5.9107473085378013
   184   1      18.157010044762835      2.2561979100811556      10.673921714158919
   185   1      15.612244568247492      1.5836953393700701      10.729335018213732
   186   1      14.409191234773788      2.4420244126327719      11.056985640580976
   187   1      5.4585990039836876      12.311652160530896      6.2473904046207309
   188   1      3.5701401981401912      9.1543168177802965      6.6432343194543746
   189   1      3.7665679518004227       9.538743495765031      8.0941156916876587
   190   1     0.50087718061028852      11.320588034697177      6.7588739674089862
   191   1       5.732900571940454      10.203715863306336      7.0905860893673411
   192   1      3.0013039878971308      14.894566713521231       7.305508884974051
   193   1      4.5940868627976279      13.544950654079534      6.3990931973500098
   194   1      1.6531902287899574      11.792348394771272      7.6197103982679195
   195   1      2.5689769150675517      13.498012255593718      8.7557150063187699
   196   1     0.38105174640708228      13.783786719407797      9.3409371399029162
   197   1      2.2412930164657507      12.708362153819731      10.004914864132628
   198   1      4.4185835349795148      14.925883584729899      7.8363230159600006
   199   1     0.89619734109493554      9.8696939167853763      7.9593581537793252
   200   1     0.40738014123471983      9.6505564162250792      10.520246315367688
   201   1       1.114124980764903      14.751578678137395      5.8167763864989341
   202   1       4.987703450301594      9.7827357962208801      10.566188225641815
   203   1      3.6741375491780541      9.0944544727565528      10.869894765449418
   204   1       9.353494572705717      12.949605231643108      6.1033365432186084
   205   1      8.1326829874443245      13.788819704245761      5.7922752948312226
   206   1      10.211568949225624      14.900675801273119      6.1259740953975053
   207   1      10.421464617295889      10.765610181841861      5.8167779549673382
   208   1      11.612171519054144      14.627291492570277      7.7002395238089374
   209   1       7.352297630468442      12.382087742869979      10.668937930789179
   210   1      7.1499237949526728       9.080514831242656      6.7454591290611745
   211   1      10.667736768483376       8.334149622978547      6.4313631271311014
   212   1      6.7039419367318942      11.285140026427367       7.513693114080997
   213   1      9.1996168539467114      8.6960857393488844      6.5024335842995127
   214   1      8.1388223910505246      12.920058151804183      8.3015978173323397
   215   1      8.5755447377001506      11.628430424989261      8.9591637423690393
   216   1      10.908882930051183      15.272651323643387      9.9703276370446741
   217   1      10.189152362962306      9.6991609910621044       9.638679752438291
   218   1       10.25558411502157       9.867743346063941      8.1358210911907793
   219   1      11.865093219930712      11.424098133702165       8.790933144472552
   220   1       8.337372998649812      15.091827002576069      10.300358158331113
   221   1      17.683268362839264      8.8548356087601352      6.2005122535893147
   222   1      17.834599472935523      14.601586820576157      10.381925016004683
   223   1      16.634854150186619      12.381594894955855      7.2963084991354661
   224   1      12.633546183396234      8.3600289601532758      6.9320541117379149
   225   1      12.239572874876419      13.605783382110236      8.6245285967254155
   226   1      12.920526839546469      11.825735902512564      9.7989871186472168
   227   1      15.540992344165369      9.0738566644065166      7.6607929827043764
   228   1      13.867708323171597      9.0426405994735557      8.5060482590305444
   229   1      16.529243835325502      13.633213610660389      8.9844511168537888
   230   1      13.327316952344688      10.399125694285466      8.1068711759972274
   231   1       17.89115559636879      9.0176826032628625      8.3373705535948481
   232   1      15.094583894527025      13.770408323304947       8.521466746842659
   233   1      17.516202726008061      12.485651005675928      6.0700046939670811
   234   1      15.471300649715518      11.951475730523246      10.171607328346948
   235   1      17.201147983684059      10.093204143754239      10.910717143284632
   236   1      14.698275363582555      9.3484071687559478      10.316057496259575
   237   1      2.4315402202714256     0.74168532471744086      6.1155926258674516
   238   1      4.7777390595958495      15.983986642909745      9.7131082962651103
   239   1       3.469489624832955     0.91509616727544463      7.2037119539890959
   240   1     0.82212073920114082        16.0134043865385      6.6003276373207402
   241   1      1.2900854042066601      15.974676607646138      9.5463969553351475
   242   1     0.29238408350757317      19.232735698748527      9.6426102122261561
   243   1      4.8982823760229772      17.817010361397664      9.1989020244426865
   244   1      1.3473990775581057      20.432747509879988      7.0436532506439766
   245   1      2.9560069342816826      20.343215450466072      9.9154113146657448
   246   1      5.0164446896153256      19.322800132908341      9.2992033089263444
   247   1      4.2826546518363671      20.681744059085915      10.561033590846032
   248   1      3.3700766688181742      16.540683827204269      9.7127258192551533
   249   1    0.063020525145596196      19.692528674224384      7.3500268356915548
   250   1      1.5614856357666214      17.460747944108519      9.4496525949503063
   251   1      0.9884262635043678      19.671218743713393      10.913310067382346
   252   1      10.961316225006353      20.137795486065706      6.1183477813422229
   253   1      11.323279816309803      18.693070976792384      6.3888622358293512
   254   1      9.6680834798287236     0.66739652636600522      6.0685146352976842
   255   1      6.2115582553312017      16.512966681066246       7.426120909506329
   256   1      10.007844146266768      17.078113947445296      10.254980258665951
   257   1       11.39104080213462      16.974115181038712      7.1894118489030321
   258   1      7.4704499953424994      18.640172781496169      6.2429171715874929
   259   1      8.6863783262480965      18.336438601242904      8.6369094780808027
   260   1      7.2519210143681399      18.802409097780956      8.5080248872635416
   261   1      10.098841349585559      0.5048531561810512      7.5105447527694675
   262   1      6.6998007097336956      15.709860695206956      8.6127388297380261
   263   1      11.350114022892685      17.564204830845281      8.5828050551509545
   264   1      8.1237231122734173      20.342415347091784      8.8626622087219218
   265   1      9.7102569097799059     0.50601390527573165      9.8315341250512986
   266   1      7.5097912173303101     0.15614786390660942      9.4837560533357887
   267   1      11.221027046017365     0.53585686822288736      9.9215501986827359
   268   1      10.854702305670253      18.323712265962232      10.405748196304076
   269   1       7.494603998822793      16.129731869450133      11.010226517935303
   270   1      13.993203041076303      18.824356786144058      5.8844595379582145
   271   1      17.536835237460437      16.240993851612224      8.3835423676241483
   272   1      15.180140023291198      17.177660855878266      5.7203265941058223
   273   1      13.507833345841686      15.516172564999811      8.3502629982449257
   274   1      17.076080473042168       18.32689665533449      8.2052608472244835
   275   1      14.557672324710396      16.149234470581533      7.4622914242476055
   276   1       16.78813244715365      16.496263400953609      7.0929223663712939
   277   1      14.599593544323204      17.560808900386341      9.6892955704500903
   278   1      13.595228994869053      18.208544754639249      7.2087775441475266
   279   1      14.399996532816015      20.493719192013149      7.2878020086843849
   280   1      15.456911100483756      0.1543585640113809      7.3150392361063021
   281   1      13.336738758400564      20.967624187521935      9.1035296282607945
   282   1      17.747339551504375     0.27691851211284685      6.7723595606809273
   283   1      16.080591777474133      19.050992758077371      9.0862327556041631
   284   1        13.9787038702373      18.651220596902306      10.536005838351651
   285   1      12.494994166800982      19.674111452309408       10.96072063187348
   286   1      13.480883263139949     0.44814670383588967      10.309698740222395
   287   1      3.9390441721647003      3.1282643538467521      11.421527149074571
   288   1       2.588509912363163      7.4792969945077603      11.232930363773807
   289   1      1.4032495763600701      2.3230588734008322      11.154334437587412
   290   1       1.110345550144423      4.9545092488476463      15.253451463071992
   291   1      2.7352332519879661      5.0457734075980261      13.615489267710942
   292   1      3.2434067754116076      5.8790862615335522      12.458437013621186
   293   1      4.6221382467410885      4.5650339233425825      13.508709970028324
   294   1      2.4442166155496454      4.4744324792306802      15.784238711582082
   295   1      5.7907986581420294      3.6131118213764868       15.48098497409277
   296   1      3.2213296220823557      7.2647109579742706      15.567375162707535
   297   1      1.5058406244918079      4.7877171412747037      12.141086534753533
   298   1      3.8610474916332995      2.3317335215300257      15.234025827801441
   299   1     0.49559601737072234       3.854061951405181      11.509330266780038
   300   1      4.5462369307346195      1.5486659420680859      12.947142380219901
   301   1      5.9417249078708245      3.9202060409695223       13.14222365353328
   302   1      2.3487320028060137      8.1205067877842669      12.583031746767182
   303   1     0.33259837255446961      7.8335964989631934      13.253893552896946
   304   1     0.43516377825349312      2.4281722909159562      13.382409858036196
   305   1      1.2580829913041687       2.467506024028788      14.652323776629654
   306   1      3.0848492380474291      2.2424558589888131      16.530547195749456
   307   1      7.5045417017672209       2.679037488472511      12.285510782561708
   308   1      6.7139655631622697      5.8598307959014617      13.930237468032264
   309   1      7.0437353863077021      7.3276340172264511      14.098244604317024
   310   1      10.102664945121662       2.747117865009054       12.85033596409481
   311   1      8.1348350469474422      5.9458854635847773      15.880718773507679
   312   1      10.806724120731324      4.8370877751626224      12.786024767410176
   313   1      11.792805258377097      3.9253585301310157      13.484462187553863
   314   1      9.7224512826915177      1.3013126729169371      13.088049779204136
   315   1      10.175878774019608      6.9114967299258439      12.141234118755877
   316   1      9.1224365938888283      6.3462501592719605      13.069769269725262
   317   1      8.0085906542040135      2.5159784375375134      16.012892725747662
   318   1      8.6731485539332223      1.9672294375267465      14.768439753394462
   319   1      12.131905964374457      4.1919332243369745      15.716879106817357
   320   1      10.227081263568062      7.7738338340646438      14.394841177484471
   321   1      13.347224856746445      3.3490126055217506      15.394529471886727
   322   1       13.37257401693509      5.8531150906827802      14.524048846759086
   323   1      12.689513084153869      3.9099418620688109      11.372921168991045
   324   1      14.020093258335793      4.6073911223074617      11.187062430785586
   325   1      15.744613755967501      6.4362461512226767      12.069927456140615
   326   1        14.6155745784082      6.7932570456825561      11.126933351811248
   327   1      17.224708409092919      6.0496780625176028      14.033697265101354
   328   1       17.74790517408546      5.9933985533580287      12.614358327556443
   329   1        14.2152786686169      6.5860644246748974       13.50225670023171
   330   1      14.724655793373127      1.5650600223538595      15.754740513713202
   331   1      16.686537597572396      5.3551961046979546      16.167681149800632
   332   1      17.004442803126217       4.226528146672301      15.210357212897371
   333   1      14.562838273177546      6.1257414566529729      15.992682965025065
   334   1      5.1288580665383341      8.6297952127606443      14.560425847341543
   335   1      1.7745663068660533      12.262859214030611      13.055886557859528
   336   1      3.3009491462063623      11.121657186490763      11.234049917303054
   337   1      3.6908871146603812       12.33240640815966      12.054692825164574
   338   1      4.8416796030623725      13.926138940435591      12.841967834171157
   339   1      4.9525842669937106      12.736850122531537      13.771869550747104
   340   1      2.9321249658753272      13.462923921257051      16.163147567685662
   341   1      2.1538839274231609      13.725743042544986      14.891659007573157
   342   1      4.1976571107473841      11.498358537309384      15.679499682879118
   343   1     0.32494010365412546      12.236428850001236      13.490985802930267
   344   1    0.098826748717748977       14.31047851108549      12.697116950461362
   345   1     0.18119139198682532      9.6847543216594083      14.753130282899177
   346   1      1.7071072298259344      10.468540979387074      16.064631596722734
   347   1      2.9220994973935643      9.5682211646072268      15.996564011691021
   348   1     0.55313613968482489      9.2709545338795607      12.833430263017322
   349   1       4.970866958002774       12.59185760323755      16.385069761288729
   350   1      10.522438496003085      14.796297566932363      11.354225041562774
   351   1      6.8839078570035745      10.490019024578313      11.592024508911893
   352   1      6.3904560228272977      9.4605318344597027       14.65876969225102
   353   1       6.622202693665729        11.6431075132242      15.427145012707719
   354   1      6.7509612524492963      12.648402478263691      12.032347164976267
   355   1      11.021876227424441      8.5741983607697065      11.546935561411484
   356   1      7.6610690272764614      10.764215089858551      16.090265854046983
   357   1      6.4484623324342447      9.3230009075965103      12.452186506958816
   358   1      9.9328696712917317      9.2283941922768431      14.693362857155931