LAMMPS (7 Feb 2024 - Update 1)
KOKKOS mode with Kokkos version 4.2.0 is enabled (src/KOKKOS/kokkos.cpp:72)
  will use up to 4 GPU(s) per node
  using 1 OpenMP thread(s) per MPI task
Reading data file ...
  triclinic box = (0 0 0) to (24.989956 24.989919 23.167336) with tilt (-0.22207236 -0.16357316 -0.098737559)
  2 by 2 by 1 MPI processor grid
  reading atoms ...
  1920 atoms
  read_data CPU = 0.011 seconds
ACE/AL version: 2023.11.25
Loading /home/cicn/cicn607503/pd/pot_dir/interim_potential_ladder_step_1.yaml
Total number of basis functions
	H: 23 (r=1) 664 (r>1)
	O: 23 (r=1) 664 (r>1)
Mapping LAMMPS atom type #1(H) -> ACE species type #0
Mapping LAMMPS atom type #2(O) -> ACE species type #1
Loading ASI /home/cicn/cicn607503/pd/pot_dir/interim_potential_ladder_step_1.asi
LINEAR ASI is loaded
Switching to 'neigh_modify every 1 delay 0 check yes' setting during minimization
Neighbor list info ...
  update: every = 1 steps, delay = 0 steps, check = yes
  max neighbors/atom: 2000, page size: 100000
  master list distance cutoff = 6.5
  ghost atom cutoff = 6.5
  binsize = 6.5, bins = 4 4 4
  1 neighbor lists, perpetual/occasional/extra = 1 0 0
  (1) pair pace/extrapolation/kk, perpetual
      attributes: full, newton on, kokkos_device
      pair build: full/bin/kk/device
      stencil: full/bin/3d
      bin: kk/device
Setting up cg/kk style minimization ...
  Unit style    : metal
  Current step  : 0
WARNING: Fix with atom-based arrays not compatible with sending data in Kokkos communication, switching to classic exchange/border communication (src/KOKKOS/comm_kokkos.cpp:666)
WARNING: Fix with atom-based arrays not compatible with Kokkos sorting on device, switching to classic host sorting (src/KOKKOS/atom_kokkos.cpp:218)
Per MPI rank memory allocation (min/avg/max) = 423.1 | 425.6 | 428.5 Mbytes
   Step         TotEng         PotEng         KinEng         Press           Temp          Volume        Density     c_max_pace_gamma
         0  -9186.3912     -9186.3912      0              71325.798      0              14467.932      1.3233249      0.69469978   
       100  -9273.0205     -9273.0205      0             -8111.1964      0              14467.932      1.3233249      0.69469978   
       200  -9273.1145     -9273.1145      0             -8133.0643      0              14467.932      1.3233249      0.69469978   
       300  -9273.1151     -9273.1151      0             -8129.0615      0              14467.932      1.3233249      0.69469978   
       324  -9273.1151     -9273.1151      0             -8129.2327      0              14467.932      1.3233249      0.69469978   
Loop time of 1.30608 on 4 procs for 324 steps with 1920 atoms

99.5% CPU use with 4 MPI tasks x 1 OpenMP threads

Minimization stats:
  Stopping criterion = force tolerance
  Energy initial, next-to-last, final = 
     -9186.39119087423  -9273.11512027411  -9273.11512028612
  Force two-norm initial, final = 64.044178 0.00045670839
  Force max component initial, final = 2.4633048 0.00012936221
  Final line search alpha, max atom move = 1 0.00012936221
  Iterations, force evaluations = 324 647

MPI task timing breakdown:
Section |  min time  |  avg time  |  max time  |%varavg| %total
---------------------------------------------------------------
Pair    | 0.8499     | 0.85666    | 0.86835    |   0.8 | 65.59
Neigh   | 0.0029064  | 0.0030615  | 0.0031596  |   0.2 |  0.23
Comm    | 0.20302    | 0.21466    | 0.22147    |   1.5 | 16.44
Output  | 0.00044974 | 0.00045075 | 0.00045303 |   0.0 |  0.03
Modify  | 0.14522    | 0.14613    | 0.14751    |   0.2 | 11.19
Other   |            | 0.08511    |            |       |  6.52

Nlocal:            480 ave         482 max         478 min
Histogram: 1 0 0 0 0 2 0 0 0 1
Nghost:         2630.5 ave        2633 max        2629 min
Histogram: 1 0 2 0 0 0 0 0 0 1
Neighs:              0 ave           0 max           0 min
Histogram: 4 0 0 0 0 0 0 0 0 0
FullNghs:      75285.5 ave       75714 max       74890 min
Histogram: 1 0 0 1 0 1 0 0 0 1

Total # of neighbors = 301142
Ave neighs/atom = 156.84479
Neighbor list builds = 7
Dangerous builds = 0
Setting up Verlet run ...
  Unit style    : metal
  Current step  : 324
  Time step     : 0.0005
WARNING: Fix with atom-based arrays not compatible with sending data in Kokkos communication, switching to classic exchange/border communication (src/KOKKOS/comm_kokkos.cpp:666)
WARNING: Fix with atom-based arrays not compatible with Kokkos sorting on device, switching to classic host sorting (src/KOKKOS/atom_kokkos.cpp:218)
Per MPI rank memory allocation (min/avg/max) = 424.7 | 426.4 | 427.6 Mbytes
   Step         TotEng         PotEng         KinEng         Press           Temp          Volume        Density     c_max_pace_gamma
       324  -9191.2585     -9273.1151      81.856572     -2086.0433      330            14467.932      1.3233249      0.69469978   
       400  -9178.4899     -9221.4273      42.93746       5161.6871      173.09987      14404.585      1.3291445      0.69469978   
       500  -9159.4491     -9209.3716      49.922477      3013.4659      201.25956      14201.786      1.3481244      0.69469978   
       600  -9143.5314     -9207.8302      64.298731      9819.5415      259.21659      13962.11       1.3712666      0.69469978   
       700  -9133.0652     -9203.3839      70.318666      13635.26       283.4856       13783.582      1.3890276      0.69469978   
       800  -9125.6544     -9196.8349      71.180482      16807.49       286.95996      13700.066      1.3974951      0.69469978   
       900  -9124.9262     -9196.8847      71.958542      17519.54       290.09667      13707.23       1.3967646      0.69469978   
      1000  -9121.9753     -9196.2716      74.296271      15413.281      299.52109      13786.926      1.3886906      0.71388209   
      1100  -9119.7341     -9194.8149      75.080764      12092.536      302.68373      13916.498      1.375761       0.71388209   
      1200  -9118.4565     -9194.6966      76.240168      11614.432      307.35779      14067.148      1.3610275      0.71388209   
      1300  -9116.4436     -9193.1915      76.747869      9336.2874      309.40456      14205.097      1.3478102      0.71388209   
      1400  -9112.3036     -9190.9843      78.680705      9138.3051      317.19668      14301.36       1.3387381      0.71388209   
      1500  -9112.4091     -9189.9186      77.509504      12237.91       312.47505      14350.796      1.3341264      0.71388209   
      1600  -9111.8553     -9188.513       76.657737      7169.9224      309.0412       14355.259      1.3337115      0.71388209   
      1700  -9107.7184     -9188.1965      80.478129      8004.925       324.44289      14322.483      1.3367636      0.71388209   
      1800  -9108.2103     -9188.6006      80.390325      9416.18        324.08891      14265.647      1.3420895      0.71388209   
      1900  -9107.6198     -9189.948       82.328241      9821.5611      331.90151      14195.461      1.3487251      0.71388209   
      2000  -9105.6354     -9184.3611      78.725764      10262.05       317.37833      14131.598      1.3548202      0.72079058   
      2100  -9106.9137     -9188.7952      81.881466      13366.801      330.10036      14092.246      1.3586035      0.72079058   
      2200  -9106.4201     -9187.6673      81.247158      12529.829      327.54318      14079.507      1.3598327      0.72079058   
      2300  -9105.5542     -9186.301       80.746777      7697.3755      325.52593      14093.389      1.3584933      0.72079058   
      2400  -9106.4083     -9186.8112      80.40295       9592.3593      324.13981      14129.907      1.3549823      0.72079058   
      2500  -9108.118      -9190.6521      82.534029      8711.7906      332.73113      14176.118      1.3505654      0.72079058   
      2600  -9106.7183     -9187.3493      80.631057      9366.4418      325.05941      14222.459      1.3461648      0.72079058   
      2700  -9105.8698     -9186.9126      81.042819      7810.9721      326.7194       14263.753      1.3422677      0.72079058   
      2800  -9103.9833     -9184.5622      80.57887       5805.0055      324.84902      14287.842      1.3400046      0.72079058   
      2900  -9104.7251     -9187.6059      82.880855      7711.8623      334.12934      14291.357      1.3396751      0.72079058   
      3000  -9104.4929     -9185.5425      81.049613      10789.958      326.74679      14274.118      1.341293       0.63399526   
      3100  -9105.0736     -9185.3809      80.307326      8376.5563      323.7543       14237.16       1.3447749      0.63399526   
      3200  -9107.237      -9186.2649      79.027894      10951.706      318.59635      14190.227      1.3492226      0.63399526   
      3300  -9108.4384     -9187.874       79.435609      8434.3875      320.24003      14149.706      1.3530864      0.63399526   
      3400  -9107.1455     -9188.0421      80.896625      8250.5106      326.13003      14122.056      1.3557357      0.63399526   
      3500  -9106.1039     -9188.0964      81.992555      11859.42       330.54821      14112.454      1.3566581      0.63399526   
      3600  -9107.1133     -9187.0707      79.957401      10423.291      322.3436       14127.972      1.355168       0.63399526   
      3700  -9106.5224     -9188.7339      82.211504      10229.523      331.43089      14163.159      1.3518011      0.63399526   
      3800  -9107.5209     -9189.2336      81.712708      11409.734      329.42002      14209.625      1.3473807      0.63399526   
      3900  -9106.5032     -9189.7261      83.222902      9752.4521      335.50828      14257.735      1.3428342      0.63399526   
      4000  -9106.9722     -9188.0127      81.040513      10179.939      326.71011      14300.797      1.3387907      0.66524851   
      4100  -9106.364      -9188.6761      82.312163      8598.2009      331.83669      14329.424      1.3361162      0.66524851   
      4200  -9104.469      -9188.3624      83.893334      5734.0341      338.21109      14335.86       1.3355163      0.66524851   
      4300  -9103.2695     -9186.2412      82.971717      6571.5634      334.49564      14316.205      1.3373498      0.66524851   
      4400  -9104.2521     -9184.6663      80.414214      11941.051      324.18522      14275.564      1.3411571      0.66524851   
      4500  -9104.6118     -9187.7699      83.158047      13158.228      335.24682      14219.701      1.346426       0.66524851   
      4600  -9104.0428     -9185.8768      81.833973      12279.287      329.90889      14156.603      1.3524272      0.66524851   
      4700  -9101.5436     -9185.204       83.660455      11505.202      337.27225      14103.264      1.3575421      0.66524851   
      4800  -9101.0367     -9184.6321      83.595374      10775.632      337.00988      14077.891      1.3599888      0.66524851   
      4900  -9100.1824     -9183.6701      83.487646      11223.123      336.57558      14090.87       1.3587362      0.66524851   
      5000  -9101.7618     -9187.4003      85.638435      10296.553      345.24636      14145.695      1.3534701      0.69790316   
      5100  -9101.8041     -9185.4019      83.597815      10701.147      337.01972      14227.857      1.3456541      0.69790316   
      5200  -9102.9924     -9186.9562      83.963788      10906.087      338.49512      14319.414      1.3370501      0.69790316   
      5300  -9102.1139     -9184.241       82.127052      8034.6866      331.09042      14391.367      1.3303653      0.69790316   
      5400  -9100.2524     -9181.79        81.537578      7804.3147      328.71399      14429.934      1.3268096      0.69790316   
      5500  -9100.1262     -9183.8087      83.682496      8509.3131      337.36111      14429.515      1.3268481      0.69790316   
      5600  -9100.618      -9184.1261      83.508119      8192.949       336.65811      14391.042      1.3303953      0.69790316   
      5700  -9102.1028     -9184.6669      82.56415       11319.15       332.85256      14323.237      1.3366933      0.69790316   
      5800  -9101.0112     -9185.108       84.096798      12702.826      339.03134      14238.895      1.344611       0.69790316   
      5900  -9100.7684     -9183.1731      82.404694      11584.935      332.20972      14159.46       1.3521543      0.69790316   
      6000  -9102.4461     -9186.4153      83.969136      12805.223      338.51668      14107.871      1.3570988      0.73266107   
      6100  -9103.1326     -9187.4634      84.330789      11370.587      339.97466      14089.828      1.3588367      0.73266107   
      6200  -9101.0411     -9184.0657      83.024639      9193.2436      334.70899      14098.344      1.3580158      0.73266107   
      6300  -9100.2744     -9183.1574      82.883035      10895.966      334.13813      14138.788      1.3541313      0.73266107   
      6400  -9100.8547     -9184.5027      83.648061      9516.9037      337.22228      14203.718      1.3479411      0.73266107   
      6500  -9100.9012     -9182.5953      81.694187      8578.1498      329.34535      14273.338      1.3413663      0.73266107   
      6600  -9102.3643     -9183.6987      81.334447      9046.6493      327.89508      14334.402      1.3356521      0.73266107   
      6700  -9103.8769     -9184.7588      80.881878      6713.0541      326.07058      14373.353      1.3320326      0.73266107   
      6800  -9104.7286     -9188.1905      83.461867      6650.7193      336.47165      14382.363      1.3311981      0.73266107   
      6900  -9105.2234     -9187.8508      82.627354      7540.8747      333.10736      14356.632      1.333584       0.73266107   
      7000  -9103.1595     -9186.4084      83.248914      9029.2699      335.61314      14305.957      1.3383078      0.62956449   
      7100  -9103.0874     -9185.9891      82.901723      10272.465      334.21346      14249.614      1.3435995      0.62956449   
      7200  -9101.5893     -9184.4282      82.838978      7028.4301      333.96051      14199.133      1.3483763      0.62956449   
      7300  -9100.962      -9183.0945      82.132476      12466.555      331.11229      14159.536      1.352147       0.62956449   
      7400  -9101.7951     -9184.2646      82.469494      11285.875      332.47096      14139.618      1.3540518      0.62956449   
      7500  -9101.164      -9184.6764      83.512398      12172.261      336.67537      14139.719      1.3540421      0.62956449   
      7600  -9099.4372     -9181.7708      82.333656      10174.682      331.92333      14161.944      1.3519171      0.62956449   
      7700  -9099.7559     -9184.1913      84.43545       10724.852      340.3966       14202.318      1.3480739      0.62956449   
      7800  -9099.9978     -9183.4713      83.473544      8425.7614      336.51873      14250.167      1.3435474      0.62956449   
      7900  -9100.3776     -9183.776       83.398463      10947.082      336.21604      14296.12       1.3392287      0.62956449   
      8000  -9101.7727     -9182.9429      81.170273      7885.6291      327.23322      14332.584      1.3358216      0.69521469   
      8100  -9101.5488     -9184.3625      82.813729      7589.5145      333.85872      14349.056      1.3342881      0.69521469   
      8200  -9101.5809     -9184.7522      83.171247      8603.4887      335.30004      14343.529      1.3348022      0.69521469   
      8300  -9101.211      -9185.5517      84.340702      8258.5509      340.01462      14315.422      1.337423       0.69521469   
      8400  -9100.557      -9183.1036      82.546542      9473.5785      332.78157      14271.038      1.3415825      0.69521469   
      8500  -9100.3515     -9185.1394      84.787841      10916.595      341.81724      14221.397      1.3462654      0.69521469   
      8600  -9102.3607     -9183.2528      80.89208       10742.714      326.1117       14176.445      1.3505342      0.69521469   
      8700  -9103.7545     -9185.0062      81.251676      10685.106      327.5614       14148.504      1.3532014      0.69521469   
      8800  -9105.2137     -9188.8757      83.662005      8856.5749      337.2785       14140.929      1.3539262      0.69521469   
      8900  -9105.0046     -9186.9162      81.911602      10380.843      330.22185      14149.859      1.3530717      0.69521469   
      9000  -9104.2117     -9187.9815      83.769824      10830.426      337.71316      14170.898      1.3510629      0.67845648   
      9100  -9104.8285     -9186.3106      81.482051      6304.3632      328.49014      14199.904      1.3483031      0.67845648   
      9200  -9107.1926     -9186.2374      79.044766      9771.61        318.66437      14231.242      1.3453341      0.67845648   
      9300  -9107.4448     -9188.2206      80.775748      8106.1796      325.64272      14256.484      1.3429521      0.67845648   
      9400  -9108.5831     -9188.8444      80.261287      7927.7466      323.5687       14268.038      1.3418646      0.67845648   
      9500  -9109.928      -9189.5837      79.655781      10065.739      321.12764      14260.289      1.3425938      0.67845648   
      9600  -9107.0912     -9187.6897      80.59858       10548.549      324.92848      14235.203      1.3449597      0.67845648   
      9700  -9105.2043     -9186.9178      81.713463      9410.7268      329.42306      14194.14       1.3488507      0.67845648   
      9800  -9104.1477     -9185.2511      81.103406      9539.9961      326.96366      14150.914      1.3529709      0.67845648   
      9900  -9102.7261     -9184.5433      81.81712       11154.944      329.84095      14121.556      1.3557837      0.67845648   
     10000  -9101.4461     -9184.942       83.495823      13115.204      336.60855      14112.191      1.3566833      0.76201719   
     10100  -9102.1127     -9183.4542      81.341425      11750.234      327.92322      14127.304      1.355232       0.76201719   
     10200  -9103.1836     -9183.1067      79.923129      10002.001      322.20544      14163.875      1.3517328      0.76201719   
     10300  -9102.2347     -9184.2383      82.003562      9280.4139      330.59258      14215.444      1.3468292      0.76201719   
     10400  -9105.3042     -9186.9022      81.597976      7001.1538      328.95748      14274.529      1.3412544      0.76201719   
     10500  -9106.8383     -9187.4032      80.564919      7794.3552      324.79278      14323.102      1.3367059      0.76201719   
     10600  -9106.8297     -9188.1594      81.329736      6975.3117      327.87609      14345.512      1.3346178      0.76201719   
     10700  -9107.3729     -9187.7493      80.376331      9467.6463      324.0325       14332.738      1.3358072      0.76201719   
     10800  -9106.8623     -9186.8624      80.000151      7668.1799      322.51595      14294.3        1.3393993      0.76201719   
     10900  -9104.0229     -9186.2664      82.243479      9236.6823      331.55979      14236.469      1.3448401      0.76201719   
     11000  -9106.2888     -9187.4765      81.187683      8888.5329      327.30341      14171.926      1.3509649      0.67031232   
     11100  -9105.9116     -9185.9602      80.048637      12214.181      322.71142      14120.154      1.3559182      0.67031232   
     11200  -9103.4232     -9185.7899      82.366699      11628.526      332.05655      14095.482      1.3582915      0.67031232   
     11300  -9104.1499     -9187.2078      83.057929      12093.544      334.8432       14103.125      1.3575555      0.67031232   
     11400  -9105.781      -9187.1499      81.368896      11455.501      328.03396      14137.602      1.3542449      0.67031232   
     11500  -9106.9426     -9189.7737      82.83115       9555.0258      333.92896      14188.633      1.3493742      0.67031232   
     11600  -9106.6144     -9186.9625      80.348122      9131.3242      323.91877      14245.018      1.344033       0.67031232   
     11700  -9106.6303     -9187.8832      81.252935      8948.2154      327.56647      14293.099      1.3395118      0.67031232   
     11800  -9106.3093     -9187.7697      81.460441      9280.4057      328.40302      14322.216      1.3367886      0.67031232   
     11900  -9104.2856     -9185.7193      81.433664      6420.8789      328.29507      14328.182      1.336232       0.67031232   
     12000  -9102.8316     -9183.154       80.322447      8285.8849      323.81527      14311.216      1.3378161      0.62408114   
     12100  -9104.59       -9185.6726      81.082611      7940.0907      326.87982      14278.495      1.3408818      0.62408114   
     12200  -9104.5982     -9184.9316      80.333421      11120.626      323.85951      14241.472      1.3443677      0.62408114   
     12300  -9103.2789     -9185.5162      82.237301      12142.649      331.53489      14205.476      1.3477743      0.62408114   
     12400  -9104.4494     -9185.8741      81.424648      11973.188      328.25872      14178.381      1.3503499      0.62408114   
     12500  -9102.9685     -9185.4212      82.452648      12466.696      332.40305      14165.977      1.3515322      0.62408114   
     12600  -9103.8434     -9184.5306      80.68724       10436.909      325.28591      14168.3        1.3513107      0.62408114   
     12700  -9106.6831     -9185.7069      79.023795      13576.265      318.57983      14187.28       1.3495028      0.62408114   
     12800  -9106.8333     -9187.5249      80.691652      10066.07       325.30369      14214.783      1.3468918      0.62408114   
     12900  -9107.4525     -9188.2404      80.787849      9332.2345      325.69151      14238.563      1.3446423      0.62408114   
     13000  -9106.729      -9187.1136      80.384552      12873.373      324.06564      14254.141      1.3431728      0.70181624   
     13100  -9103.0958     -9185.0818      81.986067      9452.2761      330.52205      14263.551      1.3422867      0.70181624   
     13200  -9104.6331     -9184.8613      80.228169      9958.8498      323.43519      14270.514      1.3416317      0.70181624   
     13300  -9105.3321     -9185.0763      79.744178      9126.931       321.48401      14273.937      1.34131        0.70181624   
     13400  -9105.3048     -9187.3112      82.006389      10461.876      330.60398      14268.589      1.3418127      0.70181624   
     13500  -9105.6852     -9183.946       78.260837      9941.2408      315.504        14255.698      1.3430262      0.70181624   
     13600  -9105.5987     -9188.7815      83.182828      9506.1619      335.34672      14235.826      1.3449009      0.70181624   
     13700  -9105.5971     -9187.1452      81.548052      11773.003      328.75622      14213.92       1.3469736      0.70181624   
     13800  -9104.7562     -9186.0614      81.305199      11715.39       327.77717      14194.28       1.3488373      0.70181624   
     13900  -9105.0372     -9186.6806      81.643412      11989.288      329.14066      14181.562      1.3500469      0.70181624   
     14000  -9106.189      -9186.3495      80.160519      12353.148      323.16246      14173.269      1.3508369      0.65423341   
     14100  -9104.4108     -9185.0776      80.666797      9648.4269      325.20349      14175.314      1.350642       0.65423341   
     14200  -9105.9059     -9187.7139      81.807964      13062.833      329.80404      14187.152      1.349515       0.65423341   
     14300  -9105.2476     -9189.676       84.428357      11561.764      340.368        14208.087      1.3475266      0.65423341   
     14400  -9104.6617     -9184.0939      79.432188      10282.36       320.22624      14230.216      1.3454311      0.65423341   
     14500  -9103.2241     -9185.7394      82.515279      5619.6593      332.65554      14253.633      1.3432207      0.65423341   
     14600  -9102.969      -9184.6722      81.703215      8085.2036      329.38175      14273.274      1.3413723      0.65423341   
     14700  -9103.8196     -9185.9151      82.095476      8686.227       330.96313      14292.824      1.3395376      0.65423341   
     14800  -9103.1127     -9186.5203      83.407598      9265.2966      336.25287      14303.457      1.3385418      0.65423341   
     14900  -9102.4362     -9185.619       83.182801      10003.5        335.34661      14298.774      1.3389802      0.65423341   
     15000  -9102.4961     -9184.9095      82.413415      9248.1223      332.24488      14280.306      1.3407117      0.66367576   
     15100  -9101.0586     -9184.3857      83.327124      10516.937      335.92844      14257.461      1.34286        0.66367576   
     15200  -9100.8238     -9185.7253      84.90148       9574.2067      342.27537      14238.082      1.3446878      0.66367576   
     15300  -9103.1649     -9186.7594      83.594528      9567.6285      337.00647      14225.218      1.3459038      0.66367576   
     15400  -9104.4602     -9185.4331      80.972816      12271.104      326.43719      14218.306      1.3465581      0.66367576   
     15500  -9105.6913     -9188.0273      82.335978      9182.1864      331.9327       14217.204      1.3466625      0.66367576   
     15600  -9104.2997     -9185.4713      81.171661      12920.073      327.23882      14224.292      1.3459914      0.66367576   
     15700  -9106.219      -9187.6779      81.458884      9825.6063      328.39674      14238.685      1.3446309      0.66367576   
     15800  -9106.4061     -9189.0617      82.655633      7384.2501      333.22137      14252.907      1.3432891      0.66367576   
     15900  -9106.8397     -9187.3189      80.479223      8344.1923      324.4473       14263.64       1.3422783      0.66367576   
     16000  -9106.6455     -9188.5949      81.94936       8110.8616      330.37407      14267.721      1.3418943      0.7195573    
     16100  -9106.0588     -9187.6999      81.641086      6934.4586      329.13128      14258.464      1.3427656      0.7195573    
     16200  -9107.5354     -9186.0467      78.511276      9975.6287      316.51364      14241.994      1.3443184      0.7195573    
     16300  -9106.1678     -9186.3177      80.149932      9160.2875      323.11978      14225.697      1.3458585      0.7195573    
     16400  -9106.9193     -9185.986       79.066762      13225.091      318.75304      14212.144      1.3471419      0.7195573    
     16500  -9105.7452     -9187.7785      82.033287      9880.1533      330.71242      14205.255      1.3477952      0.7195573    
     16600  -9106.6042     -9188.2269      81.622715      10612.543      329.05722      14204.096      1.3479052      0.7195573    
     16700  -9105.2739     -9186.4069      81.132916      7839.3722      327.08262      14209.856      1.3473588      0.7195573    
     16800  -9105.3043     -9186.7561      81.451742      7058.2198      328.36795      14217.252      1.3466579      0.7195573    
     16900  -9105.6076     -9187.9707      82.363074      9113.9272      332.04193      14224.814      1.345942       0.7195573    
     17000  -9103.0674     -9186.6089      83.541506      9416.8681      336.79271      14231.612      1.3452991      0.86150429   
     17100  -9101.5911     -9186.2522      84.661105      8892.4576      341.30631      14237.165      1.3447744      0.86150429   
     17200  -9102.1931     -9184.5748      82.38175       10388.007      332.11722      14243.697      1.3441576      0.86150429   
     17300  -9103.4535     -9185.5829      82.129425      9545.3359      331.09999      14246.861      1.3438592      0.86150429   
     17400  -9101.4385     -9184.2695      82.830938      12724.741      333.9281       14246.577      1.343886       0.86150429   
     17500  -9100.9604     -9183.1667      82.206309      10530.589      331.40994      14247.828      1.3437679      0.86150429   
     17600  -9102.1132     -9183.8708      81.757632      7949.5825      329.60113      14251.326      1.3434381      0.86150429   
     17700  -9101.9946     -9184.1946      82.200025      7805.0326      331.38461      14252.951      1.343285       0.86150429   
     17800  -9101.2394     -9183.6487      82.409266      8043.6861      332.22815      14253.582      1.3432255      0.86150429   
     17900  -9102.7121     -9186.1982      83.486084      11440.705      336.56928      14254.754      1.343115       0.86150429   
     18000  -9104.6498     -9187.45        82.80022       8897.5954      333.80426      14256.956      1.3429076      0.62076252   
     18100  -9104.0137     -9187.6271      83.613349      7905.9367      337.08234      14257.487      1.3428576      0.62076252   
     18200  -9103.0364     -9187.0096      83.973143      12471.964      338.53283      14250.516      1.3435145      0.62076252   
     18300  -9101.6142     -9184.7716      83.157394      10193.75       335.24419      14236.807      1.3448082      0.62076252   
     18400  -9103.8824     -9183.0223      79.139981      10747.558      319.04822      14221.416      1.3462636      0.62076252   
     18500  -9101.8003     -9184.3844      82.584067      11682.224      332.93285      14211.285      1.3472234      0.62076252   
     18600  -9101.7853     -9183.4443      81.659002      10492.383      329.20351      14207.738      1.3475596      0.62076252   
     18700  -9102.2855     -9186.4979      84.212364      12085.881      339.49724      14209.918      1.3473529      0.62076252   
     18800  -9106.4648     -9186.6509      80.186029      11326.638      323.2653       14216.475      1.3467315      0.62076252   
     18900  -9108.3014     -9189.2795      80.978018      8811.6271      326.45816      14219.752      1.3464212      0.62076252   
     19000  -9104.6349     -9187.6118      82.97685       9977.9943      334.51634      14214.176      1.3469493      0.72322548   
     19100  -9104.966      -9185.2912      80.325179      10997.24       323.82628      14207.212      1.3476095      0.72322548   
     19200  -9104.0935     -9188.3965      84.30305       8205.938       339.86283      14200.983      1.3482006      0.72322548   
     19300  -9104.026      -9186.473       82.44701       10806.233      332.38032      14193.07       1.3489523      0.72322548   
     19400  -9102.9796     -9184.1417      81.162051      11518.37       327.20008      14193.409      1.3489201      0.72322548   
     19500  -9104.2767     -9188.6274      84.350701      7920.8224      340.05494      14206.471      1.3476798      0.72322548   
     19600  -9104.5795     -9185.6513      81.071818      7366.7089      326.83631      14224.782      1.3459451      0.72322548   
     19700  -9105.5408     -9186.4807      80.939933      10515.274      326.30462      14242.185      1.3443004      0.72322548   
     19800  -9105.5302     -9188.5461      83.015913      9438.6157      334.67382      14252.764      1.3433026      0.72322548   
     19900  -9105.3765     -9186.8762      81.49971       11132.439      328.56133      14258.683      1.3427449      0.72322548   
     20000  -9103.6382     -9184.5629      80.924728      10087.059      326.24332      14257.04       1.3428997      0.67824183   
     20100  -9104.2629     -9186.8608      82.597904      6317.1437      332.98864      14251.298      1.3434407      0.67824183   
     20200  -9100.8848     -9182.8491      81.964342      12457.72       330.43447      14247.478      1.3438009      0.67824183   
     20300  -9103.3069     -9186.466       83.159083      14936.298      335.251        14249.013      1.3436562      0.67824183   
     20400  -9104.7962     -9185.4345      80.638322      11289.65       325.08869      14248.879      1.3436689      0.67824183   
     20500  -9104.3109     -9188.4131      84.102124      9735.4865      339.05281      14245.333      1.3440033      0.67824183   
     20600  -9103.03       -9185.2834      82.25333       9495.0736      331.59951      14239.026      1.3445986      0.67824183   
     20700  -9105.0012     -9186.3077      81.306546      9188.7529      327.7826       14231.519      1.3453079      0.67824183   
     20800  -9104.1758     -9186.2572      82.081442      10958.82       330.90655      14221.852      1.3462223      0.67824183   
     20900  -9106.1403     -9188.067       81.926622      9508.6271      330.2824       14215.689      1.346806       0.67824183   
     21000  -9104.0433     -9184.7719      80.728601      9448.7341      325.45265      14213.79       1.3469859      0.68961341   
     21100  -9103.8328     -9187.0122      83.179403      9532.4208      335.33291      14219.27       1.3464668      0.68961341   
     21200  -9103.542      -9183.2007      79.658692      7521.3029      321.13938      14226.904      1.3457442      0.68961341   
     21300  -9102.6645     -9184.7118      82.047322      9880.2095      330.769        14238.247      1.3446722      0.68961341   
     21400  -9103.5696     -9185.0886      81.519006      9395.6169      328.63912      14251.68       1.3434047      0.68961341   
     21500  -9103.4898     -9185.3646      81.874818      10308.184      330.07356      14256.643      1.3429371      0.68961341   
     21600  -9103.3771     -9185.3237      81.946614      10870.431      330.363        14258.591      1.3427537      0.68961341   
     21700  -9100.8999     -9185.4558      84.555961      8267.7897      340.88243      14261.774      1.3424539      0.68961341   
     21800  -9102.8085     -9184.4077      81.59916       10888.822      328.96226      14266.636      1.3419965      0.68961341   
     21900  -9103.6055     -9184.4721      80.86661       10987.305      326.00903      14267.55       1.3419105      0.68961341   
     22000  -9103.879      -9185.3802      81.501182      6788.0989      328.56727      14262.286      1.3424057      0.65858732   
     22100  -9106.9894     -9189.8011      82.811729      6670.6821      333.85066      14249.143      1.3436439      0.65858732   
     22200  -9107.8692     -9186.3618      78.492586      8710.968       316.43829      14223.769      1.3460409      0.65858732   
     22300  -9108.6701     -9186.2364      77.566281      7765.2864      312.70394      14191.547      1.3490971      0.65858732   
     22400  -9110.2848     -9192.1549      81.870138      9842.4107      330.05469      14161.751      1.3519356      0.65858732   
     22500  -9108.5281     -9189.3986      80.870537      12716.864      326.02486      14135.672      1.3544298      0.65858732   
     22600  -9110.3774     -9191.3313      80.953913      8530.5785      326.36098      14120.069      1.3559264      0.65858732   
     22700  -9110.3868     -9189.6397      79.252917      12681.979      319.50352      14116.247      1.3562935      0.65858732   
     22800  -9108.3227     -9189.0034      80.680735      11036.189      325.25968      14126.849      1.3552757      0.65858732   
     22900  -9107.3754     -9189.0851      81.709713      11712.892      329.40795      14148.331      1.3532179      0.65858732   
     23000  -9105.3473     -9187.7142      82.366853      10211.575      332.05717      14177.673      1.3504173      0.68295936   
     23100  -9105.5937     -9186.3623      80.768646      10717.512      325.61409      14210.23       1.3473233      0.68295936   
     23200  -9105.4921     -9187.5007      82.008648      13310.096      330.61308      14240.297      1.3444786      0.68295936   
     23300  -9106.015      -9187.2084      81.193407      12255.007      327.32649      14259.068      1.3427087      0.68295936   
     23400  -9106.2128     -9185.6151      79.402325      11373.392      320.10585      14262.546      1.3423813      0.68295936   
     23500  -9104.8798     -9186.2153      81.335453      11524.943      327.89914      14259.107      1.3427051      0.68295936   
     23600  -9106.4801     -9186.3652      79.885072      11505.591      322.05201      14244.779      1.3440556      0.68295936   
     23700  -9110.9921     -9191.3182      80.326094      7878.0419      323.82997      14219.689      1.3464271      0.68295936   
     23800  -9110.3864     -9189.2945      78.908157      9495.8919      318.11364      14183.74       1.3498396      0.68295936   
     23900  -9111.617      -9189.2428      77.625841      11757.546      312.94406      14150.411      1.353019       0.68295936   
     24000  -9110.4572     -9191.501       81.043743      11478.16       326.72313      14126.72       1.355288       0.65497542   
     24100  -9108.1788     -9190.8931      82.714262      10449.043      333.45773      14116.485      1.3562707      0.65497542   
     24200  -9108.7175     -9189.0237      80.306225      12403.986      323.74987      14122.79       1.3556652      0.65497542   
     24300  -9108.0598     -9188.7429      80.68308       11822.971      325.26914      14143.537      1.3536765      0.65497542   
     24400  -9106.7789     -9188.0079      81.229011      11709.231      327.47002      14173.351      1.3508291      0.65497542   
     24500  -9106.5993     -9188.1401      81.540774      8808.7072      328.72688      14209.278      1.3474136      0.65497542   
     24600  -9106.0243     -9187.7475      81.723172      9041.053       329.4622       14246.6        1.3438838      0.65497542   
     24700  -9106.1795     -9187.5129      81.333425      6705.1089      327.89096      14280.277      1.3407145      0.65497542   
     24800  -9105.3477     -9187.8391      82.491388      7561.867       332.55922      14301.79       1.3386978      0.65497542   
     24900  -9106.213      -9188.0405      81.82752       7834.5719      329.88288      14302.896      1.3385943      0.65497542   
     25000  -9107.6004     -9189.1954      81.594972      7134.1321      328.94537      14281.752      1.3405761      0.80509512   
     25100  -9107.9449     -9188.7712      80.826235      6824.591       325.84625      14238.843      1.3446159      0.80509512   
     25200  -9107.357      -9188.391       81.034026      10362.293      326.68395      14182.064      1.3499992      0.80509512   
     25300  -9105.3593     -9184.9601      79.600813      10346.738      320.90604      14129.165      1.3550536      0.80509512   
     25400  -9106.0565     -9187.4582      81.401753      11983.157      328.16642      14095.047      1.3583335      0.80509512   
     25500  -9105.4704     -9188.2139      82.743507      11790.126      333.57563      14086.734      1.3591351      0.80509512   
     25600  -9107.0579     -9189.0047      81.946873      13094.386      330.36404      14106.349      1.3572452      0.80509512   
     25700  -9106.6951     -9187.8992      81.204135      11267.452      327.36974      14149.245      1.3531305      0.80509512   
     25800  -9105.5277     -9188.2669      82.739248      9445.8684      333.55846      14207.811      1.3475527      0.80509512   
     25900  -9104.0766     -9187.8197      83.743122      11048.148      337.60552      14273.969      1.341307       0.80509512   
     26000  -9102.4676     -9184.0479      81.580294      11027.048      328.8862       14331.912      1.3358842      0.66333013   
     26100  -9103.0412     -9184.5929      81.551645      7422.4742      328.7707       14375.805      1.3318054      0.66333013   
     26200  -9103.5287     -9185.5896      82.060862      8824.2106      330.82358      14399.126      1.3296484      0.66333013   
     26300  -9103.2783     -9186.0549      82.776619      7874.4128      333.70912      14391.958      1.3303107      0.66333013   
     26400  -9104.7095     -9184.6715      79.961963      9165.9738      322.362        14348.872      1.3343052      0.66333013   
     26500  -9103.9839     -9187.1291      83.145237      7689.2668      335.19518      14279.337      1.3408028      0.66333013   
     26600  -9104.7619     -9186.0799      81.318024      10081.404      327.82888      14197.425      1.3485385      0.66333013   
     26700  -9103.1222     -9186.1342      83.011986      14293.512      334.65798      14122.46       1.3556969      0.66333013   
     26800  -9103.7782     -9185.2084      81.430174      12268.77       328.281        14076.433      1.3601297      0.66333013   
     26900  -9104.3858     -9188.3516      83.965832      10488.895      338.50336      14067.908      1.360954       0.66333013   
     27000  -9105.2948     -9187.8962      82.601318      10827.977      333.0024       14095.388      1.3583006      0.61951587   
     27100  -9108.184      -9187.5302      79.346136      11298.823      319.87932      14150.83       1.3529789      0.61951587   
     27200  -9108.4636     -9188.331       79.867375      11460.43       321.98067      14215.556      1.3468185      0.61951587   
     27300  -9107.3085     -9188.589       81.280504      10723.8        327.67761      14274.17       1.3412882      0.61951587   
     27400  -9108.7308     -9189.2661      80.535304      8370.6306      324.67338      14314.895      1.3374723      0.61951587   
     27500  -9109.1781     -9188.0021      78.824009      8263.664       317.7744       14327.341      1.3363104      0.61951587   
     27600  -9109.0048     -9189.2123      80.207534      8457.3489      323.352        14311.174      1.33782        0.61951587   
     27700  -9107.2388     -9188.9608      81.721992      8737.085       329.45745      14269.278      1.3417479      0.61951587   
     27800  -9106.6612     -9185.7213      79.060138      8888.9592      318.72634      14214.94       1.3468769      0.61951587   
     27900  -9104.905      -9186.5911      81.686126      11147.243      329.31286      14160.472      1.3520577      0.61951587   
     28000  -9104.6184     -9188.4454      83.827003      11396.556      337.94368      14118.647      1.356063       0.71746362   
     28100  -9105.2331     -9188.0297      82.796578      12054.949      333.78958      14096.907      1.3581543      0.71746362   
     28200  -9104.4737     -9187.748       83.274337      8985.9254      335.71564      14098.394      1.358011       0.71746362   
     28300  -9105.7358     -9185.4811      79.745297      10955.711      321.48852      14125.146      1.3554391      0.71746362   
     28400  -9105.5975     -9188.4569      82.859399      12484.305      334.04284      14173.764      1.3507897      0.71746362   
     28500  -9107.7469     -9188.3369      80.589969      10848.003      324.89376      14226.04       1.345826       0.71746362   
     28600  -9106.4399     -9187.6415      81.20165       8385.6062      327.35972      14268.413      1.3418293      0.71746362   
     28700  -9104.1125     -9185.8811      81.768546      8157.5108      329.64513      14297.852      1.3390665      0.71746362   
     28800  -9104.9825     -9185.9966      81.014043      8513.6605      326.60339      14311.717      1.3377692      0.71746362   
     28900  -9103.9921     -9185.9723      81.980156      9161.8578      330.49822      14302.801      1.3386032      0.71746362   
     29000  -9105.8833     -9186.1564      80.273116      9295.4865      323.61639      14274.147      1.3412902      0.72654839   
     29100  -9104.534      -9185.2351      80.701123      8831.9645      325.34188      14231.345      1.3453243      0.72654839   
     29200  -9103.9603     -9186.3575      82.397155      9534.9772      332.17933      14182.569      1.3499511      0.72654839   
     29300  -9106.3728     -9185.1485      78.775727      11630.262      317.57975      14135.013      1.3544929      0.72654839   
     29400  -9106.1879     -9187.9169      81.728984      9457.2993      329.48564      14100.838      1.3577756      0.72654839   
     29500  -9105.769      -9187.4746      81.70559       9865.0134      329.39132      14084.987      1.3593037      0.72654839   
     29600  -9106.3339     -9186.3158      79.981979      11285.029      322.44269      14088.655      1.3589498      0.72654839   
     29700  -9106.4249     -9187.8966      81.471711      10422.365      328.44845      14111.547      1.3567453      0.72654839   
     29800  -9106.1967     -9188.9221      82.725461      11008.832      333.50288      14148.616      1.3531907      0.72654839   
     29900  -9106.0104     -9188.1055      82.095058      10961.423      330.96144      14195.333      1.3487372      0.72654839   
     30000  -9106.2578     -9187.671       81.413153      8508.7277      328.21238      14241.432      1.3443715      0.72298372   
     30100  -9105.8488     -9187.7338      81.885047      8476.1334      330.1148       14279.116      1.3408235      0.72298372   
     30200  -9107.6783     -9189.2129      81.534611      9800.0126      328.70203      14300.548      1.3388141      0.72298372   
     30300  -9106.7274     -9188.0095      81.28212       8951.7135      327.68413      14300.168      1.3388497      0.72298372   
     30400  -9105.1341     -9186.6142      81.480154      7894.925       328.48249      14277.288      1.3409952      0.72298372   
     30500  -9106.9131     -9186.2152      79.302071      8653.7728      319.70168      14236.829      1.3448062      0.72298372   
     30600  -9103.3784     -9185.1535      81.775094      6445.7275      329.67153      14187.646      1.349468       0.72298372   
     30700  -9101.8189     -9185.5349      83.715991      12648.842      337.49614      14149.607      1.3530959      0.72298372   
     30800  -9102.3981     -9186.069       83.670831      13524.351      337.31408      14132.342      1.3547489      0.72298372   
     30900  -9103.4322     -9186.5238      83.09166       13395.154      334.97918      14136.265      1.3543729      0.72298372   
     31000  -9104.2829     -9186.4899      82.207039      11667.753      331.41289      14161.342      1.3519746      0.66126908   
     31100  -9106.4166     -9186.6963      80.279707      11573.302      323.64296      14203.6        1.3479523      0.66126908   
     31200  -9107.1594     -9188.6216      81.462151      11370.419      328.40992      14251.092      1.3434602      0.66126908   
     31300  -9107.2685     -9186.9812      79.712691      7716.5698      321.35707      14294.108      1.3394173      0.66126908   
     31400  -9106.6583     -9186.4888      79.830514      7853.6342      321.83206      14317.183      1.3372585      0.66126908   
     31500  -9104.4967     -9187.4262      82.929574      10606.338      334.32575      14314.197      1.3375375      0.66126908   
     31600  -9104.199      -9186.4869      82.287926      10858.066      331.73898      14289.587      1.339841       0.66126908   
     31700  -9103.7246     -9184.1462      80.421604      10199.012      324.21501      14251.359      1.343435       0.66126908   
     31800  -9103.4099     -9185.2029      81.793035      9188.7501      329.74385      14208.365      1.3475002      0.66126908   
     31900  -9102.8631     -9186.7381      83.874975      11854.667      338.13708      14171.491      1.3510064      0.66126908   
     32000  -9102.912      -9185.2997      82.387652      11032.096      332.14102      14149.094      1.3531449      0.73151485   
     32100  -9102.7111     -9187.1456      84.43453       13340.407      340.39289      14145.863      1.3534539      0.73151485   
     32200  -9103.7304     -9187.1099      83.379524      12837.298      336.13969      14158.205      1.3522741      0.73151485   
     32300  -9106.7727     -9189.6209      82.848173      10888.778      333.99758      14186.211      1.3496045      0.73151485   
     32400  -9108.2599     -9188.2829      80.023019      10352.096      322.60814      14218.998      1.3464925      0.73151485   
     32500  -9106.8648     -9188.5161      81.651252      12207.033      329.17226      14246.012      1.3439393      0.73151485   
     32600  -9106.3391     -9186.5138      80.174746      10713.565      323.21982      14262.671      1.3423695      0.73151485   
     32700  -9107.513      -9187.4678      79.954795      6889.0032      322.3331       14265.661      1.3420881      0.73151485   
     32800  -9106.471      -9187.9428      81.471769      9390.9813      328.44869      14252.354      1.3433412      0.73151485   
     32900  -9104.5619     -9185.083       80.521025      10018.453      324.61582      14229.901      1.3454608      0.73151485   
     33000  -9105.6101     -9187.6966      82.086554      8756.7312      330.92716      14204.178      1.3478974      0.64158357   
     33100  -9106.7222     -9186.7574      80.0352        10188.646      322.65725      14179.171      1.3502747      0.64158357   
     33200  -9107.5067     -9188.6193      81.11261       12114.285      327.00076      14157.15       1.3523749      0.64158357   
     33300  -9108.2275     -9190.5547      82.327235      12668.58       331.89745      14142.47       1.3537787      0.64158357   
     33400  -9110.1013     -9187.8128      77.71157       11476.247      313.28966      14138.638      1.3541456      0.64158357   
     33500  -9110.7536     -9192.0355      81.281925      9172.6105      327.68334      14142.615      1.3537648      0.64158357   
     33600  -9109.2308     -9188.7494      79.518652      11015.988      320.57481      14153.505      1.3527232      0.64158357   
     33700  -9109.5322     -9190.0662      80.53395       10803.931      324.66793      14172.51       1.3509092      0.64158357   
     33800  -9108.056      -9188.3201      80.264111      8626.252       323.58009      14189.97       1.349247       0.64158357   
     33900  -9108.8877     -9188.3047      79.417006      9282.2634      320.16503      14200.387      1.3482572      0.64158357   
     34000  -9107.8516     -9189.0756      81.224072      9492.7688      327.45011      14206.166      1.3477088      0.70264783   
     34100  -9107.0055     -9187.9103      80.904748      8974.6092      326.16278      14198.712      1.3484162      0.70264783   
     34200  -9109.1597     -9188.5409      79.381201      9392.8875      320.02068      14181.72       1.3500319      0.70264783   
     34300  -9108.1917     -9187.4079      79.216256      9982.7585      319.35572      14160.399      1.3520646      0.70264783   
     34400  -9105.2564     -9185.6075      80.351163      10783.827      323.93103      14142.617      1.3537647      0.70264783   
     34500  -9105.4258     -9188.4031      82.977346      15515.23       334.51834      14136.663      1.3543348      0.70264783   
     34600  -9106.6931     -9188.4208      81.72773       7980.3286      329.48058      14146.541      1.3533892      0.70264783   
     34700  -9107.0522     -9189.0577      82.005531      7027.3648      330.60052      14167.869      1.3513517      0.70264783   
     34800  -9105.4859     -9185.272       79.786046      10824.044      321.6528       14195.569      1.3487148      0.70264783   
     34900  -9107.1565     -9189.4403      82.283752      10523          331.72215      14226.74       1.3457598      0.70264783   
     35000  -9105.9325     -9187.2126      81.280055      10682.611      327.67581      14255.627      1.3430328      0.68595854   
     35100  -9106.4913     -9189.2127      82.721462      9030.8451      333.48675      14272.322      1.3414618      0.68595854   
     35200  -9107.7839     -9186.8687      79.084768      8210.6466      318.82563      14270.969      1.341589       0.68595854   
     35300  -9106.3274     -9187.2679      80.940512      10405.533      326.30696      14254.022      1.3431841      0.68595854   
     35400  -9104.7943     -9189.6954      84.901125      11778.247      342.27394      14224.979      1.3459264      0.68595854   
     35500  -9104.9882     -9188.3091      83.320914      13698.397      335.90341      14190.986      1.3491504      0.68595854   
     35600  -9106.0912     -9187.4463      81.355115      12487.073      327.9784       14160.33       1.3520712      0.68595854   
     35700  -9105.5288     -9187.0031      81.474266      10086.655      328.45875      14142.238      1.3538009      0.68595854   
     35800  -9106.1604     -9188.1257      81.965252      11255.382      330.43814      14138.492      1.3541596      0.68595854   
     35900  -9106.4385     -9188.3226      81.884152      10113.825      330.11119      14145.287      1.3535091      0.68595854   
     36000  -9104.9819     -9187.6024      82.620488      8214.4574      333.07968      14163.879      1.3517325      0.6898564    
     36100  -9103.1294     -9186.5864      83.456964      9009.2351      336.45189      14195.291      1.3487413      0.6898564    
     36200  -9103.4254     -9184.881       81.455594      6520.0665      328.38348      14236.156      1.3448697      0.6898564    
     36300  -9102.7449     -9185.2732      82.528258      10205.484      332.70786      14280.661      1.3406785      0.6898564    
     36400  -9103.9262     -9186.141       82.214722      9571.6895      331.44386      14321.264      1.3368774      0.6898564    
     36500  -9103.6354     -9187.5235      83.888081      7239.7928      338.18991      14345.091      1.3346569      0.6898564    
     36600  -9103.2207     -9184.9267      81.706092      9265.3138      329.39335      14345.191      1.3346476      0.6898564    
     36700  -9101.7544     -9184.359       82.604639      9926.5975      333.01579      14327.395      1.3363054      0.6898564    
     36800  -9101.5571     -9185.1487      83.59157       11790.759      336.99454      14297.253      1.3391226      0.6898564    
     36900  -9100.6752     -9183.3475      82.672304      8152.8471      333.28858      14266.17       1.3420403      0.6898564    
     37000  -9101.7543     -9183.2503      81.496011      10310.362      328.54642      14236.535      1.3448339      0.74370406   
     37100  -9099.2768     -9182.7708      83.493992      13372.31       336.60116      14212.457      1.3471123      0.74370406   
     37200  -9099.4908     -9184.1856      84.694854      9740.411       341.44237      14202.043      1.3481         0.74370406   
     37300  -9100.2447     -9183.1761      82.931356      8216.145       334.33293      14208.869      1.3474524      0.74370406   
     37400  -9101.3324     -9184.5869      83.254491      12127.636      335.63563      14230.807      1.3453752      0.74370406   
     37500  -9103.0949     -9187.4924      84.397589      7776.6952      340.24396      14262.839      1.3423537      0.74370406   
     37600  -9102.6518     -9185.6757      83.023934      7270.6431      334.70615      14291.492      1.3396624      0.74370406   
     37700  -9099.7593     -9182.9836      83.224233      8555.6651      335.51365      14314.932      1.3374688      0.74370406   
     37800  -9099.2261     -9183.7147      84.488564      7934.9789      340.61072      14330.469      1.3360187      0.74370406   
     37900  -9102.3563     -9183.2132      80.856857      8802.8989      325.96971      14333.779      1.3357102      0.74370406   
     38000  -9100.5161     -9181.703       81.186899      8871.0038      327.30025      14326.152      1.3364213      0.71733398   
     38100  -9100.7215     -9186.0087      85.287264      8476.5901      343.83063      14313.11       1.3376391      0.71733398   
     38200  -9099.9497     -9182.9439      82.994186      8397.6577      334.58622      14290.46       1.3397591      0.71733398   
     38300  -9100.8607     -9185.86        84.999292      11060.768      342.66969      14263.361      1.3423046      0.71733398   
     38400  -9103.5265     -9185.6678      82.141306      10798.398      331.14789      14229.224      1.3455248      0.71733398   
     38500  -9102.8156     -9186.0686      83.253072      11331.32       335.62991      14200.139      1.3482808      0.71733398   
     38600  -9104.2228     -9185.8275      81.604732      9617.2775      328.98472      14185.836      1.3496402      0.71733398   
     38700  -9104.9583     -9188.3197      83.361447      10576.29       336.06681      14182.692      1.3499394      0.71733398   
     38800  -9103.8457     -9187.3459      83.500159      11560.458      336.62602      14191.548      1.349097       0.71733398   
     38900  -9107.1352     -9189.911       82.775867      11254.326      333.70609      14213.783      1.3469866      0.71733398   
     39000  -9104.949      -9186.3082      81.359246      11499.703      327.99506      14245.001      1.3440346      0.74983393   
     39100  -9103.6524     -9186.3916      82.739224      10307.718      333.55836      14279.683      1.3407703      0.74983393   
     39200  -9103.8861     -9185.875       81.988878      10079.719      330.53339      14307.39       1.3381738      0.74983393   
     39300  -9104.1727     -9185.8071      81.634401      10499.479      329.10433      14320.07       1.3369889      0.74983393   
     39400  -9105.2737     -9186.7953      81.521579      8737.2468      328.64949      14321.534      1.3368523      0.74983393   
     39500  -9105.1653     -9187.3629      82.197545      9420.508       331.37461      14305.748      1.3383274      0.74983393   
     39600  -9104.037      -9186.0793      82.042348      11797.256      330.74895      14272.721      1.3414243      0.74983393   
     39700  -9100.6794     -9184.5534      83.874021      11356.638      338.13323      14233.442      1.3451261      0.74983393   
     39800  -9101.0482     -9184.4859      83.437641      10720.277      336.37399      14201.208      1.3481793      0.74983393   
     39900  -9102.9157     -9184.0954      81.179669      11743.069      327.27111      14182.233      1.3499831      0.74983393   
     40000  -9104.37       -9186.1818      81.811729      11101.863      329.81922      14179.404      1.3502524      0.66862113   
     40100  -9105.4662     -9186.9976      81.531451      12990.43       328.68929      14191.248      1.3491255      0.66862113   
     40200  -9103.0195     -9185.7955      82.775961      11622.68       333.70646      14218.054      1.3465819      0.66862113   
     40300  -9103.6972     -9185.1612      81.46399       8953.4548      328.41733      14258.384      1.3427731      0.66862113   
     40400  -9101.5833     -9183.9056      82.322293      9619.7235      331.87753      14302.386      1.338642       0.66862113   
     40500  -9104.6351     -9185.5902      80.955147      5227.5516      326.36596      14345.229      1.334644       0.66862113   
     40600  -9103.8274     -9185.1293      81.301894      8254.3883      327.76385      14373.069      1.3320589      0.66862113   
     40700  -9106.0689     -9186.7855      80.716556      9616.2476      325.40409      14382.218      1.3312116      0.66862113   
     40800  -9106.6423     -9185.1772      78.534895      9796.9729      316.60885      14363.457      1.3329503      0.66862113   
     40900  -9104.0229     -9186.284       82.261043      10015.156      331.6306       14323.534      1.3366656      0.66862113   
     41000  -9103.0233     -9185.4862      82.46293       8548.7777      332.4445       14271.52       1.3415372      0.65319624   
     41100  -9103.4098     -9185.5174      82.107669      9440.0738      331.01228      14220.278      1.3463714      0.65319624   
     41200  -9100.873      -9185.1014      84.228445      9585.8562      339.56207      14177.567      1.3504274      0.65319624   
     41300  -9100.3405     -9184.6012      84.260742      14107.52       339.69227      14156.329      1.3524533      0.65319624   
     41400  -9101.9616     -9185.9885      84.026845      10164.762      338.74933      14163.874      1.3517329      0.65319624   
     41500  -9104.8291     -9186.5748      81.745787      7792.321       329.55338      14198.158      1.3484689      0.65319624   
     41600  -9106.3738     -9186.9544      80.580681      7380.8655      324.85632      14239.989      1.3445077      0.65319624   
     41700  -9107.6382     -9187.4129      79.774742      8896.4331      321.60722      14277.256      1.3409982      0.65319624   
     41800  -9107.6404     -9188.8997      81.259306      8061.4003      327.59216      14298.361      1.3390188      0.65319624   
     41900  -9105.7442     -9185.3985      79.654289      8770.3073      321.12162      14298.142      1.3390394      0.65319624   
     42000  -9105.023      -9186.2478      81.224793      9983.0969      327.45302      14282.456      1.34051        0.73641161   
     42100  -9104.3991     -9186.076       81.676894      11662.445      329.27564      14256.044      1.3429935      0.73641161   
     42200  -9103.6452     -9186.4209      82.775717      12540.134      333.70548      14223.133      1.346101       0.73641161   
     42300  -9102.7151     -9186.6385      83.9234        11771          338.3323       14191.648      1.3490875      0.73641161   
     42400  -9103.5669     -9186.0575      82.490586      13669.357      332.55599      14169.545      1.3511919      0.73641161   
     42500  -9102.6421     -9185.5378      82.895699      11813.827      334.18918      14161.147      1.3519932      0.73641161   
     42600  -9100.9628     -9184.5117      83.548924      11033.786      336.82262      14165.232      1.3516033      0.73641161   
     42700  -9103.5543     -9186.8514      83.297103      11809.354      335.80742      14184.279      1.3497884      0.73641161   
     42800  -9101.3331     -9187.0818      85.748619      9579.1305      345.69056      14209.921      1.3473526      0.73641161   
     42900  -9103.8473     -9185.328       81.480669      10607.761      328.48457      14241.216      1.3443918      0.73641161   
     43000  -9104.8975     -9187.5531      82.655556      11548.622      333.22106      14270.271      1.3416546      0.72690424   
     43100  -9101.8496     -9185.8308      83.981176      10266.187      338.56522      14290.533      1.3397523      0.72690424   
     43200  -9103.61       -9185.8192      82.209219      8672.3067      331.42167      14300.282      1.338839       0.72690424   
     43300  -9103.9742     -9186.5208      82.546683      8672.9734      332.78214      14296.777      1.3391672      0.72690424   
     43400  -9104.8486     -9187.4724      82.623794      12253.217      333.09301      14280.012      1.3407394      0.72690424   
     43500  -9102.7365     -9183.3685      80.632001      11811.125      325.06321      14252.43       1.3433341      0.72690424   
     43600  -9103.3103     -9187.8859      84.575618      8055.8504      340.96168      14219.64       1.3464317      0.72690424   
     43700  -9101.9047     -9185.1606      83.255893      10671.185      335.64128      14190.239      1.3492214      0.72690424   
     43800  -9100.9665     -9185.552       84.585506      14584.173      341.00154      14177.905      1.3503952      0.72690424   
     43900  -9104.1879     -9187.1635      82.975516      11664.176      334.51096      14183.164      1.3498945      0.72690424   
     44000  -9105.3057     -9186.8242      81.518579      10469.887      328.6374       14198.944      1.3483943      0.71817716   
     44100  -9106.4571     -9187.4048      80.947695      11049.904      326.33591      14221.024      1.3463007      0.71817716   
     44200  -9106.5544     -9187.9478      81.393375      10322.62       328.13265      14241.238      1.3443898      0.71817716   
     44300  -9105.5941     -9186.1771      80.583055      7215.9666      324.86589      14256.931      1.3429099      0.71817716   
     44400  -9105.9735     -9187.9452      81.971668      9305.8513      330.464        14265.442      1.3421087      0.71817716   
     44500  -9105.7093     -9186.3244      80.615056      9377.919       324.9949       14259.426      1.342675       0.71817716   
     44600  -9103.3156     -9185.6406      82.325028      12000.253      331.88855      14247.263      1.3438212      0.71817716   
     44700  -9103.2335     -9185.8561      82.622606      9860.2986      333.08822      14234.211      1.3450535      0.71817716   
     44800  -9102.8683     -9184.299       81.4307        10397.566      328.28312      14224.483      1.3459734      0.71817716   
     44900  -9102.8573     -9186.6672      83.809947      11211.375      337.87492      14222.118      1.3461971      0.71817716   
     45000  -9100.5543     -9186.3067      85.75244       11161.126      345.70597      14231.928      1.3452692      0.7286567    
     45100  -9100.6416     -9183.9139      83.272282      13727.604      335.70735      14251.165      1.3434533      0.7286567    
     45200  -9102.8664     -9187.6034      84.737051      11715.913      341.61248      14278.213      1.3409083      0.7286567    
     45300  -9106.003      -9186.0772      80.074203      10784.381      322.81448      14298.225      1.3390316      0.7286567    
     45400  -9104.9121     -9186.2145      81.302491      7784.1242      327.76626      14305.281      1.3383711      0.7286567    
     45500  -9106.0049     -9189.2087      83.203755      7849.0898      335.43109      14297.295      1.3391187      0.7286567    
     45600  -9107.6393     -9186.8572      79.217843      11429.456      319.36212      14275.589      1.3411548      0.7286567    
     45700  -9107.0693     -9188.8878      81.818489      9738.8727      329.84647      14244.688      1.3440642      0.7286567    
     45800  -9106.2949     -9188.4463      82.151335      10315.157      331.18832      14203.234      1.347987       0.7286567    
     45900  -9107.3902     -9188.8185      81.428274      9416.2002      328.27334      14163.782      1.3517417      0.7286567    
     46000  -9107.3033     -9187.5412      80.237934      15096.556      323.47456      14137.786      1.3542273      0.64763034   
     46100  -9107.2441     -9188.2474      81.003342      11731.022      326.56025      14134.273      1.3545638      0.64763034   
     46200  -9107.8771     -9187.2838      79.406732      11699.503      320.12361      14145.099      1.3535271      0.64763034   
     46300  -9107.6986     -9188.3053      80.606663      10045.367      324.96106      14167.504      1.3513866      0.64763034   
     46400  -9105.9252     -9187.4407      81.515494      11869.832      328.62496      14203.492      1.3479625      0.64763034   
     46500  -9107.2328     -9187.6053      80.372558      8255.7828      324.01728      14245.874      1.3439523      0.64763034   
     46600  -9105.9679     -9186.3001      80.332249      8147.2468      323.85478      14281.447      1.3406047      0.64763034   
     46700  -9106.3482     -9188.7044      82.356228      10148.833      332.01433      14304.388      1.3384547      0.64763034   
     46800  -9104.9028     -9186.3304      81.427556      8355.879       328.27045      14310.567      1.3378768      0.64763034   
     46900  -9107.1726     -9187.9195      80.746952      10237.177      325.52663      14294.756      1.3393565      0.64763034   
     47000  -9107.5903     -9187.8941      80.303751      8645.0539      323.73989      14254.827      1.3431082      0.77375656   
     47100  -9107.3441     -9188.4244      81.080297      6416.9134      326.87049      14198.764      1.3484114      0.77375656   
     47200  -9105.9495     -9186.9343      80.984724      9299.4771      326.4852       14144.38       1.3535959      0.77375656   
     47300  -9103.4334     -9187.5778      84.144367      11927.702      339.22311      14106.607      1.3572204      0.77375656   
     47400  -9106.3361     -9187.2116      80.875438      12380.691      326.04462      14089.16       1.3589011      0.77375656   
     47500  -9105.5376     -9188.3352      82.797625      13847.227      333.7938       14095.491      1.3582907      0.77375656   
     47600  -9104.2433     -9186.8268      82.58347       11041.219      332.93044      14123.78       1.3555702      0.77375656   
     47700  -9103.4121     -9186.9234      83.511261      10848.916      336.67078      14170.609      1.3510904      0.77375656   
     47800  -9101.1782     -9183.6092      82.430934      12417.952      332.31551      14228.372      1.3456054      0.77375656   
     47900  -9102.4042     -9184.9456      82.541452      10227.854      332.76106      14288.955      1.3399003      0.77375656   
     48000  -9104.173      -9185.9727      81.799673      6546.8583      329.77061      14334.763      1.3356185      0.68492283   
     48100  -9104.7914     -9187.2728      82.481397      8748.2806      332.51895      14354.367      1.3337944      0.68492283   
     48200  -9104.6739     -9185.6002      80.926349      7679.598       326.24986      14348.639      1.3343269      0.68492283   
     48300  -9104.5433     -9186.3194      81.776161      10608.191      329.67583      14319.621      1.3370309      0.68492283   
     48400  -9102.751      -9185.8962      83.145145      9531.2463      335.19481      14276.408      1.3410779      0.68492283   
     48500  -9102.3485     -9185.523       83.174494      9989.1959      335.31312      14229.225      1.3455248      0.68492283   
     48600  -9099.2074     -9183.4071      84.199654      11016.821      339.446        14186.808      1.3495478      0.68492283   
     48700  -9101.3319     -9185.9994      84.667559      10186.649      341.33233      14161.225      1.3519857      0.68492283   
     48800  -9101.7898     -9186.4394      84.649607      11716.504      341.25996      14156.581      1.3524292      0.68492283   
     48900  -9100.6109     -9184.8935      84.282646      12123.859      339.78058      14169.797      1.3511679      0.68492283   
     49000  -9100.0753     -9184.3552      84.279895      10527.26       339.76949      14202.48       1.3480585      0.66769626   
     49100  -9102.8833     -9184.3981      81.514843      8920.8852      328.62234      14245.106      1.3440248      0.66769626   
     49200  -9104.1041     -9187.5639      83.459793      9935.1484      336.46329      14287.094      1.3400748      0.66769626   
     49300  -9106.8972     -9188.3511      81.453856      8953.129       328.37648      14312.366      1.3377085      0.66769626   
     49400  -9106.4501     -9187.0684      80.618274      5680.9155      325.00787      14313.518      1.3376009      0.66769626   
     49500  -9106.3459     -9185.6588      79.312903      4382.9087      319.74534      14291.441      1.3396672      0.66769626   
     49600  -9106.8308     -9187.7434      80.912619      8960.5862      326.19451      14255.551      1.3430399      0.66769626   
     49700  -9107.6944     -9187.2415      79.547122      9784.9956      320.68959      14213.321      1.3470304      0.66769626   
     49800  -9104.0942     -9186.4311      82.33694       11537.621      331.93657      14172.311      1.3509282      0.66769626   
     49900  -9101.6001     -9184.7131      83.11302       10671.206      335.0653       14146.646      1.3533791      0.66769626   
     50000  -9102.7699     -9183.9688      81.198901      12363.174      327.34864      14142.52       1.3537739      0.67079303   
     50100  -9103.7659     -9185.9824      82.216562      10573.164      331.45128      14160.827      1.3520238      0.67079303   
     50200  -9104.1483     -9187.6087      83.460354      13567.978      336.46555      14196.579      1.3486189      0.67079303   
     50300  -9102.1894     -9184.9239      82.734439      10928.731      333.53907      14244.025      1.3441267      0.67079303   
     50400  -9103.4148     -9186.6633      83.248451      11405.798      335.61128      14291.373      1.3396736      0.67079303   
     50500  -9103.5682     -9186.3288      82.760608      9387.7389      333.64457      14326.488      1.3363899      0.67079303   
     50600  -9105.9108     -9188.1633      82.252508      9309.9113      331.59619      14347.256      1.3344555      0.67079303   
     50700  -9105.479      -9186.4819      81.002926      7610.3959      326.55858      14343.743      1.3347824      0.67079303   
     50800  -9104.8733     -9185.8739      81.000614      6807.2052      326.54925      14320.576      1.3369416      0.67079303   
     50900  -9105.0855     -9186.36        81.274548      7605.5511      327.6536       14282.803      1.3404774      0.67079303   
     51000  -9102.5799     -9185.8666      83.286683      8910.2888      335.76541      14238.925      1.3446081      0.71559803   
     51100  -9102.3241     -9185.9758      83.651702      7865.1405      337.23696      14202.228      1.3480824      0.71559803   
     51200  -9105.1551     -9185.965       80.809901      12536.312      325.7804       14176.296      1.3505484      0.71559803   
     51300  -9103.9634     -9185.4924      81.529012      11714.969      328.67946      14165.183      1.351608       0.71559803   
     51400  -9104.6865     -9187.491       82.804417      9880.9146      333.82118      14173.205      1.350843       0.71559803   
     51500  -9104.8763     -9187.325       82.448602      10090.268      332.38673      14193.51       1.3489105      0.71559803   
     51600  -9104.8788     -9186.3409      81.462156      8174.2312      328.40993      14227.265      1.3457101      0.71559803   
     51700  -9106.6501     -9186.8029      80.152831      9047.942       323.13147      14263.449      1.3422963      0.71559803   
     51800  -9105.2628     -9186.0246      80.761848      10969.222      325.58668      14291.007      1.3397079      0.71559803   
     51900  -9104.296      -9186.0612      81.765137      9376.4894      329.63139      14308.362      1.3380829      0.71559803   
     52000  -9104.8952     -9185.4451      80.549848      10523.129      324.73202      14311.881      1.3377539      0.68589239   
     52100  -9104.4046     -9186.2632      81.858595      11191.805      330.00816      14297.542      1.3390956      0.68589239   
     52200  -9103.6306     -9184.444       80.813417      9742.724       325.79458      14270.407      1.3416418      0.68589239   
     52300  -9104.0835     -9186.3703      82.286854      10647.665      331.73466      14231.861      1.3452756      0.68589239   
     52400  -9103.7232     -9186.3002      82.576943      9830.3223      332.90413      14190.653      1.3491821      0.68589239   
     52500  -9103.1699     -9184.2639      81.093957      10568.232      326.92556      14154.89       1.3525908      0.68589239   
     52600  -9103.012      -9184.8351      81.823113      12475.225      329.86511      14138.03       1.3542038      0.68589239   
     52700  -9105.2293     -9187.3455      82.116204      10622.799      331.04669      14142.265      1.3537983      0.68589239   
     52800  -9106.2196     -9187.998       81.778345      10235.721      329.68463      14163.261      1.3517914      0.68589239   
     52900  -9106.0846     -9187.9829      81.898276      11056.336      330.16813      14200.677      1.3482297      0.68589239   
     53000  -9107.2519     -9186.3019      79.050009      9294.4088      318.6855       14249.026      1.343655       0.71556437   
     53100  -9105.6005     -9186.1998      80.599252      9626.6942      324.93119      14295.122      1.3393222      0.71556437   
     53200  -9104.9737     -9187.0996      82.125942      9128.7096      331.08595      14325.204      1.3365098      0.71556437   
     53300  -9103.267      -9183.9832      80.716161      7936.4806      325.4025       14336.284      1.3354768      0.71556437   
     53400  -9103.138      -9185.3223      82.184334      6102.4135      331.32135      14332.076      1.3358689      0.71556437   
     53500  -9103.8542     -9186.0017      82.147502      8003.4802      331.17287      14311.301      1.3378081      0.71556437   
     53600  -9102.3553     -9185.9768      83.6215        11236.829      337.1152       14273.13       1.3413858      0.71556437   
     53700  -9103.2888     -9183.8593      80.570467      10589.734      324.81514      14226.77       1.345757       0.71556437   
     53800  -9102.2196     -9183.7373      81.517672      12608.548      328.63374      14188.741      1.3493639      0.71556437   
     53900  -9100.5089     -9185.113       84.60407       11514.415      341.07638      14166.99       1.3514356      0.71556437   
     54000  -9100.6144     -9184.2561      83.641692      11371.057      337.19661      14169.329      1.3512125      0.67104716   
     54100  -9101.2067     -9182.7718      81.565049      12773.694      328.82474      14197.379      1.3485429      0.67104716   
     54200  -9100.7423     -9181.5814      80.839106      7127.2798      325.89815      14246.732      1.3438713      0.67104716   
     54300  -9102.579      -9185.4902      82.911235      8962.2466      334.25181      14305.439      1.3383563      0.67104716   
     54400  -9104.5583     -9185.0857      80.52744       9197.1603      324.64168      14355.307      1.3337071      0.67104716   
     54500  -9106.1774     -9187.4722      81.294868      9328.9554      327.73552      14380.279      1.331391       0.67104716   
     54600  -9105.0578     -9185.5197      80.461925      9024.2924      324.37756      14373.898      1.3319821      0.67104716   
     54700  -9105.0426     -9186.2367      81.194163      11200.081      327.32954      14340.695      1.335066       0.67104716   
     54800  -9104.774      -9185.9622      81.188295      8548.6741      327.30588      14296.016      1.3392385      0.67104716   
     54900  -9104.0964     -9185.0258      80.929349      9752.44        326.26195      14244.495      1.3440823      0.67104716   
     55000  -9104.7374     -9186.97        82.232579      10496.111      331.51585      14197.614      1.3485206      0.66002947   
     55100  -9102.5621     -9185.6145      83.052396      8963.9127      334.8209       14163.387      1.3517794      0.66002947   
     55200  -9100.7302     -9184.6542      83.924055      10499.893      338.33494      14149.041      1.35315        0.66002947   
     55300  -9100.6556     -9184.6566      84.000998      8909.7086      338.64513      14161.684      1.3519419      0.66002947   
     55400  -9102.7989     -9185.0089      82.210087      9425.0683      331.42517      14194.648      1.3488024      0.66002947   
     55500  -9103.3926     -9185.2341      81.841486      9467.4404      329.93918      14234.242      1.3450505      0.66002947   
     55600  -9105.2372     -9186.4249      81.187763      9846.7574      327.30374      14268.167      1.3418525      0.66002947   
     55700  -9105.4127     -9183.8187      78.405986      6419.176       316.08916      14289.217      1.3398757      0.66002947   
     55800  -9103.8765     -9185.7605      81.883944      6661.3592      330.11035      14295.388      1.3392973      0.66002947   
     55900  -9103.0956     -9185.3069      82.211256      9784.9527      331.42989      14287.641      1.3400235      0.66002947   
     56000  -9104.7323     -9187.7756      83.043326      11789.813      334.78433      14270.919      1.3415936      0.63138709   
     56100  -9105.489      -9188.9633      83.47431       12104.613      336.52182      14248.255      1.3437276      0.63138709   
     56200  -9105.4228     -9188.2619      82.839045      10317.322      333.96078      14219.688      1.3464272      0.63138709   
     56300  -9103.018      -9184.6037      81.585644      12535.884      328.90777      14193.943      1.3488694      0.63138709   
     56400  -9103.8065     -9185.9148      82.108382      11663.176      331.01516      14182.264      1.3499802      0.63138709   
     56500  -9102.1119     -9188.4249      86.31303       7785.4108      347.96595      14188.461      1.3493905      0.63138709   
     56600  -9103.4169     -9185.9236      82.506747      8586.3754      332.62114      14207.546      1.3475779      0.63138709   
     56700  -9103.5209     -9186.7302      83.209281      12283.413      335.45337      14237.482      1.3447444      0.63138709   
     56800  -9102.7524     -9184.8786      82.126237      6103.8353      331.08714      14271.912      1.3415004      0.63138709   
     56900  -9101.2137     -9186.2282      85.01452       8940.2896      342.73108      14306.892      1.3382204      0.63138709   
     57000  -9102.2722     -9183.4847      81.212485      7590.2194      327.4034       14338.954      1.3352281      0.72016596   
     57100  -9103.0329     -9186.5951      83.562237      8292.9636      336.87629      14359.519      1.3333159      0.72016596   
     57200  -9102.0368     -9184.4249      82.38807       8602.3519      332.1427       14359.796      1.3332901      0.72016596   
[...]
    386300  -9104.3089     -9186.2295      81.920507      9616.2697      330.25775      14215.535      1.3468205      0.70809275   
    386400  -9104.5986     -9187.1703      82.571707      9883.4597      332.88303      14215.582      1.3468161      0.70809275   
    386500  -9106.2362     -9186.7636      80.527387      12003.434      324.64147      14219.444      1.3464503      0.70809275   
    386600  -9103.4023     -9186.799       83.396668      8481.0646      336.20881      14231.542      1.3453057      0.70809275   
    386700  -9102.6949     -9186.4786      83.783662      11524.443      337.76895      14246.624      1.3438815      0.70809275   
    386800  -9104.4386     -9188.4358      83.997137      12262.377      338.62956      14257.052      1.3428986      0.70809275   
    386900  -9103.0164     -9187.3424      84.326         10742.568      339.95535      14261.404      1.3424888      0.70809275   
    387000  -9106.1027     -9187.8199      81.71726       9660.1416      329.43837      14259.214      1.342695       0.69953366   
    387100  -9107.9242     -9187.4433      79.519089      7245.469       320.57657      14252.254      1.3433507      0.69953366   
    387200  -9105.6328     -9186.4651      80.832309      7597.431       325.87074      14239.281      1.3445746      0.69953366   
    387300  -9107.2269     -9189.4566      82.229717      10144.219      331.50431      14224.931      1.345931       0.69953366   
    387400  -9107.441      -9185.7059      78.264908      10390.626      315.52042      14217.112      1.3466711      0.69953366   
    387500  -9109.4981     -9189.4811      79.983075      11346.861      322.44711      14214.027      1.3469635      0.69953366   
    387600  -9108.0682     -9190.5218      82.453539      9200.1219      332.40664      14211.779      1.3471765      0.69953366   
    387700  -9108.4077     -9186.9632      78.555545      7658.0135      316.6921       14208.945      1.3474451      0.69953366   
    387800  -9106.349      -9187.8494      81.500426      7352.3867      328.56422      14206.988      1.3476308      0.69953366   
    387900  -9106.3572     -9186.782       80.424757      11331.341      324.22772      14212.32       1.3471252      0.69953366   
    388000  -9106.9699     -9186.2573      79.287419      13570.2        319.64261      14227.219      1.3457145      0.69513434   
    388100  -9110.0863     -9191.331       81.244698      10618.793      327.53326      14245.02       1.3440329      0.69513434   
    388200  -9107.8485     -9187.5657      79.717204      9373.1706      321.37526      14255.01       1.343091       0.69513434   
    388300  -9106.6481     -9188.162       81.513905      8589.8721      328.61856      14262.562      1.3423797      0.69513434   
    388400  -9107.5969     -9188.6006      81.003636      10930.274      326.56144      14266.644      1.3419957      0.69513434   
    388500  -9104.6192     -9188.0867      83.467498      10093.168      336.49435      14264.848      1.3421647      0.69513434   
    388600  -9104.3277     -9186.5794      82.251724      9641.1718      331.59303      14256.887      1.3429141      0.69513434   
    388700  -9104.1611     -9184.5788      80.417723      11920.694      324.19936      14250.839      1.3434841      0.69513434   
    388800  -9105.6613     -9187.2985      81.637193      10910.554      329.11559      14249.699      1.3435916      0.69513434   
    388900  -9104.0074     -9186.502       82.494605      9287.7824      332.57219      14248.082      1.343744       0.69513434   
    389000  -9103.9605     -9185.9256      81.965082      10879.026      330.43745      14247.841      1.3437667      0.68958613   
    389100  -9104.7012     -9184.1234      79.422208      9511.2317      320.186        14248.667      1.3436888      0.68958613   
    389200  -9105.4429     -9184.8981      79.455227      7596.2983      320.31912      14251.096      1.3434598      0.68958613   
    389300  -9104.2121     -9188.4683      84.256128      7908.819       339.67367      14252.924      1.3432875      0.68958613   
    389400  -9103.6453     -9184.772       81.126666      9694.2799      327.05743      14251.742      1.3433989      0.68958613   
    389500  -9101.5339     -9186.4513      84.917417      9092.8113      342.33962      14251.631      1.3434093      0.68958613   
    389600  -9101.5414     -9183.8048      82.263414      9591.1272      331.64016      14254.274      1.3431603      0.68958613   
    389700  -9102.5249     -9186.8133      84.288439      12335.07       339.80393      14262.924      1.3423457      0.68958613   
    389800  -9102.6843     -9185.3818      82.69751       10500.936      333.39019      14273.21       1.3413784      0.68958613   
    389900  -9101.0836     -9184.7973      83.713671      9883.6235      337.48679      14282.999      1.340459       0.68958613   
    390000  -9102.4003     -9185.7897      83.389438      7699.1645      336.17966      14291.353      1.3396755      0.65800987   
    390100  -9102.6786     -9184.5311      81.852545      10921.967      329.98376      14291.323      1.3396783      0.65800987   
    390200  -9102.2098     -9184.4886      82.278869      8534.3435      331.70247      14287.837      1.3400052      0.65800987   
    390300  -9103.4897     -9183.8736      80.383872      7452.2267      324.0629       14285.602      1.3402148      0.65800987   
    390400  -9103.1653     -9187.7764      84.611109      9348.9488      341.10475      14281.566      1.3405935      0.65800987   
    390500  -9101.9906     -9184.1491      82.158497      8384.5971      331.21719      14270.435      1.3416392      0.65800987   
    390600  -9103.1057     -9184.0281      80.922419      9978.4532      326.23402      14261.824      1.3424492      0.65800987   
    390700  -9102.6449     -9184.9118      82.266902      10238.066      331.65422      14261.316      1.3424971      0.65800987   
    390800  -9102.2625     -9184.8996      82.637138      7210.5872      333.14681      14268.273      1.3418425      0.65800987   
    390900  -9102.4406     -9185.8592      83.418638      9704.0563      336.29738      14277.757      1.3409511      0.65800987   
    391000  -9103.7206     -9184.9306      81.209959      9699.7883      327.39322      14289.135      1.3398834      0.62684457   
    391100  -9102.0531     -9184.3444      82.291247      9900.7976      331.75237      14296.089      1.3392316      0.62684457   
    391200  -9100.3699     -9185.6313      85.26136       11324.081      343.72621      14303.516      1.3385362      0.62684457   
    391300  -9101.4196     -9184.5721      83.1525        10796.986      335.22446      14309.269      1.3379981      0.62684457   
    391400  -9101.7492     -9185.6927      83.943504      10044.464      338.41334      14315.189      1.3374448      0.62684457   
    391500  -9100.6656     -9183.9977      83.332099      11243.065      335.9485       14317.791      1.3372017      0.62684457   
    391600  -9100.8711     -9184.956       84.084854      8828.0525      338.98319      14318.35       1.3371495      0.62684457   
    391700  -9101.3837     -9185.6035      84.21982       6389.589       339.5273       14317.19       1.3372579      0.62684457   
    391800  -9102.1916     -9183.604       81.412429      11141.187      328.20946      14315.967      1.3373721      0.62684457   
    391900  -9103.5596     -9184.0227      80.463168      11359.551      324.38257      14311.247      1.3378132      0.62684457   
    392000  -9101.5593     -9186.1624      84.603124      12507.889      341.07257      14298.979      1.3389609      0.65210226   
    392100  -9102.9464     -9182.3295      79.383049      10454.471      320.02814      14287.01       1.3400827      0.65210226   
    392200  -9102.9325     -9183.3979      80.465474      9387.2584      324.39187      14275.286      1.3411833      0.65210226   
    392300  -9102.7536     -9186.7463      83.992652      9161.9293      338.61148      14266.528      1.3420066      0.65210226   
    392400  -9099.9294     -9184.2651      84.335697      11467.619      339.99445      14263.633      1.342279       0.65210226   
    392500  -9099.6227     -9184.429       84.806327      10325.668      341.89177      14271.784      1.3415124      0.65210226   
    392600  -9099.3348     -9182.0377      82.702954      8759.4726      333.41214      14293.238      1.3394988      0.65210226   
    392700  -9099.5911     -9182.4583      82.867222      9653.8209      334.07438      14323.266      1.3366906      0.65210226   
    392800  -9102.7591     -9186.7725      84.013367      9802.6883      338.69499      14349.94       1.3342059      0.65210226   
    392900  -9104.2079     -9185.5436      81.335684      8479.7383      327.90007      14362.225      1.3330646      0.65210226   
    393000  -9104.6427     -9187.0534      82.410614      8912.0425      332.23359      14356.103      1.3336331      0.63183178   
    393100  -9104.299      -9184.1485      79.849508      9480.4695      321.90864      14333.033      1.3357797      0.63183178   
    393200  -9106.6878     -9186.6197      79.931908      8743.9576      322.24083      14295.947      1.339245       0.63183178   
    393300  -9107.9075     -9189.4195      81.511972      10415.243      328.61077      14248.592      1.3436959      0.63183178   
    393400  -9106.0621     -9185.5557      79.493612      11693.796      320.47387      14197.469      1.3485343      0.63183178   
    393500  -9104.73       -9187.4809      82.750951      11274.274      333.60564      14159.331      1.3521666      0.63183178   
    393600  -9104.4022     -9187.5143      83.112057      9726.4859      335.06141      14141.051      1.3539145      0.63183178   
    393700  -9105.1745     -9188.8223      83.647758      9965.2943      337.22106      14150.109      1.3530478      0.63183178   
    393800  -9106.8416     -9186.5513      79.709675      13490.051      321.34491      14187.359      1.3494954      0.63183178   
    393900  -9106.2091     -9187.5573      81.348196      10894.952      327.95051      14240.401      1.3444688      0.63183178   
    394000  -9105.7666     -9185.0485      79.28187       9116.216       319.62024      14298.179      1.3390359      0.63838808   
    394100  -9105.1623     -9185.2452      80.082954      8496.3741      322.84976      14349.829      1.3342162      0.63838808   
    394200  -9105.9369     -9187.2068      81.269935      8136.8171      327.63501      14387.122      1.3307578      0.63838808   
    394300  -9106.131      -9187.2632      81.132256      11321.881      327.07996      14401.066      1.3294693      0.63838808   
    394400  -9106.2564     -9186.2289      79.972466      8322.979       322.40434      14388.669      1.3306147      0.63838808   
    394500  -9105.4235     -9184.8741      79.450681      7367.9306      320.30079      14347.793      1.3344055      0.63838808   
    394600  -9106.1961     -9190.2435      84.047395      8750.7236      338.83217      14284.179      1.3403483      0.63838808   
    394700  -9106.1412     -9186.2989      80.15767       11412.673      323.15097      14210.301      1.3473166      0.63838808   
    394800  -9105.7634     -9186.7919      81.028526      11276.278      326.66178      14149.376      1.3531179      0.63838808   
    394900  -9105.411      -9188.8815      83.47056       11381.138      336.5067       14111.142      1.3567842      0.63838808   
    395000  -9107.5607     -9187.4883      79.927615      10783.514      322.22352      14109.099      1.3569807      0.65988752   
    395100  -9107.3592     -9185.9454      78.586183      11087.544      316.81562      14143.22       1.3537069      0.65988752   
    395200  -9108.5413     -9189.0471      80.505732      9664.903       324.55417      14206.348      1.3476915      0.65988752   
    395300  -9109.3814     -9189.725       80.343602      10959.336      323.90055      14276.627      1.3410573      0.65988752   
    395400  -9108.1036     -9188.0766      79.972976      7765.4539      322.40639      14335.953      1.3355077      0.65988752   
    395500  -9106.824      -9185.2562      78.43222       6908.0843      316.19493      14373.423      1.3320261      0.65988752   
    395600  -9106.513      -9189.127       82.614074      10954.796      333.05382      14383.29       1.3311124      0.65988752   
    395700  -9106.6883     -9187.7666      81.078331      10153.316      326.86257      14366.147      1.3327008      0.65988752   
    395800  -9106.2831     -9185.5044      79.221295      8055.6646      319.37604      14326.261      1.3364112      0.65988752   
    395900  -9105.5378     -9187.0035      81.465749      11386.48       328.42442      14272.584      1.3414372      0.65988752   
    396000  -9105.1552     -9186.4955      81.340374      9680.6347      327.91898      14217.086      1.3466737      0.69159748   
    396100  -9103.0381     -9185.3083      82.270194      11430.914      331.66749      14173.113      1.3508517      0.69159748   
    396200  -9104.2306     -9186.6174      82.386811      8402.3384      332.13763      14154.015      1.3526744      0.69159748   
    396300  -9104.5436     -9186.154       81.610319      9964.8086      329.00724      14158.587      1.3522377      0.69159748   
    396400  -9104.8302     -9187.3595      82.529241      11276.291      332.71183      14179.5        1.3502433      0.69159748   
    396500  -9106.0803     -9186.2356      80.155259      11224.977      323.14126      14214.482      1.3469203      0.69159748   
    396600  -9105.0703     -9189.3841      84.313739      9932.2504      339.90593      14255.38       1.3430561      0.69159748   
    396700  -9104.7761     -9186.579       81.802913      9597.8636      329.78368      14291.55       1.339657       0.69159748   
    396800  -9103.7413     -9184.6223      80.881021      10711.225      326.06712      14321.915      1.3368167      0.69159748   
    396900  -9103.5161     -9185.3419      81.825829      11835.735      329.87606      14341.58       1.3349837      0.69159748   
    397000  -9103.9348     -9185.8732      81.9384        8460.1944      330.32989      14345.94       1.3345779      0.62578521   
    397100  -9104.2798     -9185.178       80.898196      9738.853       326.13636      14333.222      1.3357621      0.62578521   
    397200  -9105.5705     -9186.7956      81.225109      8308.5271      327.45429      14304.787      1.3384174      0.62578521   
    397300  -9105.684      -9184.0647      78.380708      9362.2047      315.98725      14266.184      1.342039       0.62578521   
    397400  -9106.9268     -9188.4407      81.513871      8849.9725      328.61842      14222.039      1.3462046      0.62578521   
    397500  -9108.5657     -9189.3971      80.831454      9909.0413      325.86729      14182.526      1.3499552      0.62578521   
    397600  -9106.4275     -9185.9253      79.497834      11735.641      320.49088      14153.89       1.3526864      0.62578521   
    397700  -9104.316      -9186.9058      82.589786      10778.91       332.95591      14146.014      1.3534395      0.62578521   
    397800  -9106.9253     -9189.2796      82.354337      11680.75       332.00671      14159.956      1.352107       0.62578521   
    397900  -9103.1951     -9185.9326      82.737513      10842.696      333.55146      14186.964      1.3495329      0.62578521   
    398000  -9104.3638     -9184.2153      79.851497      10033.119      321.91665      14228.411      1.3456018      0.77881171   
    398100  -9107.3582     -9188.1285      80.770301      7188.278       325.62076      14277.118      1.3410112      0.77881171   
    398200  -9106.3748     -9187.2584      80.883547      10522.566      326.0773       14319.367      1.3370545      0.77881171   
    398300  -9105.1027     -9188.286       83.183247      10014.114      335.34841      14347.859      1.3343994      0.77881171   
    398400  -9106.3603     -9186.8251      80.464797      10049.87       324.38914      14348.978      1.3342953      0.77881171   
    398500  -9107.3963     -9188.2348      80.838508      8893.3589      325.89573      14321.219      1.3368816      0.77881171   
    398600  -9106.3344     -9187.4363      81.101888      9595.834       326.95754      14268.168      1.3418524      0.77881171   
    398700  -9106.8423     -9191.0183      84.175947      8798.2039      339.35042      14207.244      1.3476065      0.77881171   
    398800  -9103.2102     -9186.0215      82.811311      9936.4709      333.84898      14151.081      1.3529549      0.77881171   
    398900  -9103.2221     -9185.5139      82.291798      11567.242      331.75459      14114.914      1.3564216      0.77881171   
    399000  -9103.8742     -9186.7492      82.875015      11888.015      334.1058       14109.318      1.3569596      0.71805142   
    399100  -9104.7914     -9186.3279      81.53647       11830.385      328.70953      14133.24       1.3546628      0.71805142   
    399200  -9106.6412     -9185.811       79.16976       11558.023      319.16827      14185.85       1.3496388      0.71805142   
    399300  -9106.9676     -9190.1298      83.162237      14365.911      335.26371      14254.39       1.3431493      0.71805142   
    399400  -9106.5632     -9187.2498      80.686665      7378.024       325.28359      14319.559      1.3370366      0.71805142   
    399500  -9109.7158     -9190.5582      80.842388      5266.5469      325.91138      14362.095      1.3330767      0.71805142   
    399600  -9108.7122     -9185.5251      76.812872      9672.7571      309.66662      14372.969      1.3320682      0.71805142   
    399700  -9107.9277     -9190.7994      82.871628      8285.6373      334.09214      14352.14       1.3340014      0.71805142   
    399800  -9104.6196     -9187.8682      83.248521      9992.316       335.61156      14301.303      1.3387433      0.71805142   
    399900  -9103.1315     -9187.3687      84.237231      12048.04       339.59749      14234.254      1.3450494      0.71805142   
    400000  -9104.6697     -9188.0138      83.344118      10291.301      335.99695      14170.835      1.3510689      0.71518268   
    400100  -9104.1288     -9186.6046      82.475787      11819.574      332.49633      14119.749      1.3559571      0.71518268   
    400200  -9103.405      -9188.0937      84.688693      13371.474      341.41753      14093.333      1.3584987      0.71518268   
    400300  -9100.9549     -9186.0947      85.139848      13871.034      343.23634      14096.594      1.3581844      0.71518268   
    400324  -9100.9391     -9183.5973      82.65821       14041.639      333.23176      14102.512      1.3576145      0.71518268   
Loop time of 544.429 on 4 procs for 200000 steps with 1920 atoms

Performance: 15.870 ns/day, 1.512 hours/ns, 367.357 timesteps/s, 705.326 katom-step/s
99.6% CPU use with 4 MPI tasks x 1 OpenMP threads

MPI task timing breakdown:
Section |  min time  |  avg time  |  max time  |%varavg| %total
---------------------------------------------------------------
Pair    | 274.37     | 276.83     | 280.23     |  13.4 | 50.85
Neigh   | 7.8776     | 8.0114     | 8.0984     |   3.1 |  1.47
Comm    | 63.631     | 67.832     | 70.755     |  34.4 | 12.46
Output  | 0.30894    | 0.31514    | 0.32267    |   0.9 |  0.06
Modify  | 188.25     | 189.06     | 189.86     |   4.5 | 34.73
Other   |            | 2.375      |            |       |  0.44

Nlocal:            480 ave         491 max         474 min
Histogram: 1 1 1 0 0 0 0 0 0 1
Nghost:        2669.25 ave        2676 max        2658 min
Histogram: 1 0 0 0 0 0 0 2 0 1
Neighs:              0 ave           0 max           0 min
Histogram: 4 0 0 0 0 0 0 0 0 0
FullNghs:      76508.5 ave       78831 max       75294 min
Histogram: 1 1 1 0 0 0 0 0 0 1

Total # of neighbors = 306034
Ave neighs/atom = 159.39271
Neighbor list builds = 20000
Dangerous builds = 20000
Total wall time: 0:18:11
