LAMMPS (7 Feb 2024 - Update 1)
KOKKOS mode with Kokkos version 4.2.0 is enabled (src/KOKKOS/kokkos.cpp:72)
  will use up to 2 GPU(s) per node
  using 1 OpenMP thread(s) per MPI task
Reading data file ...
  triclinic box = (0 0 0) to (18.047441 22.912981 19.549222) with tilt (-0.10697296 -6.2467562 -0.022549581)
  1 by 2 by 1 MPI processor grid
  reading atoms ...
  1008 atoms
  read_data CPU = 0.008 seconds
ACE/AL version: 2023.11.25
Loading /home/cicn/cicn607503/pd/pot_dir/interim_potential_ladder_step_1.yaml
Total number of basis functions
	H: 23 (r=1) 664 (r>1)
	O: 23 (r=1) 664 (r>1)
Mapping LAMMPS atom type #1(H) -> ACE species type #0
Mapping LAMMPS atom type #2(O) -> ACE species type #1
Loading ASI /home/cicn/cicn607503/pd/pot_dir/interim_potential_ladder_step_1.asi
LINEAR ASI is loaded
Switching to 'neigh_modify every 1 delay 0 check yes' setting during minimization
Neighbor list info ...
  update: every = 1 steps, delay = 0 steps, check = yes
  max neighbors/atom: 2000, page size: 100000
  master list distance cutoff = 6.5
  ghost atom cutoff = 6.5
  binsize = 6.5, bins = 4 4 4
  1 neighbor lists, perpetual/occasional/extra = 1 0 0
  (1) pair pace/extrapolation/kk, perpetual
      attributes: full, newton on, kokkos_device
      pair build: full/bin/kk/device
      stencil: full/bin/3d
      bin: kk/device
Setting up cg/kk style minimization ...
  Unit style    : metal
  Current step  : 0
WARNING: Fix with atom-based arrays not compatible with sending data in Kokkos communication, switching to classic exchange/border communication (src/KOKKOS/comm_kokkos.cpp:666)
WARNING: Fix with atom-based arrays not compatible with Kokkos sorting on device, switching to classic host sorting (src/KOKKOS/atom_kokkos.cpp:218)
Per MPI rank memory allocation (min/avg/max) = 434.5 | 437.1 | 439.8 Mbytes
   Step         TotEng         PotEng         KinEng         Press           Temp          Volume        Density     c_max_pace_gamma
         0  -4828.0548     -4828.0548      0              65519.119      0              8084.0073      1.2433848      0.66599327   
       100  -4870.1836     -4870.1836      0             -8195.723       0              8084.0073      1.2433848      0.66599327   
       200  -4870.1941     -4870.1941      0             -8254.8387      0              8084.0073      1.2433848      0.66599327   
       297  -4870.1942     -4870.1942      0             -8253.7006      0              8084.0073      1.2433848      0.66599327   
Loop time of 1.10926 on 2 procs for 297 steps with 1008 atoms

99.7% CPU use with 2 MPI tasks x 1 OpenMP threads

Minimization stats:
  Stopping criterion = force tolerance
  Energy initial, next-to-last, final = 
     -4828.05482421704   -4870.1941735052  -4870.19417350928
  Force two-norm initial, final = 47.911707 0.00049841003
  Force max component initial, final = 2.3126941 4.2962643e-05
  Final line search alpha, max atom move = 1 4.2962643e-05
  Iterations, force evaluations = 297 593

MPI task timing breakdown:
Section |  min time  |  avg time  |  max time  |%varavg| %total
---------------------------------------------------------------
Pair    | 0.76781    | 0.77627    | 0.78474    |   1.0 | 69.98
Neigh   | 0.0018925  | 0.0019112  | 0.0019299  |   0.0 |  0.17
Comm    | 0.10922    | 0.11775    | 0.12628    |   2.5 | 10.62
Output  | 0.00029563 | 0.00029685 | 0.00029806 |   0.0 |  0.03
Modify  | 0.13749    | 0.1384     | 0.13931    |   0.2 | 12.48
Other   |            | 0.07463    |            |       |  6.73

Nlocal:            504 ave         505 max         503 min
Histogram: 1 0 0 0 0 0 0 0 0 1
Nghost:         2649.5 ave        2651 max        2648 min
Histogram: 1 0 0 0 0 0 0 0 0 1
Neighs:              0 ave           0 max           0 min
Histogram: 2 0 0 0 0 0 0 0 0 0
FullNghs:        73319 ave       73378 max       73260 min
Histogram: 1 0 0 0 0 0 0 0 0 1

Total # of neighbors = 146638
Ave neighs/atom = 145.47421
Neighbor list builds = 5
Dangerous builds = 0
Setting up Verlet run ...
  Unit style    : metal
  Current step  : 297
  Time step     : 0.0005
WARNING: Fix with atom-based arrays not compatible with sending data in Kokkos communication, switching to classic exchange/border communication (src/KOKKOS/comm_kokkos.cpp:666)
WARNING: Fix with atom-based arrays not compatible with Kokkos sorting on device, switching to classic host sorting (src/KOKKOS/atom_kokkos.cpp:218)
Per MPI rank memory allocation (min/avg/max) = 433.9 | 437.4 | 441 Mbytes
   Step         TotEng         PotEng         KinEng         Press           Temp          Volume        Density     c_max_pace_gamma
       297  -4831.1447     -4870.1942      39.04949      -3094.1989      300            8084.0073      1.2433848      0.66599327   
       300  -4831.0557     -4862.8945      31.838863     -4338.0999      244.60394      8083.9628      1.2433916      0.66599327   
       400  -4822.6076     -4846.9944      24.386844      3561.298       187.35336      8034.5241      1.2510426      0.66599327   
       500  -4814.3311     -4841.105       26.77384       4513.8423      205.6916       7924.785       1.2683665      0.66599327   
       600  -4808.6043     -4838.5679      29.963615      8759.3373      230.19724      7799.3128      1.2887715      0.66599327   
       700  -4805.3194     -4836.8897      31.570258      8773.9799      242.54037      7701.9358      1.3050656      0.66599327   
       800  -4802.4621     -4838.5594      36.097263      11117.724      277.31934      7654.3756      1.3131746      0.66599327   
       900  -4799.8537     -4834.0273      34.173651      13434.794      262.54108      7661.4251      1.3119663      0.66599327   
      1000  -4799.6121     -4834.3299      34.717806      5406.8453      266.72159      7722.7596      1.3015466      0.67959026   
      1100  -4797.5607     -4833.0788      35.518028      9209.1547      272.86934      7816.4466      1.2859464      0.67959026   
      1200  -4797.8846     -4835.2184      37.333831      6887.361       286.81935      7916.4851      1.2696963      0.67959026   
      1300  -4795.1658     -4831.7278      36.562039      1813.4964      280.89001      7997.3781      1.2568534      0.67959026   
      1400  -4792.8598     -4829.9156      37.055705      5131.4173      284.68263      8049.9968      1.248638       0.67959026   
      1500  -4793.028      -4830.6785      37.650439      6812.1383      289.25171      8071.2364      1.2453522      0.67959026   
      1600  -4792.3029     -4829.369       37.0661        4074.365       284.76249      8066.1733      1.2461339      0.67959026   
      1700  -4792.3868     -4830.7527      38.3659        1402.907       294.74828      8044.7197      1.249457       0.67959026   
      1800  -4792.6803     -4831.2254      38.545072      3670.1672      296.12478      8007.1137      1.2553252      0.67959026   
      1900  -4789.836      -4829.4517      39.615694      5173.5647      304.3499       7958.7071      1.2629604      0.67959026   
      2000  -4789.0109     -4828.3425      39.331565      9705.0693      302.16706      7914.2485      1.2700551      0.67169492   
      2100  -4787.9146     -4826.9098      38.995253      7950.5439      299.58332      7885.5932      1.2746703      0.67169492   
      2200  -4787.5787     -4827.8693      40.290587      8391.3987      309.5348       7880.4754      1.2754981      0.67169492   
      2300  -4788.0785     -4827.784       39.705519      8359.0749      305.03998      7903.663       1.2717561      0.67169492   
      2400  -4788.981      -4828.5249      39.543907      5324.287       303.79839      7948.4756      1.2645861      0.67169492   
      2500  -4789.5375     -4827.5863      38.048805      1362.9319      292.31218      8001.1704      1.2562577      0.67169492   
      2600  -4789.8572     -4828.7552      38.898011      2943.673       298.83626      8051.2998      1.2484359      0.67169492   
      2700  -4789.9912     -4830.3637      40.372521      233.94938      310.16426      8087.9137      1.2427842      0.67169492   
      2800  -4789.7549     -4828.2515      38.496603      2063.6336      295.75241      8104.7415      1.2402039      0.67169492   
      2900  -4789.5878     -4829.2418      39.65402       2361.4628      304.64434      8097.7287      1.2412779      0.67169492   
      3000  -4788.0302     -4827.4715      39.441347      3257.7243      303.01047      8066.2014      1.2461295      0.68949718   
      3100  -4788.0153     -4827.4493      39.433998      1704.892       302.95401      8023.9008      1.2526989      0.68949718   
      3200  -4787.0462     -4828.2121      41.165936      6061.8651      316.25972      7978.6545      1.2598029      0.68949718   
      3300  -4787.5026     -4826.8481      39.345489      8908.3845      302.27403      7943.1585      1.2654326      0.68949718   
      3400  -4789.3528     -4828.7512      39.398421      6216.9287      302.68069      7922.559       1.2687228      0.68949718   
      3500  -4789.0092     -4829.495       40.485784      7479.2694      311.03442      7916.5259      1.2696897      0.68949718   
      3600  -4788.6331     -4829.2891      40.656069      3139.5456      312.34264      7928.3849      1.2677906      0.68949718   
      3700  -4788.329      -4828.2582      39.929165      2572.2212      306.75816      7953.6628      1.2637614      0.68949718   
      3800  -4787.6902     -4827.7385      40.048344      5311.4424      307.67375      7995.4974      1.257149       0.68949718   
      3900  -4787.7802     -4828.2929      40.512709      3887.0817      311.24127      8046.4047      1.2491954      0.68949718   
      4000  -4787.9644     -4826.7465      38.782114      3209.3438      297.94587      8092.5562      1.2420713      0.62018493   
      4100  -4788.3877     -4827.8588      39.47106       4390.3472      303.23874      8118.4509      1.2381096      0.62018493   
      4200  -4786.222      -4825.7689      39.546854      3398.1499      303.82103      8117.2243      1.2382967      0.62018493   
      4300  -4785.85       -4826.2798      40.429791      2638.853       310.60425      8092.9321      1.2420136      0.62018493   
      4400  -4787.0845     -4827.6114      40.526874      2452.609       311.35009      8053.1966      1.2481419      0.62018493   
      4500  -4786.8756     -4826.2774      39.401879      4333.5243      302.70725      8006.3892      1.2554388      0.62018493   
      4600  -4787          -4826.7466      39.74653       3978.273       305.35505      7961.08        1.2625839      0.62018493   
      4700  -4786.6309     -4827.8203      41.189472      3221.5594      316.44054      7923.8645      1.2685138      0.62018493   
      4800  -4786.6456     -4827.7881      41.142431      4466.4008      316.07914      7905.2925      1.271494       0.62018493   
      4900  -4786.8764     -4827.5541      40.677698      6259.2597      312.5088       7910.6131      1.2706388      0.62018493   
      5000  -4786.1063     -4827.6646      41.558263      4654.0615      319.27379      7936.7296      1.2664576      0.73446201   
      5100  -4787.1601     -4827.9437      40.783513      2738.8369      313.32174      7982.6086      1.2591788      0.73446201   
      5200  -4787.0055     -4826.7425      39.736959      4483.0715      305.28152      8034.9461      1.2509769      0.73446201   
      5300  -4789.0593     -4827.9867      38.927342      273.09245      299.06159      8086.2975      1.2430326      0.73446201   
      5400  -4789.3572     -4826.9868      37.629634      3675.6348      289.09187      8122.0026      1.2375681      0.73446201   
      5500  -4788.9005     -4827.6698      38.769338      3382.9696      297.84772      8135.5976      1.2355001      0.73446201   
      5600  -4788.0768     -4826.6306      38.553848      3903.0444      296.1922       8125.0877      1.2370982      0.73446201   
      5700  -4788.7695     -4829.186       40.416431      4734.4942      310.5016       8091.9137      1.2421699      0.73446201   
      5800  -4790.1795     -4829.2817      39.102176      4984.4762      300.40476      8038.4099      1.2504378      0.73446201   
      5900  -4788.7365     -4829.2074      40.470919      8388.3359      310.92021      7971.0958      1.2609975      0.73446201   
      6000  -4788.243      -4827.2759      39.03283       6687.1788      299.87201      7907.024       1.2712155      0.69519527   
      6100  -4787.5372     -4828.5865      41.049234      5465.088       315.36315      7865.9031      1.2778611      0.69519527   
      6200  -4787.0609     -4827.4243      40.363429      8958.9618      310.09442      7858.3776      1.2790848      0.69519527   
      6300  -4785.3516     -4825.9802      40.628626      11682.993      312.1318       7889.6292      1.2740183      0.69519527   
      6400  -4786.682      -4827.6838      41.001721      5485.0263      314.99813      7957.737       1.2631143      0.69519527   
      6500  -4786.9512     -4826.9273      39.976059      4557.9148      307.11842      8038.3242      1.2504511      0.69519527   
      6600  -4786.5132     -4825.4583      38.945105      4461.1754      299.19806      8105.5306      1.2400831      0.69519527   
      6700  -4787.2316     -4827.9712      40.739572      3717.357       312.98416      8151.8752      1.2330331      0.69519527   
      6800  -4787.6026     -4827.1475      39.544978      4490.7911      303.80661      8164.8874      1.231068       0.69519527   
      6900  -4789.2827     -4828.3012      39.018428      4726.5667      299.76136      8144.0059      1.2342245      0.69519527   
      7000  -4788.7816     -4828.2914      39.509773      5054.8357      303.53616      8095.3697      1.2416396      0.65815076   
      7100  -4789.6958     -4828.3299      38.634078      4634.6499      296.80857      8033.6921      1.2511721      0.65815076   
      7200  -4789.8073     -4829.9333      40.125974      4719.2325      308.27015      7972.2718      1.2608115      0.65815076   
      7300  -4790.3203     -4829.7839      39.463541      4524.434       303.18098      7921.495       1.2688933      0.65815076   
      7400  -4788.973      -4829.69        40.717028      6084.7022      312.81096      7889.8126      1.2739886      0.65815076   
      7500  -4788.7952     -4826.8627      38.067532      6035.8517      292.45605      7885.1345      1.2747445      0.65815076   
      7600  -4790.0672     -4829.0098      38.942617      8917.7294      299.17894      7909.5021      1.2708172      0.65815076   
      7700  -4789.2095     -4829.3654      40.155896      6073.3501      308.50003      7950.5786      1.2642516      0.65815076   
      7800  -4789.9161     -4828.584       38.667892      2537.8141      297.06835      7993.4923      1.2574644      0.65815076   
      7900  -4790.6471     -4829.9482      39.301176      2550.3587      301.93359      8032.6412      1.2513358      0.65815076   
      8000  -4789.8705     -4829.2553      39.384818      1400.0532      302.57618      8059.8026      1.2471188      0.6559328    
      8100  -4789.3233     -4828.5205      39.197189      2799.1066      301.13471      8071.8397      1.2452591      0.6559328    
      8200  -4789.4705     -4827.9494      38.478812      4057.0727      295.61573      8071.3653      1.2453323      0.6559328    
      8300  -4790.6606     -4828.5732      37.912612      2117.1651      291.26587      8058.652       1.2472969      0.6559328    
      8400  -4788.5936     -4826.72        38.126394      2659.5141      292.90826      8033.6586      1.2511774      0.6559328    
      8500  -4787.063      -4827.5537      40.490741      3263.8392      311.0725       8000.6745      1.2563355      0.6559328    
      8600  -4787.3315     -4827.8154      40.483909      3520.3085      311.02001      7970.3147      1.2611211      0.6559328    
      8700  -4786.9769     -4827.2828      40.305875      7352.662       309.65225      7949.0748      1.2644908      0.6559328    
      8800  -4787.9063     -4828.2696      40.363233      5028.7935      310.09291      7938.6888      1.2661451      0.6559328    
      8900  -4788.2665     -4826.9909      38.724315      6619.6463      297.50182      7943.3811      1.2653971      0.6559328    
      9000  -4789.614      -4828.3291      38.715113      7380.7932      297.43113      7962.9204      1.2622921      0.64778704   
      9100  -4789.2751     -4829.1516      39.87644       5543.24        306.35309      7994.9769      1.2572309      0.64778704   
      9200  -4789.388      -4828.4104      39.02241       770.10515      299.79196      8028.6904      1.2519516      0.64778704   
      9300  -4788.8907     -4826.438       37.54728       514.55296      288.45919      8057.5273      1.247471       0.64778704   
      9400  -4789.5695     -4827.9884      38.418921      3973.5347      295.15562      8071.2101      1.2453562      0.64778704   
      9500  -4789.1312     -4826.4297      37.298482      7406.8871      286.54778      8064.8867      1.2463327      0.64778704   
      9600  -4789.3144     -4829.2215      39.90709       5267.6335      306.58856      8039.1485      1.2503229      0.64778704   
      9700  -4790.3896     -4829.7911      39.401503      2120.6267      302.70437      8005.6911      1.2555483      0.64778704   
      9800  -4791.0025     -4828.8079      37.805401      5181.8413      290.44221      7966.466       1.2617303      0.64778704   
      9900  -4791.087      -4829.449       38.36202       4708.577       294.71847      7924.711       1.2683783      0.64778704   
     10000  -4790.6974     -4829.4248      38.72748       2207.6613      297.52614      7890.9873      1.273799       0.70084094   
     10100  -4791.2512     -4830.0457      38.794522      5413.1301      298.04119      7874.4945      1.2764669      0.70084094   
     10200  -4791.0916     -4829.0759      37.984279      7148.2593      291.81646      7879.8948      1.2755921      0.70084094   
     10300  -4790.9849     -4828.8187      37.833832      5536.7316      290.66064      7912.96        1.2702619      0.70084094   
     10400  -4789.3099     -4827.9901      38.680197      2248.1828      297.16289      7967.4364      1.2615766      0.70084094   
     10500  -4789.0187     -4827.2378      38.219142      3261.302       293.6208       8033.552       1.251194       0.70084094   
     10600  -4790.1        -4829.5623      39.462349      1692.1447      303.17182      8095.569       1.2416091      0.70084094   
     10700  -4788.8138     -4827.268       38.454269      1946.1571      295.42718      8136.5918      1.2353491      0.70084094   
     10800  -4788.8967     -4827.6137      38.716961      840.36386      297.44533      8143.3049      1.2343308      0.70084094   
     10900  -4789.3785     -4829.004       39.625565      613.80741      304.42573      8111.0028      1.2392465      0.70084094   
     11000  -4788.3358     -4829.6361      41.300307      4806.793       317.29204      8049.0758      1.2487808      0.68731215   
     11100  -4789.189      -4827.9852      38.796226      7772.4742      298.05428      7973.3946      1.2606339      0.68731215   
     11200  -4788.5524     -4827.3531      38.800628      11348.954      298.08811      7904.3301      1.2716488      0.68731215   
     11300  -4788.3861     -4828.1845      39.798384      6054.0357      305.75342      7858.0955      1.2791308      0.68731215   
     11400  -4788.2393     -4826.7077      38.468405      11303.234      295.53578      7841.2248      1.2818829      0.68731215   
     11500  -4788.4764     -4828.9773      40.500942      9228.0524      311.15087      7859.1936      1.278952       0.68731215   
     11600  -4788.2314     -4828.6001      40.368653      5987.6         310.13455      7904.7798      1.2715764      0.68731215   
     11700  -4788.8526     -4828.5499      39.697284      3680.2931      304.97672      7968.585       1.2613948      0.68731215   
     11800  -4789.3038     -4828.8661      39.562273      2370.9701      303.93949      8035.9888      1.2508145      0.68731215   
     11900  -4788.3223     -4828.0535      39.731254      5658.9695      305.23769      8084.5494      1.2433014      0.68731215   
     12000  -4787.4388     -4827.2108      39.772026      2795.8697      305.55093      8109.0953      1.239538       0.71118859   
     12100  -4784.6559     -4825.631       40.975143      3113.1585      314.79394      8114.5267      1.2387083      0.71118859   
     12200  -4784.315      -4825.7599      41.444914      2535.7492      318.40298      8103.6097      1.2403771      0.71118859   
     12300  -4785.9758     -4826.9572      40.981361      6158.5986      314.84172      8079.334       1.244104       0.71118859   
     12400  -4786.2474     -4826.2212      39.973795      2104.2384      307.10103      8048.0203      1.2489446      0.71118859   
     12500  -4787.3164     -4828.6771      41.360697      3509.2709      317.75598      8013.237       1.254366       0.71118859   
     12600  -4787.4849     -4827.8337      40.348847      4133.5365      309.98239      7976.6728      1.2601158      0.71118859   
     12700  -4787.1686     -4827.9449      40.776352      6118.3859      313.26672      7946.0131      1.264978       0.71118859   
     12800  -4787.969      -4827.9084      39.939476      6513.6299      306.83737      7928.8029      1.2677237      0.71118859   
     12900  -4789.4415     -4828.6651      39.223582      8692.9784      301.33747      7927.4185      1.2679451      0.71118859   
     13000  -4791.1442     -4829.4074      38.263238      7015.2678      293.95957      7938.913       1.2661093      0.69926395   
     13100  -4791.5979     -4829.9595      38.361655      5947.8892      294.71567      7956.0883      1.2633761      0.69926395   
     13200  -4792.8013     -4831.2658      38.46455       2228.4355      295.50616      7974.31        1.2604892      0.69926395   
     13300  -4792.3698     -4829.6433      37.273447      3411.4054      286.35545      7984.5421      1.2588739      0.69926395   
     13400  -4791.4464     -4830.3162      38.869767      6083.0047      298.61927      7988.8199      1.2581998      0.69926395   
     13500  -4791.8786     -4830.39        38.511447      5927.9604      295.86645      7986.2601      1.2586031      0.69926395   
     13600  -4791.4951     -4830.5035      39.008404      8028.6114      299.68436      7978.7959      1.2597805      0.69926395   
     13700  -4790.23       -4828.5176      38.287673      3905.5145      294.14729      7969.9353      1.2611811      0.69926395   
     13800  -4790.7307     -4829.3158      38.585044      5426.9976      296.43187      7963.3242      1.2622281      0.69926395   
     13900  -4790.2222     -4829.3501      39.127936      6388.2677      300.60266      7958.7619      1.2629517      0.69926395   
     14000  -4789.9366     -4829.0419      39.105228      6033.4408      300.42821      7959.4185      1.2628475      0.70511811   
     14100  -4790.0743     -4828.9863      38.912069      2860.8906      298.94426      7964.8706      1.2619831      0.70511811   
     14200  -4789.724      -4829.1761      39.452083      4023.7564      303.09294      7973.3798      1.2606363      0.70511811   
     14300  -4790.8962     -4828.4608      37.564628      5955.7746      288.59246      7982.4047      1.259211       0.70511811   
     14400  -4788.731      -4828.2499      39.518886      4106.3969      303.60616      7989.496       1.2580933      0.70511811   
     14500  -4790.2973     -4829.2275      38.930211      8086.4949      299.08364      7995.8916      1.257087       0.70511811   
     14600  -4789.8107     -4829.6523      39.841573      6201.3871      306.08523      8000.5841      1.2563497      0.70511811   
     14700  -4789.7407     -4830.6312      40.890577      5857.315       314.14426      7997.1481      1.2568895      0.70511811   
     14800  -4790.436      -4829.8804      39.444395      4415.5467      303.03389      7985.6229      1.2587035      0.70511811   
     14900  -4791.4382     -4828.7844      37.346158      4444.6385      286.91405      7967.5594      1.2615572      0.70511811   
     15000  -4791.8683     -4830.3462      38.477915      1447.0041      295.60884      7941.8873      1.2656352      0.64753756   
     15100  -4791.3184     -4828.8918      37.573421      7147.4523      288.66001      7914.2235      1.2700591      0.64753756   
     15200  -4792.1634     -4829.9784      37.815006      9707.3667      290.516        7894.8138      1.2731816      0.64753756   
     15300  -4790.3943     -4829.7184      39.324156      3787.9023      302.11014      7888.2959      1.2742336      0.64753756   
     15400  -4789.5658     -4828.5552      38.989462      5905.7243      299.53883      7902.5004      1.2719432      0.64753756   
     15500  -4791.6323     -4829.8215      38.189183      6278.0542      293.39064      7935.6539      1.2666293      0.64753756   
     15600  -4791.157      -4830.1597      39.002664      2207.5002      299.64026      7981.6945      1.259323       0.64753756   
     15700  -4790.9757     -4830.106       39.130301      6550.3428      300.62084      8022.764       1.2528764      0.64753756   
     15800  -4790.1979     -4829.419       39.221141      4899.8659      301.31872      8050.1025      1.2486216      0.64753756   
     15900  -4791.1437     -4829.0395      37.895779     -1608.6561      291.13655      8056.7325      1.2475941      0.64753756   
     16000  -4790.6274     -4828.1808      37.55347      -949.0912       288.50674      8043.1308      1.2497039      0.79314483   
     16100  -4792.1128     -4829.821       37.7082        141.01645      289.69546      8016.2793      1.2538899      0.79314483   
     16200  -4790.5656     -4829.0875      38.521871      4721.6428      295.94654      7978.8101      1.2597783      0.79314483   
     16300  -4791.4134     -4830.5026      39.089142      8787.0629      300.30463      7943.7006      1.2653462      0.79314483   
     16400  -4789.9359     -4827.7439      37.807998      7699.167       290.46216      7914.6282      1.2699942      0.79314483   
     16500  -4788.8322     -4828.9701      40.137913      7824.3809      308.36188      7894.9119      1.2731658      0.79314483   
     16600  -4788.6673     -4828.587       39.919647      8555.2781      306.68503      7891.3792      1.2737357      0.79314483   
     16700  -4789.2873     -4829.414       40.126693      6968.2334      308.27568      7906.179       1.2713514      0.79314483   
     16800  -4791.5673     -4829.353       37.785663      6556.875       290.29057      7935.2609      1.266692       0.79314483   
     16900  -4791.4235     -4830.622       39.198491      6029.8819      301.14471      7969.6636      1.2612241      0.79314483   
     17000  -4792.1546     -4832.4661      40.31157       3983.1455      309.696        7997.7039      1.2568022      0.69215273   
     17100  -4792.1321     -4829.2706      37.138536      4752.0015      285.31899      8015.2336      1.2540535      0.69215273   
     17200  -4790.3612     -4828.4953      38.134086      5161.0655      292.96736      8022.0313      1.2529908      0.69215273   
     17300  -4790.6938     -4826.9984      36.304617      5781.5119      278.91236      8016.2083      1.253901       0.69215273   
     17400  -4790.0114     -4827.9447      37.933295      6027.0176      291.42477      7997.7783      1.2567905      0.69215273   
     17500  -4789.004      -4829.6085      40.604413      4330.5981      311.94579      7971.0259      1.2610085      0.69215273   
     17600  -4789.7025     -4828.2549      38.552378      4417.5569      296.18091      7943.1827      1.2654287      0.69215273   
     17700  -4790.2434     -4830.1465      39.903037      6284.1936      306.55742      7921.832       1.2688393      0.69215273   
     17800  -4789.9398     -4829.1492      39.209334      4999.3779      301.22801      7915.093       1.2699196      0.69215273   
     17900  -4790.0919     -4827.7555      37.663518      8528.2819      289.35219      7918.4887      1.269375       0.69215273   
     18000  -4790.2664     -4830.0292      39.762744      8921.6518      305.47962      7929.2532      1.2676517      0.68652678   
     18100  -4788.9932     -4829.2228      40.229655      3836.6         309.06669      7944.8495      1.2651633      0.68652678   
     18200  -4788.0685     -4827.7387      39.670204      2077.6455      304.76867      7963.4614      1.2622064      0.68652678   
     18300  -4789.3032     -4828.3929      39.089693      4256.3826      300.30887      7984.1581      1.2589345      0.68652678   
     18400  -4790.1447     -4829.1522      39.007517      3528.4378      299.67754      8003.9391      1.2558231      0.68652678   
     18500  -4790.7823     -4828.2862      37.503898      2912.9952      288.1259       8017.1756      1.2537497      0.68652678   
     18600  -4790.6473     -4829.2242      38.576882      1907.5555      296.36916      8020.1619      1.2532829      0.68652678   
     18700  -4791.0483     -4828.9867      37.938382      6468.7072      291.46385      8006.3401      1.2554465      0.68652678   
     18800  -4790.6449     -4829.1858      38.540935      7581.3074      296.09299      7977.2466      1.2600252      0.68652678   
     18900  -4790.5524     -4829.5823      39.029961      5417.2468      299.84997      7944.648       1.2651953      0.68652678   
     19000  -4790.3291     -4828.5707      38.241602      7137.7576      293.79336      7915.3509      1.2698782      0.6705917    
     19100  -4788.4996     -4828.3865      39.886912      7937.5113      306.43354      7898.4831      1.2725901      0.6705917    
     19200  -4787.8698     -4827.4701      39.600321      6929.3475      304.23179      7899.8704      1.2723667      0.6705917    
     19300  -4788.0919     -4827.0264      38.934522      5017.5256      299.11675      7919.2291      1.2692563      0.6705917    
     19400  -4787.9503     -4827.5955      39.645225      3801.0652      304.57677      7954.0947      1.2636927      0.6705917    
     19500  -4788.9967     -4828.2083      39.211575      6269.8841      301.24523      7996.8381      1.2569382      0.6705917    
     19600  -4787.2167     -4827.3253      40.108566      7193.5388      308.13642      8038.6856      1.2503949      0.6705917    
     19700  -4787.7241     -4827.2278      39.503648      7114.0247      303.4891       8072.46        1.2451634      0.6705917    
     19800  -4788.4366     -4826.8709      38.434317      3793.5479      295.2739       8090.3614      1.2424082      0.6705917    
     19900  -4788.8225     -4827.3508      38.5283        1060.8188      295.99593      8083.238       1.2435031      0.6705917    
     20000  -4789.1806     -4827.9891      38.808522      1834.5917      298.14875      8047.9912      1.2489491      0.75563784   
     20100  -4789.1473     -4829.0113      39.864         5591.0194      306.25752      7996.055       1.2570614      0.75563784   
     20200  -4785.7998     -4827.123       41.323249      4551.9263      317.46829      7941.4591      1.2657034      0.75563784   
     20300  -4786.634      -4826.1943      39.560272      5444.6163      303.92412      7903.3383      1.2718084      0.75563784   
     20400  -4787.84       -4828.1846      40.344653      8784.0868      309.95017      7890.2083      1.2739248      0.75563784   
     20500  -4787.8858     -4827.3994      39.513543      8185.317       303.56512      7897.8297      1.2726954      0.75563784   
     20600  -4788.3263     -4828.0333      39.706982      8246.8257      305.05122      7927.2563      1.2679711      0.75563784   
     20700  -4789.0401     -4827.3114      38.271275      5593.5915      294.02132      7973.9096      1.2605525      0.75563784   
     20800  -4788.6952     -4828.9714      40.276161      6108.242       309.42397      8021.6588      1.253049       0.75563784   
     20900  -4789.1187     -4827.7009      38.582191      4528.7879      296.40995      8058.3295      1.2473468      0.75563784   
     21000  -4790.659      -4828.9535      38.294497     -1887.6704      294.19972      8079.9566      1.2440081      0.74808438   
     21100  -4791.1775     -4829.8486      38.671107      476.86754      297.09305      8082.935       1.2435497      0.74808438   
     21200  -4791.8455     -4828.6729      36.827413      1770.1695      282.92877      8061.0419      1.2469271      0.74808438   
     21300  -4791.5864     -4829.5799      37.9935        4061.0496      291.88729      8020.0686      1.2532975      0.74808438   
     21400  -4792.1244     -4830.5343      38.409826      9350.6193      295.08575      7967.4656      1.261572       0.74808438   
     21500  -4792.1084     -4829.0088      36.900369      2721.2146      283.48925      7915.5394      1.269848       0.74808438   
     21600  -4790.963      -4829.3509      38.387864      5072.5455      294.91702      7883.5347      1.2750032      0.74808438   
     21700  -4789.0103     -4828.0547      39.044402      6896.1045      299.96091      7873.9708      1.2765518      0.74808438   
     21800  -4788.9202     -4828.3961      39.475901      8390.5573      303.27593      7892.5902      1.2735403      0.74808438   
     21900  -4789.384      -4829.334       39.949963      7727.9169      306.91794      7932.4658      1.2671384      0.74808438   
     22000  -4789.1506     -4827.5814      38.430791      3563.0666      295.24681      7982.8653      1.2591383      0.72598551   
     22100  -4787.3029     -4827.0953      39.792405      8547.164       305.70749      8029.0603      1.2518939      0.72598551   
     22200  -4786.9202     -4826.6085      39.688312      5628.1546      304.90779      8064.7285      1.2463571      0.72598551   
     22300  -4789.1251     -4828.5826      39.457427      2744.645       303.134        8086.6985      1.242971       0.72598551   
     22400  -4788.7156     -4828.5652      39.849671      5375.3392      306.14744      8088.6256      1.2426749      0.72598551   
     22500  -4788.6116     -4827.7611      39.14953       6190.196       300.76857      8074.0938      1.2449114      0.72598551   
     22600  -4787.9816     -4828.276       40.294379      4142.2579      309.56394      8046.5873      1.249167       0.72598551   
     22700  -4788.0114     -4828.0521      40.040676      5149.7506      307.61485      8010.7999      1.2547476      0.72598551   
     22800  -4787.2778     -4827.5012      40.223441      2761.4908      309.01895      7974.9045      1.2603952      0.72598551   
     22900  -4788.8002     -4828.5053      39.705134      4224.7156      305.03703      7949.4101      1.2644374      0.72598551   
     23000  -4787.5302     -4827.0694      39.539276      5638.0409      303.76281      7936.1808      1.2665452      0.66249991   
     23100  -4787.2862     -4827.6768      40.390605      4852.0772      310.3032       7943.7748      1.2653344      0.66249991   
     23200  -4788.4326     -4828.5612      40.128681      2251.0722      308.29095      7972.6698      1.2607485      0.66249991   
     23300  -4789.8172     -4828.3315      38.514331      3377.5252      295.88861      8008.3981      1.2551239      0.66249991   
     23400  -4788.7416     -4827.8038      39.062206      2120.9491      300.09769      8041.3655      1.2499782      0.66249991   
     23500  -4788.2225     -4828.3543      40.131797      5400.4344      308.31489      8061.9606      1.246785       0.66249991   
     23600  -4787.7314     -4826.9871      39.255663      5238.4275      301.58394      8068.6953      1.2457444      0.66249991   
     23700  -4786.5678     -4825.9085      39.340717      6462.7384      302.23737      8066.4801      1.2460865      0.66249991   
     23800  -4786.0552     -4826.8395      40.784272      8314.6144      313.32756      8053.0657      1.2481621      0.66249991   
     23900  -4787.7283     -4827.4354      39.707112      3534.6419      305.05222      8037.2832      1.2506131      0.66249991   
     24000  -4789.6205     -4829.464       39.843538      5053.6315      306.10032      8015.615       1.2539938      0.71466997   
     24100  -4789.3443     -4828.5824      39.238112      5699.3863      301.4491       7992.0708      1.257688       0.71466997   
     24200  -4789.8394     -4828.7947      38.955227      5830.6894      299.27582      7975.5931      1.2602864      0.71466997   
     24300  -4790.4945     -4829.1839      38.68936       5799.1289      297.23328      7964.9491      1.2619706      0.71466997   
     24400  -4790.4873     -4829.5599      39.072616      5347.4964      300.17767      7962.1042      1.2624215      0.71466997   
     24500  -4789.5296     -4827.983       38.453367      9915.2158      295.42025      7968.8499      1.2613529      0.71466997   
     24600  -4788.9575     -4828.7825      39.824962      5088.5609      305.95761      7986.0896      1.25863        0.71466997   
     24700  -4789.1956     -4827.8393      38.643676      7905.2622      296.88231      8010.5396      1.2547883      0.71466997   
     24800  -4788.2957     -4827.6614      39.365786      6683.1432      302.42996      8037.6425      1.2505572      0.71466997   
     24900  -4790.2138     -4829.4789      39.265072      3879.3024      301.65622      8061.6         1.2468408      0.71466997   
     25000  -4789.3608     -4828.0209      38.660065      6766.2631      297.00822      8076.7037      1.2445092      0.59755136   
     25100  -4788.013      -4827.1726      39.159668      6273.5602      300.84645      8079.8036      1.2440317      0.59755136   
     25200  -4789.4015     -4827.6787      38.277157      4287.3155      294.06651      8071.0031      1.2453882      0.59755136   
     25300  -4788.257      -4826.3512      38.09419       4732.7765      292.66086      8046.7705      1.2491386      0.59755136   
     25400  -4788.9972     -4828.6793      39.682051      7074.1615      304.85969      8013.2729      1.2543603      0.59755136   
     25500  -4789.103      -4827.3596      38.256579      4493.1653      293.90842      7975.0989      1.2603645      0.59755136   
     25600  -4788.1892     -4827.3817      39.192503      5677.1401      301.09871      7938.9334      1.2661061      0.59755136   
     25700  -4789.5793     -4829.3788      39.799476      4564.6875      305.76181      7915.8061      1.2698052      0.59755136   
     25800  -4790.1419     -4828.8879      38.746058      8328.7378      297.66887      7914.593       1.2699998      0.59755136   
     25900  -4791.0558     -4829.236       38.180157      6231.9134      293.3213       7935.977       1.2665777      0.59755136   
     26000  -4792.1166     -4830.357       38.240403      6261.8898      293.78414      7970.1845      1.2611417      0.6834418    
     26100  -4791.6101     -4830.2376      38.627507      4152.9521      296.75809      8006.5445      1.2554145      0.6834418    
     26200  -4790.813      -4828.9675      38.154519      11924.997      293.12433      8039.3246      1.2502955      0.6834418    
     26300  -4790.3115     -4829.0596      38.748088      6616.0741      297.68446      8067.3998      1.2459444      0.6834418    
     26400  -4790.3578     -4830.0132      39.655412      5549.5744      304.65503      8084.3529      1.2433316      0.6834418    
     26500  -4789.5064     -4829.5495      40.04307       4558.2117      307.63324      8084.224       1.2433515      0.6834418    
     26600  -4788.5691     -4827.934       39.364871      838.14234      302.42294      8067.1177      1.245988       0.6834418    
     26700  -4790.7552     -4829.5409      38.78576       4587.501       297.97388      8040.7752      1.25007        0.6834418    
     26800  -4789.3225     -4828.3793      39.056809      5348.7388      300.05623      8009.3123      1.2549806      0.6834418    
     26900  -4789.8542     -4828.3548      38.500632      9336.5495      295.78337      7982.3591      1.2592182      0.6834418    
     27000  -4789.9228     -4829.665       39.742187      7915.266       305.32169      7966.1352      1.2617827      0.69166028   
     27100  -4789.3587     -4828.8624      39.50379       7605.0337      303.49019      7956.734       1.2632736      0.69166028   
     27200  -4787.8204     -4827.8429      40.022458      4239.1386      307.47489      7960.365       1.2626973      0.69166028   
     27300  -4788.7863     -4827.0726      38.286297      3902.5986      294.13673      7973.6937      1.2605866      0.69166028   
     27400  -4789.375      -4827.9296      38.554571      5176.3663      296.19776      7996.684       1.2569625      0.69166028   
     27500  -4789.3159     -4828.5736      39.257737      4801.5178      301.59987      8019.9691      1.253313       0.69166028   
     27600  -4789.2202     -4828.3993      39.179114      4943.9557      300.99585      8035.3892      1.2509079      0.69166028   
     27700  -4790.098      -4827.3375      37.239423      4771.9994      286.09406      8037.0301      1.2506525      0.69166028   
     27800  -4789.7447     -4828.1353      38.390537      1946.4553      294.93756      8028.91        1.2519173      0.69166028   
     27900  -4790.1325     -4829.7724      39.639904      3156.2554      304.53589      8014.9311      1.2541008      0.69166028   
     28000  -4791.6849     -4829.9662      38.281264      6200.9121      294.09806      7997.544       1.2568273      0.66631349   
     28100  -4792.3315     -4830.7806      38.449066      4026.654       295.38721      7981.9275      1.2592863      0.66631349   
     28200  -4794.0744     -4831.3212      37.246776      2868.6372      286.15055      7966.0195      1.261801       0.66631349   
     28300  -4794.9853     -4832.1111      37.125818      2743.3369      285.22128      7945.6109      1.265042       0.66631349   
     28400  -4794.2697     -4830.7668      36.497056      7089.7335      280.39078      7925.3509      1.2682759      0.66631349   
     28500  -4793.8772     -4831.3815      37.504301      6049.8046      288.129        7912.8232      1.2702839      0.66631349   
     28600  -4793.6281     -4830.7476      37.119579      8071.521       285.17334      7909.6283      1.270797       0.66631349   
     28700  -4792.199      -4830.7764      38.57735       8348.7162      296.37276      7921.1466      1.2689491      0.66631349   
     28800  -4791.8534     -4831.5927      39.739313      6809.3124      305.29961      7948.2463      1.2646226      0.66631349   
     28900  -4790.8755     -4828.8987      38.023164      6770.8308      292.11519      7986.3059      1.2585959      0.66631349   
     29000  -4791.9069     -4829.3078      37.400915      1659.3746      287.33473      8026.8523      1.2522383      0.68697064   
     29100  -4791.2486     -4828.0365      36.78793       2981.1828      282.62543      8050.9189      1.248495       0.68697064   
     29200  -4789.3036     -4827.7601      38.456474      3712.4723      295.44412      8056.0123      1.2477056      0.68697064   
     29300  -4790.6461     -4829.2888      38.642672      1718.6111      296.8746       8044.9913      1.2494149      0.68697064   
     29400  -4790.342      -4829.3642      39.022175      5236.7502      299.79015      8019.0546      1.2534559      0.68697064   
     29500  -4790.5831     -4829.9715      39.388438      4166.6316      302.60399      7984.9429      1.2588107      0.68697064   
     29600  -4789.1855     -4828.3523      39.166754      3431.1977      300.90089      7951.7595      1.2640639      0.68697064   
     29700  -4789.7409     -4828.1868      38.445927      4657.0406      295.36309      7927.4013      1.2679479      0.68697064   
     29800  -4788.5264     -4829.2434      40.716937      5678.4889      312.81026      7921.1364      1.2689507      0.68697064   
     29900  -4788.8385     -4828.6629      39.824419      4156.1263      305.95344      7933.5071      1.266972       0.68697064   
     30000  -4788.4297     -4828.1255      39.695818      9705.3409      304.96545      7959.7888      1.2627887      0.73233715   
     30100  -4788.5133     -4827.2701      38.756712      4865.5671      297.75072      7993.3077      1.2574934      0.73233715   
     30200  -4789.4825     -4829.0183      39.535853      5931.3003      303.73651      8027.9367      1.2520691      0.73233715   
     30300  -4790.0016     -4829.2216      39.220001      4697.7301      301.30996      8057.3455      1.2474991      0.73233715   
     30400  -4791.3603     -4829.4695      38.109212      2400.2254      292.77626      8073.9052      1.2449405      0.73233715   
     30500  -4789.3096     -4827.547       38.237397      5952.2727      293.76105      8067.4159      1.2459419      0.73233715   
     30600  -4790.4222     -4829.5798      39.157655      5442.6024      300.83099      8041.8772      1.2498987      0.73233715   
     30700  -4789.9819     -4828.612       38.630084      4534.621       296.77789      8005.1972      1.2556257      0.73233715   
     30800  -4790.9056     -4829.5634      38.657705      4533.0601      296.99009      7960.2789      1.262711       0.73233715   
     30900  -4791.0156     -4828.9943      37.978656      9742.9085      291.77325      7919.7772      1.2691685      0.73233715   
     31000  -4790.9387     -4830.1158      39.177065      5685.8824      300.9801       7895.5807      1.2730579      0.75871241   
     31100  -4791.7797     -4830.3134      38.533765      5428.6227      296.03791      7892.4405      1.2735644      0.75871241   
     31200  -4790.8731     -4828.398       37.524891      7847.3752      288.28718      7910.9009      1.2705925      0.75871241   
     31300  -4791.6301     -4829.8423      38.212157      6583.3016      293.56714      7948.4688      1.2645872      0.75871241   
     31400  -4791.101      -4828.8543      37.753353      4426.649       290.04235      7995.2533      1.2571874      0.75871241   
     31500  -4790.3444     -4829.7278      39.38345       3643.8482      302.56567      8039.5192      1.2502653      0.75871241   
     31600  -4789.1716     -4827.7051      38.533441      2458.9689      296.03542      8072.1749      1.2452074      0.75871241   
     31700  -4789.6933     -4828.4857      38.7924        4963.1271      298.02489      8088.4451      1.2427026      0.75871241   
     31800  -4789.9326     -4828.075       38.142409      3549.1171      293.0313       8091.8345      1.2421821      0.75871241   
     31900  -4790.7258     -4829.2823      38.556521      369.00742      296.21274      8080.3109      1.2439536      0.75871241   
     32000  -4790.4887     -4830.0574      39.568687      5151.6082      303.98876      8050.6496      1.2485367      0.7472783    
     32100  -4789.5595     -4827.8103      38.250802      3946.5075      293.86403      8011.8921      1.2545765      0.7472783    
     32200  -4789.4203     -4828.8651      39.44485       4402.7385      303.03738      7970.4509      1.2610995      0.7472783    
     32300  -4790.2004     -4829.7863      39.58589       9573.8744      304.12092      7936.1559      1.2665492      0.7472783    
     32400  -4789.8957     -4828.2965      38.4008        4267.8623      295.0164       7915.2625      1.2698924      0.7472783    
     32500  -4787.9439     -4828.284       40.340036      5647.2941      309.9147       7908.2304      1.2710216      0.7472783    
     32600  -4787.5413     -4827.8064      40.265089      5128.9179      309.33891      7919.1765      1.2692648      0.7472783    
     32700  -4789.024      -4829.3584      40.334478      4277.7182      309.872        7939.1969      1.266064       0.7472783    
     32800  -4791.5051     -4829.6897      38.184623      4836.5846      293.35561      7963.7839      1.2621553      0.7472783    
     32900  -4790.3657     -4827.4916      37.125972      5138.1209      285.22246      7988.3433      1.2582749      0.7472783    
     33000  -4788.6949     -4828.8864      40.191541      2387.7706      308.77388      8009.0684      1.2550188      0.64913999   
     33100  -4789.5897     -4828.882       39.292329      2278.9423      301.86562      8023.1035      1.2528234      0.64913999   
     33200  -4790.025      -4827.9885      37.963498      2279.5354      291.6568       8027.9181      1.252072       0.64913999   
     33300  -4789.2225     -4828.8653      39.64276       614.46841      304.55783      8020.6853      1.2532011      0.64913999   
     33400  -4788.8556     -4828.4125      39.556842      5863.3374      303.89776      8005.2938      1.2556106      0.64913999   
     33500  -4788.8792     -4827.8257      38.946527      6078.5061      299.20899      7990.317       1.2579641      0.64913999   
     33600  -4788.3345     -4828.3209      39.986409      4028.4322      307.19794      7980.627       1.2594915      0.64913999   
     33700  -4788.2938     -4829.5052      41.211397      1906.9977      316.60898      7973.7249      1.2605817      0.64913999   
     33800  -4788.8026     -4829.0711      40.268486      5526.135       309.36501      7967.9164      1.2615006      0.64913999   
     33900  -4788.6534     -4829.0951      40.441713      7264.4165      310.69584      7969.7739      1.2612066      0.64913999   
     34000  -4788.0781     -4827.8094      39.731302      7607.9373      305.23806      7977.4256      1.2599969      0.75267495   
     34100  -4787.8186     -4828.2229      40.404304      3643.1624      310.40844      7992.7274      1.2575847      0.75267495   
     34200  -4787.9265     -4827.6006      39.67406       5022.2103      304.7983       8006.4312      1.2554322      0.75267495   
     34300  -4787.5465     -4826.7244      39.17791       2454.5324      300.9866       8019.8173      1.2533367      0.75267495   
     34400  -4786.294      -4826.8767      40.582697      5183.5217      311.77895      8030.2009      1.2517161      0.75267495   
     34500  -4787.7898     -4826.8954      39.105638      7509.2179      300.43136      8033.1397      1.2512582      0.75267495   
     34600  -4788.5929     -4826.3724      37.779531      6184.6246      290.24347      8028.8141      1.2519323      0.75267495   
     34700  -4790.147      -4828.4696      38.322623      6214.4608      294.4158       8017.2265      1.2537418      0.75267495   
     34800  -4788.5749     -4828.8821      40.307278      6248.2325      309.66303      7997.0906      1.2568986      0.75267495   
     34900  -4791.1392     -4830.4503      39.311085      4065.5622      302.00972      7973.4959      1.2606179      0.75267495   
     35000  -4791.4301     -4830.0464      38.616324      1987.6527      296.67218      7954.504       1.2636277      0.67989129   
     35100  -4789.9514     -4827.6825      37.731139      4021.483       289.87169      7938.2856      1.2662094      0.67989129   
     35200  -4789.2464     -4828.6596      39.413234      4992.771       302.79449      7930.0483      1.2675247      0.67989129   
     35300  -4788.8111     -4827.5061      38.694971      5612.6514      297.27639      7938.6794      1.2661466      0.67989129   
     35400  -4789.8442     -4827.5559      37.711683      7603.726       289.72222      7965.1985      1.2619311      0.67989129   
     35500  -4788.6586     -4828.0049      39.346271      7273.1597      302.28004      8002.0619      1.2561177      0.67989129   
     35600  -4787.6654     -4828.7343      41.068897      4906.424       315.51422      8040.7001      1.2500817      0.67989129   
     35700  -4789.3277     -4828.7699      39.442164      3540.9697      303.01675      8071.8282      1.2452609      0.67989129   
     35800  -4790.104      -4828.2919      38.187861      5358.8241      293.38049      8090.4505      1.2423946      0.67989129   
     35900  -4790.7054     -4829.1956      38.4902        2623.1182      295.70322      8090.9138      1.2423234      0.67989129   
     36000  -4792.3827     -4828.8372      36.454472     -628.30488      280.06363      8066.3443      1.2461074      0.71441525   
     36100  -4791.2573     -4828.8618      37.604428      3079.23        288.89823      8018.1745      1.2535935      0.71441525   
     36200  -4791.4818     -4829.8882      38.406362      4069.8873      295.05913      7955.3763      1.2634892      0.71441525   
     36300  -4790.5459     -4830.1132      39.567388      6682.1702      303.97878      7891.4789      1.2737196      0.71441525   
     36400  -4788.9009     -4828.4718      39.570951      7323.9386      304.00616      7843.1821      1.281563       0.71441525   
     36500  -4789.2775     -4828.4322      39.154708      11849.715      300.80835      7828.6458      1.2839426      0.71441525   
     36600  -4789.0586     -4827.7252      38.666605      11689.105      297.05847      7846.6591      1.2809951      0.71441525   
     36700  -4789.1572     -4829.2067      40.049516      7009.0543      307.68276      7894.3154      1.273262       0.71441525   
     36800  -4788.4986     -4828.7655      40.26692       4540.7135      309.35298      7957.038       1.2632253      0.71441525   
     36900  -4789.2641     -4827.6504      38.386316      2052.7604      294.90513      8020.8052      1.2531824      0.71441525   
     37000  -4789.9768     -4827.475       37.498271      479.88748      288.08267      8073.1943      1.2450501      0.77052453   
     37100  -4791.1369     -4828.0875      36.950575      984.37621      283.87496      8103.3076      1.2404233      0.77052453   
     37200  -4790.1862     -4828.5044      38.318141      6856.2087      294.38137      8108.2122      1.239673       0.77052453   
     37300  -4792.0438     -4830.1953      38.151503      2968.6313      293.10117      8089.1828      1.2425893      0.77052453   
     37400  -4791.1072     -4829.7187      38.611478      586.06477      296.63495      8044.9386      1.249423       0.77052453   
     37500  -4791.0248     -4828.7903      37.765422      6080.8117      290.13508      7988.771       1.2582075      0.77052453   
     37600  -4791.2822     -4828.2251      36.942828      7736.55        283.81545      7930.3128      1.2674824      0.77052453   
     37700  -4788.6531     -4827.0075      38.354379      8566.1037      294.65977      7884.3288      1.2748748      0.77052453   
     37800  -4788.1584     -4827.8293      39.670915      10503.862      304.77413      7865.0206      1.2780045      0.77052453   
     37900  -4789.0623     -4828.8759      39.813577      7983.9191      305.87014      7874.5515      1.2764577      0.77052453   
     38000  -4789.3647     -4828.4012      39.036487      5862.607       299.9001       7904.2953      1.2716544      0.66770342   
     38100  -4789.7137     -4829.8793      40.165582      4709.2922      308.57444      7948.6444      1.2645592      0.66770342   
     38200  -4789.5768     -4827.7661      38.189352      3011.7608      293.39194      8002.4317      1.2560597      0.66770342   
     38300  -4790.4021     -4827.648       37.245821      6130.1724      286.14321      8051.2262      1.2484473      0.66770342   
     38400  -4789.6371     -4828.4649      38.827739      3801.6885      298.29639      8082.5504      1.2436089      0.66770342   
     38500  -4790.1508     -4829.5582      39.407402      2020.3612      302.74968      8092.3095      1.2421092      0.66770342   
     38600  -4792.2952     -4828.9401      36.644896      4488.0214      281.52657      8080.2272      1.2439665      0.66770342   
     38700  -4790.4103     -4828.4391      38.028735      2782.0599      292.15799      8050.0559      1.2486288      0.66770342   
     38800  -4789.6427     -4829.3196      39.676922      3148.4775      304.82028      8008.3284      1.2551348      0.66770342   
     38900  -4791.3077     -4830.3754      39.067673      2522.9313      300.13969      7963.7681      1.2621578      0.66770342   
     39000  -4789.9221     -4829.8141      39.891993      6974.1693      306.47258      7920.3828      1.2690715      0.68634173   
     39100  -4789.5791     -4828.9747      39.395583      7975.3862      302.65888      7895.8756      1.2730104      0.68634173   
     39200  -4787.5361     -4826.1039      38.567788      8276.9873      296.2993       7897.6381      1.2727263      0.68634173   
     39300  -4787.5274     -4826.9234      39.396003      7792.6817      302.6621       7929.2781      1.2676478      0.68634173   
     39400  -4789.4248     -4829.445       40.02016       2779.9091      307.45723      7980.7177      1.2594772      0.68634173   
     39500  -4790.0433     -4828.2992      38.255821      4797.9963      293.90259      8040.4289      1.2501238      0.68634173   
     39600  -4788.363      -4827.715       39.35196       5177.0491      302.32375      8096.4194      1.2414786      0.68634173   
     39700  -4788.2394     -4828.5736      40.334219      4753.9004      309.87001      8128.9833      1.2365054      0.68634173   
     39800  -4789.2366     -4829.0034      39.766808      4116.5346      305.51084      8132.927       1.2359058      0.68634173   
     39900  -4788.8411     -4826.9819      38.140822      2868.3344      293.01911      8103.7626      1.2403537      0.68634173   
     40000  -4788.6318     -4828.2179      39.586136      6073.7091      304.12282      8049.8744      1.248657       0.66571859   
     40100  -4787.7767     -4828.3359      40.559172      6726.658       311.59822      7989.4582      1.2580993      0.66571859   
     40200  -4787.927      -4828.0915      40.164487      6954.3323      308.56603      7936.9112      1.2664286      0.66571859   
     40300  -4788.2738     -4828.2204      39.946633      2506.3213      306.89235      7901.9963      1.2720243      0.66571859   
     40400  -4788.3173     -4829.2844      40.967045      6337.5511      314.73173      7890.3856      1.2738961      0.66571859   
     40500  -4787.5316     -4826.6094      39.077855      9721.7228      300.21791      7902.5941      1.2719281      0.66571859   
     40600  -4788.3277     -4827.3513      39.023596      9745.8422      299.80107      7941.1078      1.2657594      0.66571859   
     40700  -4789.0728     -4828.6783      39.605563      6679.0517      304.27206      7996.7941      1.2569452      0.66571859   
     40800  -4789.7157     -4828.0776      38.361923      5013.6073      294.71773      8054.7329      1.2479038      0.66571859   
     40900  -4788.2833     -4828.7721      40.488842      3048.358       311.05791      8099.7524      1.2409678      0.66571859   
     41000  -4787.9178     -4827.0519      39.134095      3439.7898      300.64998      8121.6146      1.2376273      0.64569561   
     41100  -4788.5409     -4828.1822      39.641337      3920.3445      304.5469       8117.3868      1.2382719      0.64569561   
     41200  -4787.568      -4827.4397      39.871674      5682.3809      306.31648      8083.367       1.2434833      0.64569561   
     41300  -4788.9797     -4828.1775      39.197788      9211.974       301.13931      8031.757       1.2514736      0.64569561   
     41400  -4790.0246     -4829.2682      39.243628      8782.3739      301.49148      7969.5634      1.2612399      0.64569561   
     41500  -4790.3897     -4829.8569      39.467198      6670.2336      303.20907      7910.9056      1.2705918      0.64569561   
     41600  -4791.363      -4829.4884      38.125434      6194.968       292.90088      7868.5169      1.2774366      0.64569561   
     41700  -4790.0357     -4827.7488      37.71312       7716.0293      289.73326      7850.1205      1.2804302      0.64569561   
     41800  -4789.7402     -4828.4021      38.661942      6299.0957      297.02264      7864.0358      1.2781645      0.64569561   
     41900  -4790.0744     -4828.9553      38.880856      3728.6496      298.70446      7908.7317      1.270941       0.64569561   
     42000  -4790.4292     -4829.3238      38.894542      1059.4012      298.8096       7974.2744      1.2604948      0.64414325   
     42100  -4789.6495     -4827.8145      38.165033      2139.4064      293.20511      8042.3105      1.2498313      0.64414325   
     42200  -4790.2846     -4829.15        38.865455      2665.6967      298.58614      8097.636       1.2412921      0.64414325   
     42300  -4789.054      -4827.4286      38.37464       3688.3463      294.81543      8124.4404      1.2371968      0.64414325   
     42400  -4788.1466     -4827.0094      38.862861     -42.43596       298.56622      8122.1376      1.2375476      0.64414325   
     42500  -4787.7451     -4827.3991      39.653987      5514.3231      304.64409      8093.0136      1.2420011      0.64414325   
     42600  -4788.7152     -4827.9003      39.185169      4564.3157      301.04236      8046.5769      1.2491687      0.64414325   
     42700  -4788.531      -4827.9702      39.439147      4039.3836      302.99357      7990.9722      1.2578609      0.64414325   
     42800  -4788.3872     -4827.6574      39.270245      4576.408       301.69597      7938.7952      1.2661281      0.64414325   
     42900  -4788.8884     -4827.9949      39.106536      6750.1648      300.43826      7899.1523      1.2724823      0.64414325   
     43000  -4788.7323     -4828.7519      40.019666      5153.1847      307.45343      7876.9935      1.276062       0.77213271   
     43100  -4787.4811     -4827.37        39.888916      7698.2919      306.44894      7881.044       1.2754061      0.77213271   
     43200  -4786.9837     -4827.5976      40.613878      9771.1441      312.01851      7909.6198      1.2707983      0.77213271   
     43300  -4787.7929     -4827.5876      39.794674      5652.954       305.72492      7960.6364      1.2626543      0.77213271   
     43400  -4788.6624     -4828.0751      39.412782      3999.68        302.79102      8021.7897      1.2530286      0.77213271   
     43500  -4787.8567     -4829.1357      41.278979      7606.6583      317.12818      8080.0293      1.2439969      0.77213271   
     43600  -4788.0235     -4826.266       38.242523      5507.2698      293.80043      8123.9274      1.2372749      0.77213271   
     43700  -4787.1136     -4826.2995      39.185927     -701.83767      301.04819      8145.1325      1.2340538      0.77213271   
     43800  -4787.4612     -4828.5856      41.124414     -161.51336      315.94072      8139.1572      1.2349598      0.77213271   
     43900  -4787.4067     -4827.8626      40.455903      3583.9583      310.80485      8102.8492      1.2404935      0.77213271   
     44000  -4789.3273     -4828.4817      39.154416      4142.2377      300.8061       8043.5068      1.2496455      0.79375447   
     44100  -4789.4632     -4829.0674      39.604224      7289.3448      304.26177      7974.3305      1.260486       0.79375447   
     44200  -4788.905      -4827.169       38.264065      9029.3189      293.96593      7914.842       1.2699599      0.79375447   
     44300  -4787.4449     -4828.5777      41.132828      8867.4751      316.00536      7881.0489      1.2754053      0.79375447   
     44400  -4786.8531     -4828.3292      41.476022      9156.7084      318.64197      7881.8322      1.2752786      0.79375447   
     44500  -4788.149      -4829.2776      41.128616      12198.526      315.97301      7914.3382      1.2700407      0.79375447   
     44600  -4786.944      -4826.9476      40.003627      8533.2116      307.33021      7968.0873      1.2614736      0.79375447   
     44700  -4786.5111     -4826.2561      39.745061      5151.5431      305.34377      8030.2015      1.251716       0.79375447   
     44800  -4788.0385     -4827.8151      39.776597      6487.4112      305.58605      8086.7885      1.2429572      0.79375447   
     44900  -4789.3822     -4828.0495      38.667278      1925.3814      297.06364      8125.8664      1.2369797      0.79375447   
     45000  -4789.3133     -4827.8706      38.557296      167.39332      296.2187       8144.0859      1.2342124      0.63480796   
     45100  -4790.8229     -4828.4044      37.581516      3598.4157      288.7222       8136.3895      1.2353799      0.63480796   
     45200  -4789.7578     -4828.7832      39.025442      4608.7245      299.81525      8100.9867      1.2407787      0.63480796   
     45300  -4790.0842     -4828.5655      38.481304      4560.4587      295.63488      8045.8411      1.2492829      0.63480796   
     45400  -4789.8399     -4829.6119      39.772024      1189.5141      305.55091      7985.6422      1.2587005      0.63480796   
     45500  -4788.2635     -4827.6373      39.373815      9124.8894      302.49165      7930.279       1.2674878      0.63480796   
     45600  -4788.0926     -4827.9577      39.865128      2992.4137      306.26619      7896.7139      1.2728752      0.63480796   
     45700  -4788.6482     -4828.9896      40.341418      5179.1977      309.92532      7891.3703      1.2737372      0.63480796   
     45800  -4788.947      -4828.0078      39.060729      7012.0786      300.08634      7910.0464      1.2707298      0.63480796   
     45900  -4790.1333     -4829.8013      39.668046      9823.7464      304.7521       7951.1176      1.2641659      0.63480796   
     46000  -4789.9726     -4829.2427      39.270111      6015.9187      301.69494      8000.4253      1.2563747      0.69511852   
     46100  -4788.185      -4827.6525      39.467481      6868.5155      303.21124      8049.3482      1.2487386      0.69511852   
     46200  -4788.6193     -4827.7559      39.136599      3223.1987      300.66922      8087.8032      1.2428012      0.69511852   
     46300  -4788.4082     -4828.1697      39.76151      -601.58481      305.47014      8107.3711      1.2398016      0.69511852   
     46400  -4789.137      -4829.0298      39.892806     -503.46488      306.47883      8103.7111      1.2403615      0.69511852   
     46500  -4789.3053     -4827.8603      38.555085      4488.8656      296.20171      8074.8423      1.244796       0.69511852   
     46600  -4787.8545     -4827.3517      39.497186      715.39484      303.43945      8030.1484      1.2517243      0.69511852   
     46700  -4787.2119     -4826.254       39.042056      8313.54        299.94289      7985.3314      1.2587495      0.69511852   
     46800  -4789.436      -4828.3668      38.930809      6119.4868      299.08823      7953.1404      1.2638444      0.69511852   
     46900  -4788.4177     -4828.9033      40.485683      6353.8328      311.03364      7937.5369      1.2663288      0.69511852   
     47000  -4788.8573     -4829.1018      40.244562      5542.6322      309.18121      7943.2831      1.2654127      0.63468865   
     47100  -4788.4716     -4827.4468      38.975166      7167.7292      299.429        7963.8978      1.2621372      0.63468865   
     47200  -4789.0358     -4828.3772      39.341455      3161.5803      302.24304      7995.4257      1.2571603      0.63468865   
     47300  -4790.2834     -4829.5102      39.226814      2172.358       301.3623       8035.1371      1.2509471      0.63468865   
     47400  -4792.0358     -4829.5902      37.554398      3321.2105      288.51387      8068.6631      1.2457493      0.63468865   
     47500  -4791.0075     -4829.8287      38.82116       3271.7321      298.24584      8084.1322      1.2433656      0.63468865   
     47600  -4790.8466     -4829.8742      39.027625      4942.706       299.83203      8077.47        1.2443911      0.63468865   
     47700  -4790.428      -4828.6623      38.234276      4837.4725      293.73707      8050.4778      1.2485634      0.63468865   
     47800  -4789.5016     -4828.9053      39.403762      6878.3441      302.72172      8011.2164      1.2546823      0.63468865   
     47900  -4789.1233     -4827.7389      38.61566       9650.2376      296.66708      7970.5874      1.2610779      0.63468865   
     48000  -4790.3847     -4828.7554      38.370672      4472.0506      294.78494      7939.3881      1.2660335      0.6920484    
     48100  -4789.0796     -4827.5374      38.457811      6473.1182      295.45439      7921.0307      1.2689676      0.6920484    
     48200  -4788.1936     -4828.7173      40.523632      4866.8424      311.32519      7922.6199      1.2687131      0.6920484    
     48300  -4789.4399     -4828.7156      39.275611      7345.7521      301.73719      7942.9046      1.265473       0.6920484    
     48400  -4790.4123     -4829.2749      38.862627      3384.5001      298.56442      7980.4315      1.2595223      0.6920484    
     48500  -4789.782      -4829.6893      39.90737       3466.089       306.59072      8029.0245      1.2518995      0.6920484    
     48600  -4789.3761     -4829.0834      39.707313      2158.2466      305.05377      8080.1004      1.243986       0.6920484    
     48700  -4789.408      -4827.9333      38.525279      1780.7024      295.97272      8125.241       1.2370749      0.6920484    
     48800  -4789.0265     -4826.9127      37.886156      1004.5492      291.06262      8152.8227      1.2328898      0.6920484    
     48900  -4788.643      -4827.8872      39.244225      1406.8695      301.49606      8154.5486      1.2326288      0.6920484    
     49000  -4786.9472     -4825.6544      38.707136      3256.9014      297.36985      8128.4848      1.2365812      0.65870934   
     49100  -4786.2718     -4827.0956      40.823795      343.23401      313.6312       8082.5007      1.2436166      0.65870934   
     49200  -4787.9336     -4827.9165      39.98294       2302.7649      307.17129      8025.3283      1.2524761      0.65870934   
     49300  -4788.3222     -4827.8698      39.547663      5132.7483      303.82725      7961.4318      1.2625281      0.65870934   
     49400  -4787.9363     -4827.0233      39.087005      8025.1767      300.28821      7905.1275      1.2715205      0.65870934   
     49500  -4788.8203     -4828.5398      39.719508      9874.2365      305.14745      7871.057       1.2770244      0.65870934   
     49600  -4788.6049     -4827.033       38.428149      5801.1324      295.22651      7869.9403      1.2772056      0.65870934   
     49700  -4788.0914     -4826.5113      38.419915      7213.4059      295.16326      7902.1448      1.2720004      0.65870934   
     49800  -4789.1136     -4828.2813      39.167691      3823.3902      300.90809      7961.2448      1.2625578      0.65870934   
     49900  -4789.4534     -4828.8062      39.352815      5862.5786      302.33031      8034.2928      1.2510786      0.65870934   
     50000  -4789.5266     -4829.6723      40.145663      3713.0443      308.42141      8100.5282      1.2408489      0.70278511   
     50100  -4789.5354     -4828.6746      39.139143      2592.7203      300.68876      8145.445       1.2340064      0.70278511   
     50200  -4789.2699     -4826.7017      37.431782      3442.4907      287.57187      8159.8743      1.2318243      0.70278511   
     50300  -4788.0866     -4827.6291      39.542442      4692.2459      303.78713      8141.2928      1.2346358      0.70278511   
     50400  -4788.6347     -4828.0058      39.371036      4058.1898      302.4703       8096.682       1.2414384      0.70278511   
     50500  -4788.1877     -4828.947       40.75923       2645.3872      313.13518      8040.0929      1.2501761      0.70278511   
     50600  -4787.9374     -4828.0574      40.12004       5545.4004      308.22457      7983.3301      1.259065       0.70278511   
     50700  -4788.5039     -4826.7305      38.226625      7333.3776      293.67829      7937.4963      1.2663353      0.70278511   
     50800  -4788.3976     -4828.6755      40.277963      8514.8801      309.43781      7909.9096      1.2707518      0.70278511   
     50900  -4789.8307     -4829.1158      39.285068      11212.275      301.80985      7906.3368      1.271326       0.70278511   
     51000  -4790.836      -4829.9826      39.146662      8348.6762      300.74653      7924.8409      1.2683575      0.69102414   
     51100  -4791.4687     -4830.0336      38.564865      5379.8153      296.27684      7953.9177      1.2637209      0.69102414   
     51200  -4790.478      -4828.8565      38.378549      2650.4987      294.84545      7990.1122      1.2579963      0.69102414   
     51300  -4790.7131     -4827.6145      36.901374      2941.1877      283.49697      8027.0808      1.2522026      0.69102414   
     51400  -4790.5944     -4829.2391      38.644757      4755.3114      296.89062      8054.9567      1.2478691      0.69102414   
     51500  -4790.3876     -4828.9593      38.571719      5289.3562      296.3295       8068.0351      1.2458463      0.69102414   
     51600  -4789.2085     -4828.7093      39.500843      7383.3983      303.46755      8062.2906      1.246734       0.69102414   
     51700  -4789.2208     -4828.9381      39.717277      6670.8445      305.13032      8036.9625      1.250663       0.69102414   
     51800  -4789.4084     -4829.6473      40.238874      5478.8142      309.13751      8006.4268      1.2554329      0.69102414   
     51900  -4789.7695     -4829.9621      40.19263       7154.5002      308.78224      7974.5395      1.2604529      0.69102414   
     52000  -4789.3071     -4827.4614      38.154242      6820.01        293.1222       7950.3235      1.2642922      0.65204202   
     52100  -4790.5607     -4829.4594      38.898772      5802.7928      298.8421       7942.7416      1.265499       0.65204202   
     52200  -4789.6435     -4829.1416      39.498098      8387.5495      303.44646      7947.0144      1.2648186      0.65204202   
     52300  -4791.2529     -4829.8436      38.590719      6955.8557      296.47547      7962.0558      1.2624292      0.65204202   
     52400  -4790.9361     -4829.3659      38.429807      2325.9842      295.23925      7982.6374      1.2591743      0.65204202   
     52500  -4792.4816     -4830.15        37.668388      5576.033       289.3896       8003.3514      1.2559153      0.65204202   
     52600  -4791.4097     -4830.0278      38.618083      5446.8136      296.68569      8022.4316      1.2529283      0.65204202   
     52700  -4791.7572     -4829.7784      38.021282      5425.8073      292.10073      8035.6797      1.2508627      0.65204202   
     52800  -4790.5474     -4828.1206      37.573239      2736.5821      288.65862      8045.2319      1.2493775      0.65204202   
     52900  -4790.264      -4828.5821      38.31811       2727.0832      294.38113      8051.1508      1.248459       0.65204202   
     53000  -4789.9695     -4828.462       38.49244      -3.1687489      295.72043      8048.3679      1.2488907      0.6672722    
     53100  -4789.4326     -4828.5973      39.164777      4871.6397      300.8857       8038.061       1.2504921      0.6672722    
     53200  -4788.9881     -4829.6944      40.70626       3156.0828      312.72823      8022.0478      1.2529883      0.6672722    
     53300  -4789.6732     -4828.8354      39.162172      3790.2081      300.86568      8001.5343      1.2562005      0.6672722    
     53400  -4789.1751     -4828.006       38.830953      4357.6681      298.32108      7981.8481      1.2592988      0.6672722    
     53500  -4789.295      -4829.39        40.095009      5989.1472      308.03226      7971.3354      1.2609596      0.6672722    
     53600  -4790.4949     -4828.5911      38.096182      5444.0391      292.67615      7973.8139      1.2605676      0.6672722    
     53700  -4789.1565     -4829.5004      40.343883      3248.5104      309.94426      7985.2057      1.2587693      0.6672722    
     53800  -4789.6468     -4829.0807      39.433885      3623.7353      302.95314      7999.9683      1.2564464      0.6672722    
     53900  -4791.1996     -4828.5107      37.311123      2351.2101      286.64489      8011.9031      1.2545748      0.6672722    
     54000  -4790.6868     -4828.7795      38.092635      4987.4042      292.6489       8018.9453      1.253473       0.76338042   
     54100  -4789.2448     -4827.9681      38.723241      5686.8201      297.49358      8021.3899      1.253091       0.76338042   
     54200  -4787.9843     -4827.8781      39.893783      4595.8001      306.48633      8022.0752      1.252984       0.76338042   
     54300  -4787.2521     -4827.403       40.150931      2565.3586      308.46188      8023.6721      1.2527346      0.76338042   
     54400  -4787.6803     -4827.7725      40.092194      4468.2539      308.01064      8021.9066      1.2530103      0.76338042   
     54500  -4787.4251     -4828.3155      40.890418      8008.489       314.14304      8012.8551      1.2544257      0.76338042   
     54600  -4787.7579     -4827.4357      39.67789       7356.8527      304.82772      8002.5465      1.2560416      0.76338042   
     54700  -4788.6037     -4829.0956      40.491908      5189.1777      311.08146      7996.3197      1.2570197      0.76338042   
     54800  -4787.7557     -4827.632       39.876335      6297.4131      306.35228      7992.1207      1.2576802      0.76338042   
     54900  -4788.7781     -4828.4119      39.633771      6097.9988      304.48877      7990.1221      1.2579947      0.76338042   
     55000  -4790.2024     -4828.2716      38.069233      2479.5996      292.46912      7989.4558      1.2580997      0.67577637   
     55100  -4790.6655     -4829.1337      38.468205      3934.7166      295.53424      7987.2984      1.2584395      0.67577637   
     55200  -4789.2345     -4828.6043      39.369791      4228.9489      302.46073      7988.2675      1.2582868      0.67577637   
     55300  -4789.68       -4829.0616      39.381551      4220.2723      302.55108      7995.9097      1.2570842      0.67577637   
     55400  -4790.6777     -4829.7877      39.110064      5685.1203      300.46537      8002.8691      1.255991       0.67577637   
     55500  -4790.9567     -4828.1558      37.199022      5725.3608      285.78367      8004.5297      1.2557305      0.67577637   
     55600  -4790.6954     -4829.9141      39.21875       3510.0942      301.30035      8005.2405      1.255619       0.67577637   
     55700  -4789.7835     -4828.719       38.935459      5787.3782      299.12395      8002.6609      1.2560237      0.67577637   
     55800  -4789.9204     -4827.2501      37.329767      4320.2624      286.78813      7992.8902      1.2575591      0.67577637   
     55900  -4790.1389     -4829.3161      39.177241      2904.3084      300.98145      7981.3067      1.2593842      0.67577637   
     56000  -4788.5817     -4828.897       40.315309      7511.553       309.72473      7970.2185      1.2611363      0.70052519   
     56100  -4790.3013     -4831.1137      40.81241       7764.0793      313.54374      7959.632       1.2628136      0.70052519   
     56200  -4788.5038     -4829.0804      40.576544      7570.1515      311.73168      7949.9747      1.2643476      0.70052519   
     56300  -4789.3685     -4829.0956      39.72715       3693.5615      305.20616      7948.329       1.2646094      0.70052519   
     56400  -4792.2012     -4829.2664      37.065207      3433.5753      284.75563      7954.6189      1.2636095      0.70052519   
     56500  -4792.2381     -4828.6679      36.429838      3716.1236      279.87437      7961.0426      1.2625899      0.70052519   
     56600  -4790.8317     -4829.9264      39.094683      5904.2462      300.3472       7967.3035      1.2615977      0.70052519   
     56700  -4790.4609     -4829.2122      38.751362      7970.3049      297.70962      7972.1864      1.260825       0.70052519   
     56800  -4792.2091     -4830.4082      38.199082      4962.7939      293.46669      7973.2914      1.2606502      0.70052519   
     56900  -4790.8987     -4828.1043      37.205609      4663.5839      285.83428      7974.0191      1.2605352      0.70052519   
     57000  -4788.5575     -4826.5052      37.947721      6280.3012      291.5356       7983.9087      1.2589738      0.63391988   
     57100  -4788.4399     -4828.0525      39.612604      4996.3262      304.32616      7998.134       1.2567346      0.63391988   
     57200  -4788.4729     -4828.0985      39.625609      3434.2128      304.42607      8009.6527      1.2549273      0.63391988   
[...]
    386200  -4791.2534     -4830.2304      38.977038      7431.3392      299.44339      7970.6504      1.2610679      0.70494892   
    386300  -4790.9029     -4829.1527      38.249856      2735.9476      293.85677      7989.0422      1.2581648      0.70494892   
    386400  -4791.557      -4830.3781      38.821049      4121.9278      298.24499      7998.5234      1.2566734      0.70494892   
    386500  -4791.1724     -4829.0632      37.890708      6491.0388      291.09759      7998.9689      1.2566034      0.70494892   
    386600  -4790.6284     -4830.3958      39.767377      7117.8993      305.51521      7988.0103      1.2583273      0.70494892   
    386700  -4789.5235     -4829.0543      39.530821      8457.8161      303.69786      7972.5014      1.2607752      0.70494892   
    386800  -4789.8505     -4829.2676      39.417136      4863.1525      302.82447      7960.5225      1.2626724      0.70494892   
    386900  -4790.0547     -4830.4014      40.346657      6595.4838      309.96556      7951.5455      1.2640979      0.70494892   
    387000  -4789.1904     -4828.5804      39.389944      3744.6784      302.61556      7946.0929      1.2649653      0.67212523   
    387100  -4789.2232     -4827.4796      38.256436      6327.1008      293.90732      7946.7532      1.2648602      0.67212523   
    387200  -4791.0196     -4828.0439      37.024312      5541.4033      284.44145      7951.2747      1.2641409      0.67212523   
    387300  -4789.9448     -4828.8322      38.887387      2083.8831      298.75463      7956.4217      1.2633232      0.67212523   
    387400  -4789.1952     -4828.0637      38.868581      1893.7106      298.61016      7956.0211      1.2633868      0.67212523   
    387500  -4789.5369     -4828.3908      38.853948      5781.6728      298.49774      7953.3202      1.2638158      0.67212523   
    387600  -4788.9908     -4828.3016      39.310824      6876.5602      302.00772      7952.6854      1.2639167      0.67212523   
    387700  -4787.7615     -4828.7245      40.962977      6241.4761      314.70048      7959.2137      1.26288        0.67212523   
    387800  -4788.7421     -4827.6535      38.911445      8366.9372      298.93946      7971.6719      1.2609063      0.67212523   
    387900  -4789.4216     -4829.0918      39.67022       4371.7374      304.76879      7987.6917      1.2583775      0.67212523   
    388000  -4789.8053     -4829.1405      39.335131      2508.1431      302.19445      7992.9229      1.2575539      0.66108279   
    388100  -4791.4791     -4829.6218      38.142731      7706.4974      293.03377      7988.9014      1.258187       0.66108279   
    388200  -4790.9802     -4830.6499      39.669729      3415.2539      304.76503      7975.8047      1.260253       0.66108279   
    388300  -4790.493      -4829.5052      39.012171      5343.9589      299.7133       7956.2536      1.2633498      0.66108279   
    388400  -4789.4861     -4828.3789      38.892822      4029.1092      298.79639      7939.2001      1.2660635      0.66108279   
    388500  -4789.5387     -4828.3257      38.787019      2772.0363      297.98355      7930.095       1.2675172      0.66108279   
    388600  -4790.706      -4828.2657      37.559694      3709.1857      288.55455      7931.6922      1.2672619      0.66108279   
    388700  -4790.544      -4828.846       38.302062      5756.987       294.25784      7937.669       1.2663077      0.66108279   
    388800  -4791.1827     -4828.7826      37.59991       5278.3861      288.86352      7948.5659      1.2645717      0.66108279   
    388900  -4790.7925     -4829.5442      38.751703      3928.1038      297.71223      7960.8692      1.2626174      0.66108279   
    389000  -4788.1316     -4827.7697      39.638103      4135.4895      304.52206      7971.0844      1.2609993      0.72006614   
    389100  -4790.6391     -4829.716       39.07689       6185.3167      300.2105       7980.5729      1.2595         0.72006614   
    389200  -4788.5784     -4827.3641      38.785693      5099.7288      297.97337      7983.9485      1.2589675      0.72006614   
    389300  -4789.3475     -4828.5019      39.154402      1006.9353      300.806        7984.5736      1.2588689      0.72006614   
    389400  -4788.9334     -4828.5983      39.664936      2438.2339      304.7282       7982.2361      1.2592376      0.72006614   
    389500  -4790.4522     -4829.7688      39.316588      4804.1301      302.05199      7977.2278      1.2600282      0.72006614   
    389600  -4791.3519     -4830.6555      39.303614      5478.0098      301.95232      7966.2613      1.2617627      0.72006614   
    389700  -4790.832      -4829.0022      38.170256      951.18991      293.24524      7948.6541      1.2645577      0.72006614   
    389800  -4788.9009     -4827.8854      38.984499      689.56647      299.50071      7931.3832      1.2673113      0.72006614   
    389900  -4788.0972     -4828.0082      39.910983      8271.6717      306.61847      7924.4774      1.2684157      0.72006614   
    390000  -4789.632      -4828.6974      39.065365      7202.4455      300.12196      7933.6245      1.2669533      0.6265033    
    390100  -4789.6109     -4828.5034      38.892499      6702.4822      298.79391      7954.115       1.2636895      0.6265033    
    390200  -4789.5209     -4829.2667      39.745855      4520.4618      305.34987      7981.3637      1.2593752      0.6265033    
    390300  -4789.6417     -4829.0834      39.441768      9029.7428      303.0137       8004.3231      1.2557629      0.6265033    
    390400  -4788.7475     -4827.98        39.232514      6645.0491      301.40609      8018.0792      1.2536084      0.6265033    
    390500  -4788.357      -4827.4461      39.089103      3385.4965      300.30433      8023.2793      1.2527959      0.6265033    
    390600  -4788.6768     -4827.8051      39.128297      1732.2423      300.60544      8017.0535      1.2537688      0.6265033    
    390700  -4787.9143     -4826.2369      38.322652      4704.5758      294.41602      8000.1402      1.2564194      0.6265033    
    390800  -4787.6594     -4827.2872      39.627799      5509.406       304.4429       7980.3907      1.2595288      0.6265033    
    390900  -4788.2894     -4829.0717      40.78225       5472.9517      313.31203      7962.7713      1.2623158      0.6265033    
    391000  -4787.5441     -4827.5656      40.021431      4173.5837      307.467        7950.4094      1.2642785      0.72328013   
    391100  -4787.7467     -4827.7347      39.987984      3773.9917      307.21004      7945.9704      1.2649848      0.72328013   
    391200  -4788.1114     -4828.6186      40.507251      4510.3147      311.19934      7953.1067      1.2638497      0.72328013   
    391300  -4789.1426     -4828.9471      39.804544      4993.1058      305.80075      7968.5725      1.2613968      0.72328013   
    391400  -4789.6356     -4827.9706      38.335046      2368.6222      294.51124      7983.4815      1.2590411      0.72328013   
    391500  -4789.199      -4828.3626      39.163606      4604.6188      300.87671      7994.5094      1.2573044      0.72328013   
    391600  -4789.7264     -4829.4746      39.748197      2195.2947      305.36786      8002.3459      1.2560731      0.72328013   
    391700  -4789.9949     -4829.4741      39.479189      3933.0543      303.30119      8002.4951      1.2560497      0.72328013   
    391800  -4790.422      -4830.5819      40.159853      4018.5566      308.53043      7993.6979      1.257432       0.72328013   
    391900  -4790.3852     -4829.5963      39.211017      6078.0566      301.24094      7980.9929      1.2594337      0.72328013   
    392000  -4789.0821     -4828.1819      39.099769      5160.8622      300.38628      7968.3567      1.2614309      0.72630067   
    392100  -4790.2341     -4830.1822      39.948121      5486.517       306.90378      7958.5355      1.2629876      0.72630067   
    392200  -4791.007      -4829.1021      38.095095      3643.2312      292.6678       7952.9417      1.2638759      0.72630067   
    392300  -4791.9028     -4829.8863      37.983414      2638.3691      291.80981      7951.2101      1.2641512      0.72630067   
    392400  -4791.0103     -4830.3466      39.336275      8332.9491      302.20324      7948.3486      1.2646063      0.72630067   
    392500  -4790.1716     -4829.459       39.287399      3577.149       301.82775      7950.907       1.2641994      0.72630067   
    392600  -4790.2946     -4828.2439      37.949222      5900.4025      291.54713      7957.6869      1.2631223      0.72630067   
    392700  -4791.1628     -4830.631       39.468224      5166.4781      303.21695      7966.3286      1.2617521      0.72630067   
    392800  -4791.5247     -4829.6572      38.132552      4729.1044      292.95557      7972.0316      1.2608495      0.72630067   
    392900  -4791.039      -4828.8699      37.8309        6142.2552      290.63812      7973.8147      1.2605675      0.72630067   
    393000  -4789.8531     -4828.2876      38.434542      4145.4883      295.27563      7971.3828      1.2609521      0.69562908   
    393100  -4789.983      -4828.3165      38.333508      5830.7486      294.49943      7961.548       1.2625097      0.69562908   
    393200  -4790.4053     -4829.9055      39.50015       4407.7786      303.46222      7952.2178      1.263991       0.69562908   
    393300  -4791.8156     -4831.0634      39.247767      1104.1802      301.52328      7946.3239      1.2649285      0.69562908   
    393400  -4791.5375     -4828.8474      37.309939      3968.9078      286.6358       7941.7108      1.2656633      0.69562908   
    393500  -4790.8936     -4828.8432      37.949583      5994.2988      291.54991      7943.6049      1.2653615      0.69562908   
    393600  -4791.8489     -4829.6108      37.761825      4910.6647      290.10744      7947.9876      1.2646637      0.69562908   
    393700  -4791.9136     -4829.2442      37.330599      1005.7428      286.79452      7955.1447      1.2635259      0.69562908   
    393800  -4792.1711     -4830.7436      38.572436      3249.5436      296.33501      7961.3429      1.2625422      0.69562908   
    393900  -4791.198      -4829.1616      37.963596      5887.6345      291.65756      7963.4681      1.2622053      0.69562908   
    394000  -4789.8729     -4828.7707      38.897739      7756.813       298.83417      7961.3727      1.2625375      0.7158887    
    394100  -4790.2132     -4830.5957      40.382473      8206.9797      310.24072      7956.3117      1.2633406      0.7158887    
    394200  -4789.6881     -4829.1329      39.444761      3529.4586      303.0367       7955.578       1.2634571      0.7158887    
    394300  -4790.0057     -4829.1222      39.116477      3889.1602      300.51463      7957.9118      1.2630866      0.7158887    
    394400  -4788.4651     -4828.8948      40.42974       2925.7291      310.60385      7961.2274      1.2625606      0.7158887    
    394500  -4789.1805     -4827.9885      38.808055      8946.9921      298.14516      7966.2193      1.2617694      0.7158887    
    394600  -4789.1687     -4827.5177      38.349         6499.2474      294.61844      7971.8631      1.2608761      0.7158887    
    394700  -4788.8262     -4827.4153      38.58915       4273.2401      296.46341      7978.8923      1.2597653      0.7158887    
    394800  -4788.5997     -4828.5755      39.975755      3990.2953      307.11609      7985.0642      1.2587916      0.7158887    
    394900  -4787.946      -4829.2493      41.303383      4601.363       317.31567      7987.4852      1.2584101      0.7158887    
    395000  -4789.2127     -4828.7766      39.563915      6768.2427      303.9521       7985.6764      1.2586951      0.69428098   
    395100  -4790.2069     -4829.0368      38.829957      6719.3322      298.31343      7983.1714      1.25909        0.69428098   
    395200  -4789.7095     -4828.704       38.994505      3101.6508      299.57758      7979.9514      1.2595981      0.69428098   
    395300  -4790.0742     -4828.1533      38.079118      4062.2071      292.54506      7976.0603      1.2602126      0.69428098   
    395400  -4789.4248     -4828.6108      39.18602       5217.1245      301.0489       7970.2189      1.2611362      0.69428098   
    395500  -4789.1382     -4827.5064      38.368192      5233.3183      294.76589      7962.4971      1.2623592      0.69428098   
    395600  -4789.0264     -4828.9071      39.88061       5365.4301      306.38513      7954.8752      1.2635687      0.69428098   
    395700  -4789.3177     -4829.6326      40.314894      4101.4439      309.72154      7946.1862      1.2649504      0.69428098   
    395800  -4788.9476     -4827.6419      38.694321      7266.5807      297.27139      7938.8018      1.266127       0.69428098   
    395900  -4789.3316     -4828.7863      39.4547        5707.2726      303.11305      7941.048       1.2657689      0.69428098   
    396000  -4789.127      -4828.743       39.616024      7544.1507      304.35243      7953.7001      1.2637554      0.7511573    
    396100  -4790.418      -4829.6949      39.276891      6774.3756      301.74702      7975.7227      1.2602659      0.7511573    
    396200  -4790.509      -4828.2666      37.757525      3499.2929      290.0744       7999.2819      1.2565543      0.7511573    
    396300  -4789.505      -4828.6718      39.166766      360.08086      300.90099      8015.4632      1.2540176      0.7511573    
    396400  -4790.1308     -4828.3898      38.259058     -332.77323      293.92746      8017.3229      1.2537267      0.7511573    
    396500  -4789.8136     -4828.5539      38.740274      2986.3935      297.62443      8008.2893      1.2551409      0.7511573    
    396600  -4788.3931     -4828.3228      39.929694      7239.6814      306.76222      7993.5087      1.2574618      0.7511573    
    396700  -4789.8766     -4828.7259      38.849321      9408.3613      298.46219      7979.9976      1.2595908      0.7511573    
    396800  -4791.0877     -4830.6043      39.516585      5753.1551      303.58848      7972.2652      1.2608125      0.7511573    
    396900  -4793.3441     -4831.095       37.750883      4943.7649      290.02337      7966.4362      1.261735       0.7511573    
    397000  -4793.2234     -4829.8352      36.611782      8204.7765      281.27217      7964.2725      1.2620778      0.71612073   
    397100  -4793.1367     -4828.9572      35.820541      7444.5441      275.19341      7962.2529      1.2623979      0.71612073   
    397200  -4792.2864     -4830.1054      37.818916      4090.1802      290.54604      7959.8981      1.2627714      0.71612073   
    397300  -4791.4419     -4828.9599      37.518022      6233.2633      288.23441      7957.4644      1.2631576      0.71612073   
    397400  -4791.4292     -4829.7018      38.272636      4079.6351      294.03178      7957.3459      1.2631764      0.71612073   
    397500  -4789.4613     -4828.2771      38.815831      6921.2489      298.2049       7959.7943      1.2627879      0.71612073   
    397600  -4790.0191     -4828.1518      38.132754      5608.3527      292.95713      7962.2801      1.2623936      0.71612073   
    397700  -4790.9654     -4829.1849      38.21955       4317.4892      293.62394      7963.3458      1.2622247      0.71612073   
    397800  -4791.2353     -4830.7984      39.563162      8118.0087      303.94632      7963.2605      1.2622382      0.71612073   
    397900  -4791.2674     -4829.2647      37.997338      6398.879       291.91678      7963.5619      1.2621904      0.71612073   
    398000  -4791.1495     -4828.9633      37.813754      623.09091      290.50639      7963.8094      1.2621512      0.63039218   
    398100  -4790.7701     -4827.9341      37.164006      3893.4941      285.51466      7962.0805      1.2624253      0.63039218   
    398200  -4792.2339     -4830.4955      38.26164       6744.2111      293.9473       7960.0145      1.2627529      0.63039218   
    398300  -4790.0391     -4828.7911      38.751924      8335.386       297.71393      7956.3605      1.2633329      0.63039218   
    398400  -4789.7523     -4828.5609      38.808593      10068.83       298.1493       7957.3939      1.2631688      0.63039218   
    398500  -4789.1731     -4828.3107      39.137566      5323.2897      300.67665      7966.5191      1.2617219      0.63039218   
    398600  -4789.9242     -4828.5351      38.610853      5152.3975      296.63015      7981.3866      1.2593716      0.63039218   
    398700  -4789.5459     -4829.6223      40.076405      2234.1428      307.88933      7995.9072      1.2570846      0.63039218   
    398800  -4789.231      -4828.209       38.978077      4387.0073      299.45136      8005.6873      1.2555489      0.63039218   
    398900  -4788.7605     -4827.9255      39.165035      4665.9739      300.88769      8011.894       1.2545762      0.63039218   
    399000  -4789.2423     -4829.2304      39.9881        6539.2042      307.21092      8012.163       1.2545341      0.63880309   
    399100  -4790.7915     -4827.9997      37.208161      996.29757      285.85388      8004.5543      1.2557266      0.63880309   
    399200  -4789.5015     -4828.7245      39.222974      2542.6635      301.3328       7990.7236      1.2579001      0.63880309   
    399300  -4787.9554     -4827.7327      39.777256      7785.4592      305.59111      7975.2333      1.2603433      0.63880309   
    399400  -4789.8915     -4830.2051      40.313613      10168.716      309.7117       7959.0201      1.2629107      0.63880309   
    399500  -4790.7594     -4830.4114      39.652021      9856.8563      304.62898      7945.0062      1.2651383      0.63880309   
    399600  -4792.2508     -4829.8805      37.629616      5179.1061      289.09174      7932.4572      1.2671397      0.63880309   
    399700  -4792.3204     -4830.9155      38.595109      6234.8357      296.5092       7923.9114      1.2685063      0.63880309   
    399800  -4792.3119     -4830.6197      38.307797      4628.2401      294.3019       7920.814       1.2690024      0.63880309   
    399900  -4792.3216     -4829.189       36.867388      5480.9244      283.23587      7925.8141      1.2682018      0.63880309   
    400000  -4793.1747     -4830.3306      37.155939      2634.952       285.45268      7934.9753      1.2667376      0.68535424   
    400100  -4791.4039     -4828.6242      37.220338      5498.5455      285.94743      7942.5381      1.2655314      0.68535424   
    400200  -4790.2834     -4828.5948      38.311449      9376.0853      294.32996      7952.4455      1.2639548      0.68535424   
    400297  -4789.8852     -4827.7006      37.815371      1710.0123      290.51881      7964.6565      1.262017       0.68535424   
Loop time of 514.393 on 2 procs for 200000 steps with 1008 atoms

Performance: 16.797 ns/day, 1.429 hours/ns, 388.808 timesteps/s, 391.919 katom-step/s
99.5% CPU use with 2 MPI tasks x 1 OpenMP threads

MPI task timing breakdown:
Section |  min time  |  avg time  |  max time  |%varavg| %total
---------------------------------------------------------------
Pair    | 266.69     | 269.55     | 272.41     |  17.4 | 52.40
Neigh   | 8.1461     | 8.2529     | 8.3597     |   3.7 |  1.60
Comm    | 41.256     | 45.447     | 49.638     |  62.2 |  8.84
Output  | 0.29885    | 0.30161    | 0.30436    |   0.5 |  0.06
Modify  | 187.22     | 188.52     | 189.81     |   9.4 | 36.65
Other   |            | 2.329      |            |       |  0.45

Nlocal:            504 ave         505 max         503 min
Histogram: 1 0 0 0 0 0 0 0 0 1
Nghost:         2708.5 ave        2713 max        2704 min
Histogram: 1 0 0 0 0 0 0 0 0 1
Neighs:              0 ave           0 max           0 min
Histogram: 2 0 0 0 0 0 0 0 0 0
FullNghs:        73947 ave       74210 max       73684 min
Histogram: 1 0 0 0 0 0 0 0 0 1

Total # of neighbors = 147894
Ave neighs/atom = 146.72024
Neighbor list builds = 19981
Dangerous builds = 19888
Total wall time: 0:17:10
