LAMMPS (27 Jun 2024)
KOKKOS mode with Kokkos version 4.3.1 is enabled (src/KOKKOS/kokkos.cpp:72)
  will use up to 1 GPU(s) per node
WARNING: When using a single thread, the Kokkos Serial backend (i.e. Makefile.kokkos_mpi_only) gives better performance than the OpenMP backend (src/KOKKOS/kokkos.cpp:202)
  using 1 OpenMP thread(s) per MPI task
Reading data file ...
  orthogonal box = (0 0 0) to (19.665067 19.665067 19.640133)
  1 by 1 by 1 MPI processor grid
  reading atoms ...
  1296 atoms
  read_data CPU = 0.008 seconds
ACE/AL version: 2023.11.25
Loading /pc2/users/a/acepdw01/work/phase_diagram/pot_dir/interim_potential_ladder_step_1.yaml
Total number of basis functions
	H: 23 (r=1) 664 (r>1)
	O: 23 (r=1) 664 (r>1)
Mapping LAMMPS atom type #1(H) -> ACE species type #0
Mapping LAMMPS atom type #2(O) -> ACE species type #1
Loading ASI /pc2/users/a/acepdw01/work/phase_diagram/pot_dir/interim_potential_ladder_step_1.asi
LINEAR ASI is loaded

CITE-CITE-CITE-CITE-CITE-CITE-CITE-CITE-CITE-CITE-CITE-CITE-CITE

Your simulation uses code contributions which should be cited:
- Type Label Framework: https://doi.org/10.1021/acs.jpcb.3c08419
The log file lists these citations in BibTeX format.

CITE-CITE-CITE-CITE-CITE-CITE-CITE-CITE-CITE-CITE-CITE-CITE-CITE

Switching to 'neigh_modify every 1 delay 0 check yes' setting during minimization
Neighbor list info ...
  update: every = 1 steps, delay = 0 steps, check = yes
  max neighbors/atom: 2000, page size: 100000
  master list distance cutoff = 6.5
  ghost atom cutoff = 6.5
  binsize = 6.5, bins = 4 4 4
  1 neighbor lists, perpetual/occasional/extra = 1 0 0
  (1) pair pace/extrapolation/kk, perpetual
      attributes: full, newton on, kokkos_device
      pair build: full/bin/kk/device
      stencil: full/bin/3d
      bin: kk/device
Setting up cg/kk style minimization ...
  Unit style    : metal
  Current step  : 0
WARNING: Fix with atom-based arrays not compatible with sending data in Kokkos communication, switching to classic exchange/border communication (src/KOKKOS/comm_kokkos.cpp:754)
WARNING: Fix with atom-based arrays not compatible with Kokkos sorting on device, switching to classic host sorting (src/KOKKOS/atom_kokkos.cpp:216)
Per MPI rank memory allocation (min/avg/max) = 1123 | 1123 | 1123 Mbytes
   Step         TotEng         PotEng         KinEng         Press           Temp          Volume        Density     c_max_pace_gamma
         0  -6250.4972     -6250.4972      0              21939.986      0              7595.1311      1.7015372      0.62320149   
        33  -6250.6452     -6250.6452      0              22350.057      0              7595.1311      1.7015372      0.62320149   
Loop time of 0.247062 on 1 procs for 33 steps with 1296 atoms

99.3% CPU use with 1 MPI tasks x 1 OpenMP threads

Minimization stats:
  Stopping criterion = force tolerance
  Energy initial, next-to-last, final = 
     -6250.49717465847  -6250.64523648356  -6250.64523648874
  Force two-norm initial, final = 0.82052426 0.0003006328
  Force max component initial, final = 0.040662504 1.1270972e-05
  Final line search alpha, max atom move = 1 1.1270972e-05
  Iterations, force evaluations = 33 66

MPI task timing breakdown:
Section |  min time  |  avg time  |  max time  |%varavg| %total
---------------------------------------------------------------
Pair    | 0.2214     | 0.2214     | 0.2214     |   0.0 | 89.61
Neigh   | 0          | 0          | 0          |   0.0 |  0.00
Comm    | 0.0017444  | 0.0017444  | 0.0017444  |   0.0 |  0.71
Output  | 0          | 0          | 0          |   0.0 |  0.00
Modify  | 0.013982   | 0.013982   | 0.013982   |   0.0 |  5.66
Other   |            | 0.009933   |            |       |  4.02

Nlocal:           1296 ave        1296 max        1296 min
Histogram: 1 0 0 0 0 0 0 0 0 0
Nghost:           4514 ave        4514 max        4514 min
Histogram: 1 0 0 0 0 0 0 0 0 0
Neighs:              0 ave           0 max           0 min
Histogram: 1 0 0 0 0 0 0 0 0 0
FullNghs:       251424 ave      251424 max      251424 min
Histogram: 1 0 0 0 0 0 0 0 0 0

Total # of neighbors = 251424
Ave neighs/atom = 194
Neighbor list builds = 0
Dangerous builds = 0
Setting up Verlet run ...
  Unit style    : metal
  Current step  : 33
  Time step     : 0.0005
WARNING: Fix with atom-based arrays not compatible with Kokkos sorting on device, switching to classic host sorting (src/KOKKOS/atom_kokkos.cpp:216)
Per MPI rank memory allocation (min/avg/max) = 1123 | 1123 | 1123 Mbytes
   Step         TotEng         PotEng         KinEng         Press           Temp          Volume        Density     c_max_pace_gamma
        33  -6183.6885     -6250.6452      66.956755      31766.312      400            7595.1311      1.7015372      0.62320149   
       100  -6173.557      -6201.0229      27.465895      34808.796      164.0814       7601.7761      1.7000498      0.62320149   
       200  -6163.6626     -6205.1641      41.50144       33826.446      247.92981      7668.2308      1.6853168      0.62320149   
       300  -6154.2244     -6204.0142      49.789781      32430.997      297.44441      7788.1812      1.6593602      0.62320149   
       400  -6147.5967     -6197.7816      50.184975      28019.548      299.8053       7926.4969      1.6304047      0.62320149   
       500  -6140.6707     -6196.9569      56.286173      23294.237      336.25389      8049.1275      1.6055651      0.62320149   
       600  -6137.5241     -6193.9761      56.451974      23107.72       337.24438      8132.2575      1.5891526      0.62320149   
       700  -6135.8855     -6194.2131      58.327636      19362.359      348.4496       8176.7978      1.5804962      0.62320149   
       800  -6131.6203     -6191.2701      59.649774      22506.59       356.34805      8186.3093      1.5786599      0.62320149   
       900  -6127.9705     -6190.153       62.182482      26518.639      371.47847      8171.9553      1.5814328      0.62320149   
      1000  -6125.474      -6187.507       62.032924      28991.893      370.58501      8144.7603      1.5867131      0.85860559   
      1100  -6123.6488     -6186.9608      63.312062      34865.397      378.22659      8113.7096      1.5927854      0.85860559   
      1200  -6122.3136     -6186.8227      64.509083      29496.6        385.3776       8084.9705      1.5984471      0.85860559   
      1300  -6121.0885     -6187.7643      66.675848      30980.248      398.32186      8066.2498      1.6021569      0.85860559   
      1400  -6119.6201     -6185.4965      65.876447      31300.047      393.54624      8064.9724      1.6024107      0.85860559   
      1500  -6115.0641     -6180.6859      65.621762      32919.196      392.02475      8081.1802      1.5991968      0.85860559   
      1600  -6116.0616     -6184.272       68.210394      26576.101      407.48925      8117.3935      1.5920625      0.85860559   
      1700  -6115.5256     -6183.8896      68.364013      30268.869      408.40697      8159.2425      1.5838968      0.85860559   
      1800  -6114.4359     -6181.4754      67.039455      29688.563      400.49405      8202.0467      1.5756309      0.85860559   
      1900  -6115.3351     -6183.8544      68.519308      27223.467      409.3347       8240.722       1.5682361      0.85860559   
      2000  -6114.7479     -6182.5578      67.809876      33977.481      405.09655      8266.8217      1.5632849      0.80857747   
      2100  -6114.6348     -6184.2029      69.568086      30324.901      415.6001       8275.8885      1.5615723      0.80857747   
      2200  -6117.2733     -6183.7634      66.490163      25267.241      397.21258      8265.8428      1.5634701      0.80857747   
      2300  -6117.2586     -6187.0849      69.826278      27321.904      417.14254      8239.3697      1.5684935      0.80857747   
      2400  -6113.9531     -6180.7264      66.773345      29785.039      398.9043       8201.1106      1.5758107      0.80857747   
      2500  -6111.8853     -6179.5841      67.69873       30418.908      404.43256      8164.7406      1.5828302      0.80857747   
      2600  -6111.3363     -6180.4899      69.153522      32244.318      413.1235       8145.0386      1.5866589      0.80857747   
      2700  -6110.7888     -6180.67        69.881263      32354.405      417.47102      8146.6315      1.5863487      0.80857747   
      2800  -6112.4885     -6180.9871      68.498559      30118.571      409.21074      8166.1721      1.5825527      0.80857747   
      2900  -6112.7306     -6182.6248      69.894165      26397.225      417.5481       8195.5683      1.5768764      0.80857747   
      3000  -6112.4643     -6181.0017      68.537433      28265.335      409.44298      8229.9773      1.5702835      0.89666377   
      3100  -6115.2013     -6183.2705      68.069232      26291.623      406.64594      8262.3539      1.5641303      0.89666377   
      3200  -6113.0715     -6182.1424      69.070964      28120.192      412.6303       8284.9141      1.5598711      0.89666377   
      3300  -6113.4335     -6181.2717      67.83818       29196.721      405.26564      8291.5861      1.5586159      0.89666377   
      3400  -6115.6488     -6184.2116      68.56278       26397.445      409.5944       8281.915       1.560436       0.89666377   
      3500  -6112.648      -6183.2324      70.584409      28371.922      421.67162      8255.8635      1.5653599      0.89666377   
      3600  -6110.3285     -6182.9636      72.635138      28744.474      433.92269      8222.0338      1.5718006      0.89666377   
      3700  -6113.8689     -6183.0063      69.137405      27021.367      413.02721      8190.945       1.5777664      0.89666377   
      3800  -6114.3706     -6181.2219      66.851242      26209.528      399.36966      8165.06        1.5827683      0.89666377   
      3900  -6113.3478     -6181.9165      68.568707      24397.076      409.62981      8150.0029      1.5856924      0.89666377   
      4000  -6116.9297     -6183.2565      66.326763      25225.924      396.23642      8147.7194      1.5861368      0.81938935   
      4100  -6114.8433     -6184.9091      70.065843      26139.089      418.57371      8155.8398      1.5845576      0.81938935   
      4200  -6114.0648     -6182.7562      68.691436      25893.382      410.363        8172.6027      1.5813075      0.81938935   
      4300  -6115.0279     -6182.4992      67.471373      27733.937      403.07433      8197.9925      1.5764101      0.81938935   
      4400  -6114.5925     -6183.101       68.508463      25704.02       409.26991      8226.3701      1.5709721      0.81938935   
      4500  -6117.5528     -6185.3115      67.75866       26581.675      404.79058      8249.8597      1.5664991      0.81938935   
      4600  -6116.1282     -6183.2462      67.118026      29388.142      400.96344      8262.6642      1.5640715      0.81938935   
      4700  -6117.7553     -6186.0058      68.250437      25415.532      407.72846      8264.2976      1.5637624      0.81938935   
      4800  -6117.6205     -6184.2144      66.593951      30037.263      397.83261      8250.3458      1.5664068      0.81938935   
      4900  -6119.3185     -6186.4953      67.176789      27779.045      401.31448      8224.6217      1.5713061      0.81938935   
      5000  -6115.89       -6183.8449      67.95485       28706.196      405.96262      8190.276       1.5778953      0.82654768   
      5100  -6115.9942     -6185.7702      69.775949      30649.166      416.84188      8156.3517      1.5844581      0.82654768   
      5200  -6114.2911     -6181.2999      67.008731      34781.243      400.3105       8128.1582      1.589954       0.82654768   
      5300  -6115.5872     -6183.746       68.158819      27881.394      407.18114      8117.8628      1.5919705      0.82654768   
      5400  -6116.6092     -6183.4736      66.864373      26527.869      399.44811      8129.1651      1.5897571      0.82654768   
      5500  -6117.618      -6184.617       66.999048      29716.614      400.25266      8158.9489      1.5839538      0.82654768   
      5600  -6118.4992     -6183.403       64.903814      28332.855      387.73572      8200.9357      1.5758443      0.82654768   
      5700  -6117.4412     -6181.9079      64.466743      28970.962      385.12465      8246.1556      1.5672028      0.82654768   
      5800  -6118.0554     -6184.2931      66.237704      26973.068      395.70438      8285.0207      1.559851       0.82654768   
      5900  -6119.2612     -6186.1217      66.860514      26807.204      399.42505      8308.8626      1.5553751      0.82654768   
      6000  -6120.6127     -6186.0702      65.457435      26915.691      391.04305      8307.7724      1.5555792      0.75728438   
      6100  -6121.5462     -6187.1735      65.627339      22633.15       392.05806      8279.7223      1.5608492      0.75728438   
      6200  -6120.3845     -6184.9208      64.536349      26421.091      385.54048      8230.0222      1.570275       0.75728438   
      6300  -6119.9929     -6186.6264      66.633516      29767.949      398.06897      8171.7331      1.5814758      0.75728438   
      6400  -6118.8801     -6184.4756      65.595547      30607.339      391.86814      8116.9852      1.5921426      0.75728438   
      6500  -6116.655      -6181.6987      65.043702      33367.464      388.57141      8077.2454      1.5999759      0.75728438   
      6600  -6116.5914     -6184.3566      67.765144      32592.955      404.82932      8063.0483      1.6027931      0.75728438   
      6700  -6116.6405     -6183.3935      66.753055      33889.091      398.7831       8079.7666      1.5994766      0.75728438   
      6800  -6116.9791     -6184.5692      67.590187      31056.319      403.78412      8123.8448      1.5907982      0.75728438   
      6900  -6118.1871     -6184.5287      66.341523      30175.033      396.3246       8185.7563      1.5787665      0.75728438   
      7000  -6117.5778     -6184.4806      66.902812      23973.278      399.67774      8249.4564      1.5665757      0.83972574   
      7100  -6116.5743     -6183.3419      66.767595      18432.1        398.86995      8300.4901      1.556944       0.83972574   
      7200  -6118.5207     -6183.036       64.515355      21159.657      385.41506      8328.7673      1.5516579      0.83972574   
      7300  -6117.6632     -6185.7399      68.076754      17709.873      406.69088      8331.0389      1.5512348      0.83972574   
      7400  -6116.4944     -6183.3105      66.816122      22107.033      399.15986      8304.5479      1.5561832      0.83972574   
      7500  -6117.2416     -6184.1438      66.902127      24527.93       399.67365      8256.5091      1.5652375      0.83972574   
      7600  -6114.5001     -6179.7271      65.227058      31357.465      389.66678      8202.0969      1.5756212      0.83972574   
      7700  -6116.0504     -6184.2333      68.182917      27558.04       407.3251       8157.5898      1.5842177      0.83972574   
      7800  -6117.2695     -6184.4554      67.185902      30998.528      401.36893      8126.7387      1.5902317      0.83972574   
      7900  -6118.1961     -6184.7445      66.548435      33907.424      397.56069      8114.1921      1.5926906      0.83972574   
      8000  -6118.393      -6185.1157      66.722764      35754.089      398.60214      8118.2346      1.5918976      0.94045029   
      8100  -6116.3407     -6185.2183      68.877599      32158.542      411.47513      8138.3457      1.5879637      0.94045029   
      8200  -6118.0817     -6184.3673      66.285571      25904.138      395.99034      8169.2552      1.5819555      0.94045029   
      8300  -6116.58       -6183.9452      67.365213      30089.408      402.44013      8206.2502      1.5748238      0.94045029   
      8400  -6117.4072     -6183.8603      66.453141      31529.798      396.99141      8243.7613      1.5676579      0.94045029   
      8500  -6118.3574     -6181.7873      63.429878      32978.904      378.93042      8272.1892      1.5622706      0.94045029   
      8600  -6118.1988     -6185.7032      67.504426      25334.413      403.27179      8288.1206      1.5592676      0.94045029   
      8700  -6117.4974     -6184.1211      66.623696      26062.486      398.0103       8287.2439      1.5594326      0.94045029   
      8800  -6120.0567     -6184.5943      64.537587      25712.371      385.54788      8271.8853      1.562328       0.94045029   
      8900  -6118.2453     -6184.1155      65.870217      27150.447      393.50902      8243.974       1.5676175      0.94045029   
      9000  -6115.7697     -6183.1886      67.418844      27368.463      402.76052      8212.8686      1.5735547      0.80237412   
      9100  -6117.0605     -6182.3502      65.289711      26025.685      390.04107      8186.0906      1.578702       0.80237412   
      9200  -6118.5325     -6186.2436      67.711101      31629.641      404.50646      8166.0609      1.5825743      0.80237412   
      9300  -6118.7634     -6186.797       68.033636      31378.128      406.43329      8155.0203      1.5847168      0.80237412   
      9400  -6119.9282     -6185.7211      65.792944      31680.785      393.04738      8154.6456      1.5847897      0.80237412   
      9500  -6120.1764     -6186.1055      65.929114      31373.64       393.86086      8165.3279      1.5827163      0.80237412   
      9600  -6119.6313     -6184.79        65.158678      29946.215      389.25828      8184.7991      1.5789512      0.80237412   
      9700  -6118.634      -6183.4705      64.836566      26596.108      387.33398      8208.0548      1.5744775      0.80237412   
      9800  -6121.5337     -6186.8525      65.318838      28106.421      390.21507      8229.4049      1.5703928      0.80237412   
      9900  -6121.5166     -6183.5133      61.996734      29271.158      370.36881      8243.2355      1.5677579      0.80237412   
     10000  -6120.7763     -6188.1247      67.348442      26208.42       402.33994      8248.714       1.5667167      0.77704358   
     10100  -6120.9957     -6186.726       65.730294      26852.537      392.67312      8243.1998      1.5677647      0.77704358   
     10200  -6119.8565     -6183.4362      63.579705      26267.825      379.82549      8230.0723      1.5702654      0.77704358   
     10300  -6118.6722     -6186.5625      67.890253      24493.957      405.57672      8214.7924      1.5731862      0.77704358   
     10400  -6116.8864     -6185.0799      68.193528      28828.643      407.38849      8198.677       1.5762784      0.77704358   
     10500  -6116.8771     -6183.9834      67.106331      28242.286      400.89357      8187.0689      1.5785134      0.77704358   
     10600  -6116.4739     -6183.872       67.398111      29460.192      402.63666      8185.9285      1.5787333      0.77704358   
     10700  -6119.899      -6186.9053      67.006369      27466.177      400.29639      8194.6337      1.5770562      0.77704358   
     10800  -6118.092      -6184.1704      66.078465      25854.317      394.75309      8206.8319      1.5747121      0.77704358   
     10900  -6118.9859     -6184.3648      65.378862      28289.312      390.57366      8223.7287      1.5714767      0.77704358   
     11000  -6117.0305     -6183.4743      66.443791      26850.436      396.93555      8243.2522      1.5677548      0.81380607   
     11100  -6116.5762     -6182.6174      66.041191      26168.025      394.53041      8263.872       1.5638429      0.81380607   
     11200  -6118.4546     -6183.8095      65.354932      23366.438      390.4307       8281.5842      1.5604983      0.81380607   
     11300  -6118.6069     -6184.9338      66.326917      22691.891      396.23735      8290.2155      1.5588736      0.81380607   
     11400  -6117.356      -6184.2077      66.851728      25589.411      399.37257      8282.0973      1.5604016      0.81380607   
     11500  -6116.9819     -6184.1613      67.179421      27529.127      401.33021      8260.6481      1.5644533      0.81380607   
     11600  -6118.3993     -6186.7092      68.309932      27427.002      408.08389      8229.7712      1.5703229      0.81380607   
     11700  -6116.9222     -6184.1228      67.200656      30070.343      401.45707      8192.1152      1.577541       0.81380607   
     11800  -6118.0092     -6182.5215      64.512295      30654.947      385.39678      8159.1145      1.5839216      0.81380607   
     11900  -6116.9095     -6183.6025      66.69296       29370.643      398.42409      8139.0066      1.5878348      0.81380607   
     12000  -6115.6084     -6182.2457      66.637226      33243.409      398.09113      8137.1513      1.5881968      0.82423526   
     12100  -6114.4793     -6183.6138      69.134508      31672.16       413.00991      8156.7589      1.584379       0.82423526   
     12200  -6113.6686     -6182.3088      68.640245      30359.441      410.05718      8199.4213      1.5761354      0.82423526   
     12300  -6117.4037     -6185.0367      67.633033      29658.862      404.04009      8254.7528      1.5655705      0.82423526   
     12400  -6119.4879     -6185.9282      66.440224      26146.455      396.91424      8306.5159      1.5558145      0.82423526   
     12500  -6121.3737     -6186.7724      65.398754      25953.855      390.69249      8341.3095      1.5493248      0.82423526   
     12600  -6120.7748     -6185.1855      64.410682      25115.431      384.78975      8350.2527      1.5476655      0.82423526   
     12700  -6119.4907     -6184.5038      65.013178      21164.418      388.38906      8329.5715      1.5515081      0.82423526   
     12800  -6116.0377     -6183.2368      67.199178      22920.032      401.44823      8284.8069      1.5598913      0.82423526   
     12900  -6110.9485     -6180.2156      69.267127      26236.992      413.80217      8230.0137      1.5702766      0.82423526   
     13000  -6113.2165     -6181.7406      68.524066      30463.844      409.36312      8182.5793      1.5793795      0.84896244   
     13100  -6111.796      -6181.0377      69.241646      31257.084      413.64995      8147.6608      1.5861483      0.84896244   
     13200  -6113.7424     -6181.1971      67.454735      33692.284      402.97493      8134.8145      1.5886531      0.84896244   
     13300  -6115.0614     -6184.4         69.338607      29190.524      414.2292       8148.596       1.5859662      0.84896244   
     13400  -6115.2565     -6182.2116      66.955024      29263.856      399.98966      8179.3111      1.5800106      0.84896244   
     13500  -6118.0085     -6183.5004      65.491832      30927.62       391.24854      8221.5546      1.5718922      0.84896244   
     13600  -6118.7393     -6183.4716      64.732272      28639.945      386.71093      8263.9273      1.5638325      0.84896244   
     13700  -6118.6552     -6185.599       66.943774      23428.999      399.92245      8295.4566      1.5578887      0.84896244   
     13800  -6118.3319     -6182.55        64.218068      22272.319      383.63907      8311.2874      1.5549213      0.84896244   
     13900  -6120.6421     -6186.3518      65.709672      26196.107      392.54992      8308.9983      1.5553497      0.84896244   
     14000  -6120.3551     -6184.9915      64.636354      28998.936      386.13791      8286.4432      1.5595832      0.80826724   
     14100  -6119.1305     -6181.2799      62.149386      32366.857      371.28075      8248.9779      1.5666666      0.80826724   
     14200  -6117.3476     -6184.072       66.724403      26534.064      398.61193      8212.1792      1.5736868      0.80826724   
     14300  -6119.4992     -6185.507       66.007811      31480.127      394.331        8181.3605      1.5796148      0.80826724   
     14400  -6119.4562     -6186.1663      66.710165      29304.758      398.52687      8159.9292      1.5837635      0.80826724   
     14500  -6115.7592     -6182.8754      67.116204      26051.069      400.95255      8153.7196      1.5849696      0.80826724   
     14600  -6117.3688     -6184.834       67.465247      26190.546      403.03774      8163.8671      1.5829995      0.80826724   
     14700  -6118.0617     -6185.0335      66.971831      30062.769      400.09006      8187.2578      1.578477       0.80826724   
     14800  -6115.968      -6184.0048      68.036852      26965.933      406.4525       8220.1204      1.5721665      0.80826724   
     14900  -6116.2262     -6182.7816      66.555366      27388.385      397.6021       8257.602       1.5650304      0.80826724   
     15000  -6116.6965     -6186.2164      69.519897      23113.597      415.31222      8290.1854      1.5588792      0.92970317   
     15100  -6116.1105     -6184.8068      68.696288      27476.564      410.39198      8311.984       1.554791       0.92970317   
     15200  -6113.886      -6182.6363      68.750228      24921.473      410.71421      8319.9478      1.5533028      0.92970317   
     15300  -6112.4339     -6181.4129      68.978976      28406.127      412.08076      8311.8545      1.5548152      0.92970317   
     15400  -6114.9773     -6184.8881      69.910811      27568.377      417.64754      8295.0893      1.5579577      0.92970317   
     15500  -6115.2623     -6183.8448      68.582488      30061.819      409.71214      8268.1432      1.5630351      0.92970317   
     15600  -6116.3327     -6183.087       66.754365      28147.839      398.79092      8236.0357      1.5691284      0.92970317   
     15700  -6118.7028     -6183.9259      65.223146      29987.661      389.64341      8205.0459      1.5750549      0.92970317   
     15800  -6120.8519     -6187.0526      66.200738      29278.302      395.48355      8177.131       1.5804318      0.92970317   
     15900  -6120.0752     -6184.0675      63.992292      30266.346      382.29028      8152.8574      1.5851372      0.92970317   
     16000  -6118.5989     -6184.5129      65.914015      31391.254      393.77066      8143.0056      1.587055       0.95356434   
     16100  -6117.0532     -6184.672       67.618773      27990.246      403.9549       8149.7232      1.5857468      0.95356434   
     16200  -6117.2015     -6183.8574      66.655959      30455.564      398.20304      8172.6556      1.5812973      0.95356434   
     16300  -6118.7365     -6185.7771      67.040522      31244.299      400.50043      8210.9084      1.5739303      0.95356434   
     16400  -6117.2301     -6186.2853      69.055167      24216.801      412.53592      8251.7255      1.5661449      0.95356434   
     16500  -6117.5825     -6182.0718      64.489335      26553.016      385.25962      8288.8895      1.5591229      0.95356434   
     16600  -6118.113      -6184.5808      66.467776      23648.347      397.07884      8319.9208      1.5533078      0.95356434   
     16700  -6118.7817     -6183.1947      64.412995      23778.303      384.80356      8333.3439      1.5508058      0.95356434   
     16800  -6117.1041     -6183.9989      66.894806      22956.168      399.62992      8327.2091      1.5519483      0.95356434   
     16900  -6118.4601     -6183.938       65.477896      24451.194      391.16529      8302.4824      1.5565704      0.95356434   
     17000  -6116.8931     -6186.0272      69.134058      24836.141      413.00722      8266.7481      1.5632989      0.80892455   
     17100  -6115.9765     -6181.15        65.173511      30393.497      389.34689      8226.3459      1.5709767      0.80892455   
     17200  -6116.9379     -6186.1386      69.200626      28360.062      413.40489      8192.117       1.5775407      0.80892455   
     17300  -6117.4561     -6183.0837      65.627589      34339.102      392.05955      8167.766       1.5822439      0.80892455   
     17400  -6117.5292     -6184.6784      67.149272      36928.647      401.1501       8162.4373      1.5832768      0.80892455   
     17500  -6116.6757     -6186.7221      70.046388      29627.578      418.45748      8177.5798      1.5803451      0.80892455   
     17600  -6118.5214     -6183.3861      64.864659      29303.581      387.50181      8210.4996      1.5740087      0.80892455   
     17700  -6120.338      -6185.4704      65.132459      26389.873      389.10165      8255.8895      1.565355       0.80892455   
     17800  -6118.4311     -6184.6968      66.265736      26967.083      395.87185      8301.807       1.556697       0.80892455   
     17900  -6115.7013     -6185.0152      69.313921      24767.659      414.08172      8338.7875      1.5497934      0.80892455   
     18000  -6115.2665     -6182.6716      67.405078      25285.134      402.67828      8361.5271      1.5455787      0.89819747   
     18100  -6116.5168     -6182.8704      66.353606      22440.315      396.39678      8362.9415      1.5453173      0.89819747   
     18200  -6117.3151     -6187.8829      70.567824      23844.764      421.57254      8343.8865      1.5488463      0.89819747   
     18300  -6115.3158     -6183.3595      68.043738      28431.924      406.49364      8306.2693      1.5558607      0.89819747   
     18400  -6115.8378     -6183.0929      67.255027      32625.804      401.78188      8259.3014      1.5647084      0.89819747   
     18500  -6115.5355     -6183.8734      68.337945      31079.505      408.25123      8211.5277      1.5738116      0.89819747   
     18600  -6116.3176     -6183.4418      67.124167      31666.697      401.00012      8169.7735      1.5818551      0.89819747   
     18700  -6115.6021     -6180.82        65.217946      31142.399      389.61235      8144.3422      1.5867946      0.89819747   
     18800  -6116.3891     -6182.0174      65.628362      30170.495      392.06418      8143.0546      1.5870455      0.89819747   
     18900  -6117.4831     -6185.3791      67.895923      26698.562      405.6106       8163.5882      1.5830536      0.89819747   
     19000  -6116.3315     -6182.5634      66.231823      31117.84       395.66925      8197.9208      1.5764238      0.83592764   
     19100  -6117.0724     -6185.065       67.992606      28610.171      406.18818      8242.3187      1.5679323      0.83592764   
     19200  -6119.7595     -6185.613       65.853471      29067.525      393.40898      8283.3941      1.5601573      0.83592764   
     19300  -6120.6693     -6187.9232      67.253863      25954.277      401.77493      8309.2361      1.5553052      0.83592764   
     19400  -6117.5065     -6183.9952      66.488746      31039.758      397.20411      8317.6371      1.5537343      0.83592764   
     19500  -6118.0182     -6185.3048      67.286624      30168.816      401.97064      8310.0466      1.5551535      0.83592764   
     19600  -6116.1433     -6184.2324      68.089139      28958.099      406.76487      8286.364       1.5595981      0.83592764   
     19700  -6114.6311     -6181.6971      67.066047      31038.028      400.65291      8250.6724      1.5663448      0.83592764   
     19800  -6116.2712     -6181.3186      65.047359      33117.659      388.59326      8212.3966      1.5736451      0.83592764   
     19900  -6117.4862     -6185.687       68.2008        30124.151      407.43193      8179.2778      1.580017       0.83592764   
     20000  -6117.7919     -6186.4356      68.643744      33646.101      410.07808      8155.159       1.5846899      0.85511943   
     20033  -6117.8885     -6182.9944      65.105929      31713.879      388.94315      8150.2021      1.5856537      0.85511943   
Loop time of 86.3909 on 1 procs for 20000 steps with 1296 atoms

Performance: 10.001 ns/day, 2.400 hours/ns, 231.506 timesteps/s, 300.032 katom-step/s
99.8% CPU use with 1 MPI tasks x 1 OpenMP threads

MPI task timing breakdown:
Section |  min time  |  avg time  |  max time  |%varavg| %total
---------------------------------------------------------------
Pair    | 65.976     | 65.976     | 65.976     |   0.0 | 76.37
Neigh   | 0.87843    | 0.87843    | 0.87843    |   0.0 |  1.02
Comm    | 0.88634    | 0.88634    | 0.88634    |   0.0 |  1.03
Output  | 0.025762   | 0.025762   | 0.025762   |   0.0 |  0.03
Modify  | 18.172     | 18.172     | 18.172     |   0.0 | 21.04
Other   |            | 0.4525     |            |       |  0.52

Nlocal:           1296 ave        1296 max        1296 min
Histogram: 1 0 0 0 0 0 0 0 0 0
Nghost:           4478 ave        4478 max        4478 min
Histogram: 1 0 0 0 0 0 0 0 0 0
Neighs:              0 ave           0 max           0 min
Histogram: 1 0 0 0 0 0 0 0 0 0
FullNghs:       235702 ave      235702 max      235702 min
Histogram: 1 0 0 0 0 0 0 0 0 0

Total # of neighbors = 235702
Ave neighs/atom = 181.86883
Neighbor list builds = 1998
Dangerous builds = 1993
Setting up Verlet run ...
  Unit style    : metal
  Current step  : 20033
  Time step     : 0.0005
WARNING: Fix with atom-based arrays not compatible with Kokkos sorting on device, switching to classic host sorting (src/KOKKOS/atom_kokkos.cpp:216)
Per MPI rank memory allocation (min/avg/max) = 1138 | 1138 | 1138 Mbytes
   Step         TotEng         PotEng         KinEng         Press           Temp          Volume        Density     c_max_pace_gamma
     20033  -6116.0377     -6182.9944      66.956755      31956.438      400            8150.2021      1.5856537      0.85511943   
     20100  -6116.3382     -6185.4657      69.127479      25417.689      412.96791      8153.332       1.585045       0.85511943   
     20200  -6120.0163     -6184.8138      64.797497      30916.458      387.10058      8166.5886      1.582472       0.85511943   
     20300  -6117.9179     -6183.8822      65.964357      32976.014      394.07141      8189.4341      1.5780575      0.85511943   
     20400  -6117.1572     -6184.1452      66.987978      30721.671      400.18653      8218.6742      1.5724431      0.85511943   
     20500  -6115.0067     -6182.4592      67.452485      28864.343      402.96149      8250.0295      1.5664669      0.85511943   
     20600  -6116.8834     -6183.6989      66.815439      29285.466      399.15577      8278.1038      1.5611544      0.85511943   
     20700  -6119.1005     -6184.1412      65.040778      26423.671      388.55394      8297.571       1.5574917      0.85511943   
     20800  -6118.2413     -6186.0237      67.782394      22458.762      404.93237      8302.735       1.556523       0.85511943   
     20900  -6117.727      -6184.7005      66.973432      30549.531      400.09963      8287.1749      1.5594455      0.85511943   
     21000  -6117.4542     -6183.3408      65.88653       31000.304      393.60647      8256.5019      1.5652389      0.84631076   
     21100  -6117.2928     -6185.2821      67.989266      26894.745      406.16823      8219.2167      1.5723393      0.84631076   
     21200  -6116.803      -6183.5642      66.761208      30408.898      398.8318       8181.0005      1.5796843      0.84631076   
     21300  -6116.3546     -6182.7846      66.429964      31227.437      396.85295      8154.9147      1.5847374      0.84631076   
     21400  -6116.0719     -6182.5064      66.434555      31170.469      396.88037      8146.1537      1.5864417      0.84631076   
     21500  -6112.3934     -6181.4716      69.07821       29642.167      412.67358      8155.7359      1.5845778      0.84631076   
     21600  -6113.6063     -6182.7723      69.165996      29319.437      413.19802      8186.4598      1.5786308      0.84631076   
     21700  -6113.5272     -6181.2463      67.719071      27842.874      404.55408      8231.354       1.5700209      0.84631076   
     21800  -6113.152      -6180.4371      67.285171      28805.681      401.96196      8279.9321      1.5608096      0.84631076   
     21900  -6114.3701     -6184.3613      69.991259      25173.482      418.12814      8324.9622      1.5523672      0.84631076   
     22000  -6113.8128     -6184.0956      70.28283       29318.241      419.86999      8353.3481      1.547092       0.85223585   
     22100  -6113.88       -6181.5629      67.682866      27386.64       404.33779      8359.8238      1.5458936      0.85223585   
     22200  -6116.5232     -6183.7877      67.264495      23379.111      401.83844      8341.9875      1.5491989      0.85223585   
     22300  -6116.3477     -6182.3565      66.008794      27863.276      394.33688      8299.9489      1.5570455      0.85223585   
     22400  -6112.8021     -6182.0252      69.223163      32316.289      413.53953      8244.4785      1.5675216      0.85223585   
     22500  -6110.9444     -6182.2716      71.32715       30707.983      426.10876      8189.0318      1.578135       0.85223585   
     22600  -6110.5707     -6182.2097      71.63893       33250.778      427.97134      8145.368       1.5865947      0.85223585   
     22700  -6109.6683     -6178.775       69.10669       33131.679      412.84372      8127.2137      1.5901388      0.85223585   
     22800  -6111.4092     -6180.6113      69.202129      31362.272      413.41388      8140.7688      1.5874911      0.85223585   
     22900  -6111.8451     -6180.9192      69.074096      27459.004      412.649        8181.5858      1.5795713      0.85223585   
     23000  -6112.2895     -6181.0482      68.758746      25832.131      410.7651       8240.0269      1.5683684      0.82236316   
     23100  -6115.7392     -6184.0623      68.323083      22249.762      408.16245      8303.168       1.5564418      0.82236316   
     23200  -6113.7549     -6183.0972      69.342248      28295.449      414.25095      8354.8637      1.5468113      0.82236316   
     23300  -6114.6594     -6184.1806      69.521145      28261.343      415.31968      8385.3913      1.5411801      0.82236316   
     23400  -6116.3938     -6184.0781      67.684227      26307.103      404.34592      8388.3948      1.5406282      0.82236316   
     23500  -6112.6573     -6180.8073      68.149977      25960.374      407.12831      8364.2882      1.5450685      0.82236316   
     23600  -6110.7048     -6179.7893      69.084508      25531.89       412.71121      8320.6861      1.5531649      0.82236316   
     23700  -6113.6163     -6182.6415      69.025195      24789.775      412.35687      8267.2215      1.5632093      0.82236316   
     23800  -6113.796      -6181.6866      67.890607      27928.467      405.57883      8215.4802      1.5730545      0.82236316   
     23900  -6112.6097     -6181.8353      69.225598      33020.801      413.55408      8173.0097      1.5812287      0.82236316   
     24000  -6115.9802     -6184.3575      68.3773        32238.756      408.48634      8148.6513      1.5859554      0.82163842   
     24100  -6113.6612     -6181.7689      68.107729      29380.257      406.87592      8146.5926      1.5863562      0.82163842   
     24200  -6113.2609     -6181.7296      68.468611      36360.157      409.03183      8167.9741      1.5822036      0.82163842   
     24300  -6114.742      -6182.7486      68.006519      29161.888      406.27129      8213.0713      1.5735159      0.82163842   
     24400  -6114.6628     -6181.9691      67.306293      27595.29       402.08814      8271.5768      1.5623862      0.82163842   
     24500  -6118.2378     -6185.293       67.05517       23918.461      400.58793      8327.3653      1.5519192      0.82163842   
     24600  -6117.1639     -6183.1478      65.983948      25918.096      394.18844      8364.3069      1.545065       0.82163842   
     24700  -6118.4883     -6184.2458      65.75752       23426.33       392.83577      8375.8412      1.5429373      0.82163842   
     24800  -6117.7745     -6183.812       66.037539      24822.438      394.5086       8360.8882      1.5456968      0.82163842   
     24900  -6119.4207     -6185.1601      65.739489      23567.81       392.72805      8324.0101      1.5525447      0.82163842   
     25000  -6116.1925     -6181.1221      64.929567      30172.22       387.88957      8269.7228      1.5627365      0.85703224   
     25100  -6115.6121     -6184.5846      68.972486      28600.608      412.04199      8215.3197      1.5730852      0.85703224   
     25200  -6113.6984     -6181.5082      67.809752      35213.29       405.09581      8175.4381      1.5807591      0.85703224   
     25300  -6115.388      -6183.9261      68.538067      29945.353      409.44677      8161.2808      1.5835012      0.85703224   
     25400  -6115.9794     -6182.7905      66.811113      30520.98       399.12994      8171.8694      1.5814494      0.85703224   
     25500  -6117.4609     -6183.5196      66.058699      33973.604      394.63501      8200.2833      1.5759697      0.85703224   
     25600  -6118.0617     -6183.5956      65.533904      30290.585      391.49988      8235.0523      1.5693158      0.85703224   
     25700  -6117.5484     -6186.0849      68.53651       30123.566      409.43746      8266.0685      1.5634274      0.85703224   
     25800  -6117.6968     -6185.2585      67.561696      23474.999      403.61392      8287.762       1.5593351      0.85703224   
     25900  -6118.533      -6185.4787      66.945661      26534.37       399.93372      8300.3679      1.5569669      0.85703224   
     26000  -6120.049      -6185.2841      65.235068      22796.471      389.71463      8304.0026      1.5562854      0.95752124   
     26100  -6121.2795     -6188.5749      67.295364      23072.284      402.02285      8294.3623      1.5580942      0.95752124   
     26200  -6120.8394     -6186.1385      65.299058      29067.827      390.09691      8270.3421      1.5626195      0.95752124   
     26300  -6120.7207     -6185.8434      65.122679      28245.364      389.04322      8241.931       1.5680061      0.95752124   
     26400  -6119.8758     -6186.5471      66.671359      26168.771      398.29504      8214.7311      1.5731979      0.95752124   
     26500  -6117.3808     -6183.7782      66.397392      26220.625      396.65836      8194.3395      1.5771128      0.95752124   
     26600  -6117.4278     -6184.168       66.740181      29935.792      398.70618      8188.0904      1.5783165      0.95752124   
     26700  -6117.3116     -6183.9753      66.663713      32253.574      398.24937      8196.4736      1.5767022      0.95752124   
     26800  -6117.096      -6185.4944      68.398459      30953.18       408.61275      8214.8604      1.5731732      0.95752124   
     26900  -6117.9318     -6184.4411      66.509288      27923.609      397.32683      8237.7692      1.5687982      0.95752124   
     27000  -6116.3005     -6183.8443      67.54374       29813.989      403.50665      8260.7195      1.5644397      0.77537851   
     27100  -6115.3212     -6185.0627      69.741488      22460.592      416.63601      8280.7553      1.5606545      0.77537851   
     27200  -6117.5093     -6183.759       66.249668      27071.948      395.77586      8290.9896      1.558728       0.77537851   
     27300  -6117.1505     -6184.5629      67.41243       27773.945      402.7222       8290.6811      1.558786       0.77537851   
     27400  -6116.0277     -6183.4537      67.425959      25890.533      402.80303      8279.511       1.560889       0.77537851   
     27500  -6117.1878     -6184.4541      67.266335      28444.033      401.84943      8259.4004      1.5646896      0.77537851   
     27600  -6115.5325     -6183.2871      67.754558      30212.54       404.76608      8233.6094      1.5695908      0.77537851   
     27700  -6116.4786     -6182.6956      66.216931      31069.562      395.58029      8212.7641      1.5735747      0.77537851   
     27800  -6118.2011     -6186.255       68.053869      28432.903      406.55416      8202.6496      1.575515       0.77537851   
     27900  -6119.3052     -6186.3719      67.066705      30486.022      400.65684      8197.9081      1.5764263      0.77537851   
     28000  -6118.8955     -6185.4915      66.596007      31641.376      397.84489      8200.405       1.5759463      0.79786072   
     28100  -6116.4409     -6185.3011      68.860159      28294.15       411.37094      8210.7791      1.5739551      0.79786072   
     28200  -6118.1468     -6185.227       67.080279      28811.744      400.73793      8224.3781      1.5713526      0.79786072   
     28300  -6116.1799     -6182.995       66.815091      27904.329      399.1537       8241.4183      1.5681036      0.79786072   
     28400  -6116.7705     -6185.57        68.799506      29297.396      411.0086       8260.7816      1.564428       0.79786072   
     28500  -6117.8261     -6183.4179      65.591767      29079.425      391.84556      8274.0297      1.5619231      0.79786072   
     28600  -6117.4493     -6183.3491      65.899728      29430.222      393.68531      8280.4636      1.5607095      0.79786072   
     28700  -6117.0588     -6183.3419      66.28305       25321.863      395.97528      8275.4953      1.5616464      0.79786072   
     28800  -6119.7152     -6186.0639      66.348749      25515.824      396.36777      8261.8321      1.5642291      0.79786072   
     28900  -6117.9886     -6185.1         67.111459      27524.894      400.9242       8241.7784      1.5680351      0.79786072   
     29000  -6115.8666     -6183.0404      67.173783      28039.423      401.29652      8217.5152      1.5726649      0.81655805   
     29100  -6117.2018     -6184.9558      67.75399       30505.22       404.76269      8195.4035      1.5769081      0.81655805   
     29200  -6118.6955     -6183.8178      65.12237       28960.229      389.04138      8177.5288      1.5803549      0.81655805   
     29300  -6118.891      -6183.6692      64.778208      32022.924      386.98535      8166.1273      1.5825614      0.81655805   
     29400  -6120.039      -6185.5485      65.50945       30381.83       391.35379      8166.9084      1.58241        0.81655805   
     29500  -6120.3913     -6186.7925      66.401192      28617.488      396.68106      8179.4146      1.5799906      0.81655805   
     29600  -6119.8817     -6186.319       66.437254      32908.997      396.8965       8198.9177      1.5762322      0.81655805   
     29700  -6119.0861     -6185.6736      66.587552      31712.124      397.79438      8223.1079      1.5715953      0.81655805   
     29800  -6121.7914     -6188.1652      66.373802      27872.515      396.51744      8247.955       1.5668609      0.81655805   
     29900  -6121.6959     -6185.9795      64.283616      30198.58       384.03065      8266.1657      1.563409       0.81655805   
     30000  -6121.1331     -6186.502       65.368855      26759.835      390.51388      8273.0152      1.5621146      0.85136969   
     30100  -6120.9826     -6186.0952      65.112669      29228.188      388.98342      8266.1389      1.5634141      0.85136969   
     30200  -6120.2364     -6187.5191      67.282674      24814.664      401.94704      8247.3068      1.566984       0.85136969   
     30300  -6118.6148     -6186.6792      68.064433      27549.462      406.61727      8221.2007      1.5719599      0.85136969   
     30400  -6116.462      -6185.473       69.010993      31354.739      412.27203      8195.0796      1.5769704      0.85136969   
     30500  -6116.4796     -6183.1371      66.657471      31479.739      398.21207      8177.4651      1.5803672      0.85136969   
     30600  -6116.3379     -6183.919       67.58115       32001.202      403.73014      8173.2407      1.5811841      0.85136969   
     30700  -6119.5756     -6185.4103      65.834628      30927.719      393.29641      8183.389       1.5792232      0.85136969   
     30800  -6118.1318     -6186.9319      68.800109      27409.59       411.01221      8204.1985      1.5752176      0.85136969   
     30900  -6119.2819     -6185.31        66.028116      30075.431      394.45231      8228.8838      1.5704922      0.85136969   
     31000  -6117.1246     -6185.0467      67.922088      31383.809      405.7669       8253.1129      1.5658816      0.84495928   
     31100  -6116.7141     -6182.5198      65.805688      31631.113      393.12352      8271.5994      1.562382       0.84495928   
     31200  -6118.4846     -6186.8356      68.350992      25900.399      408.32918      8281.2593      1.5605595      0.84495928   
     31300  -6118.8686     -6186.098       67.229378      28598.989      401.62865      8278.402       1.5610981      0.84495928   
     31400  -6117.1624     -6184.455       67.292685      25642.396      402.00685      8261.092       1.5643692      0.84495928   
     31500  -6117.0105     -6184.0365      67.026014      27202.691      400.41375      8235.8196      1.5691696      0.84495928   
     31600  -6118.235      -6186.1825      67.947482      28024.099      405.91861      8205.3308      1.5750002      0.84495928   
     31700  -6117.3392     -6183.2748      65.935592      28042.701      393.89956      8172.923       1.5812455      0.84495928   
     31800  -6118.2055     -6184.8072      66.601696      29787.597      397.87888      8149.6206      1.5857668      0.84495928   
     31900  -6117.5317     -6183.0535      65.521751      25503.097      391.42728      8143.4725      1.586964       0.84495928   
     32000  -6116.0263     -6183.2675      67.241136      27659.047      401.69889      8154.5835      1.5848017      0.79549631   
     32100  -6115.122      -6182.4031      67.281074      28172.85       401.93748      8182.9514      1.5793077      0.79549631   
     32200  -6114.4235     -6183.2892      68.865682      28924.3        411.40394      8226.3695      1.5709722      0.79549631   
     32300  -6117.7172     -6185.1403      67.423077      28295.673      402.78581      8273.4082      1.5620404      0.79549631   
     32400  -6119.8374     -6187.1197      67.28235       21019.15       401.9451       8315.0952      1.5542092      0.79549631   
     32500  -6121.3528     -6186.2647      64.911856      23113.405      387.78376      8336.7083      1.5501799      0.79549631   
     32600  -6120.5488     -6186.4371      65.888271      22064.844      393.61687      8330.3783      1.5513579      0.79549631   
     32700  -6119.5322     -6185.6961      66.1639        24410.978      395.26348      8294.0995      1.5581436      0.79549631   
     32800  -6115.6939     -6180.0632      64.369365      31778.051      384.54292      8236.1865      1.5690997      0.79549631   
     32900  -6110.9968     -6182.3461      71.349311      28617.99       426.24115      8180.9976      1.5796848      0.79549631   
     33000  -6113.3349     -6181.7745      68.439652      35121.602      408.85884      8140.9764      1.5874506      0.87316089   
     33100  -6112.1164     -6182.3964      70.280036      29946.332      419.8533       8124.1754      1.5907335      0.87316089   
     33200  -6114.7533     -6185.5598      70.806494      29330.81       422.99836      8132.5931      1.589087       0.87316089   
     33300  -6115.9002     -6184.2908      68.390582      33234.56       408.56569      8162.4369      1.5832769      0.87316089   
     33400  -6116.3475     -6183.2259      66.878354      30047.731      399.53163      8209.0367      1.5742892      0.87316089   
     33500  -6118.9967     -6184.2194      65.222734      24502.604      389.64095      8259.1041      1.5647457      0.87316089   
     33600  -6119.3773     -6184.4997      65.122359      19434.839      389.04131      8300.2157      1.5569954      0.87316089   
     33700  -6119.2462     -6185.3989      66.152699      22518.129      395.19656      8321.379       1.5530356      0.87316089   
     33800  -6118.5366     -6184.4742      65.93757       27006.313      393.91138      8320.1242      1.5532698      0.87316089   
     33900  -6120.5359     -6186.2443      65.708358      29072.861      392.54207      8300.2172      1.5569951      0.87316089   
     34000  -6120.1119     -6186.1152      66.003302      28296.247      394.30407      8263.3471      1.5639423      0.83058593   
     34100  -6119.1519     -6184.55        65.398115      31419.759      390.68867      8217.458       1.5726759      0.83058593   
     34200  -6117.3072     -6185.8842      68.576952      28693.096      409.67906      8175.2136      1.5808025      0.83058593   
     34300  -6119.0596     -6183.8874      64.827749      30036.823      387.28131      8145.8949      1.5864921      0.83058593   
     34400  -6119.644      -6185.7033      66.059261      33162.947      394.63837      8132.5503      1.5890953      0.83058593   
     34500  -6116.2454     -6184.2965      68.051116      32826.396      406.53772      8137.7059      1.5880886      0.83058593   
     34600  -6117.9389     -6184.8705      66.931565      26838.166      399.84951      8163.1326      1.583142       0.83058593   
     34700  -6118.8077     -6185.1563      66.348574      26613.014      396.36673      8201.1771      1.5757979      0.83058593   
     34800  -6117.0013     -6183.6442      66.6429        25331.589      398.12503      8244.4835      1.5675206      0.83058593   
     34900  -6117.0212     -6184.4823      67.46115       24795.74       403.01326      8283.4967      1.560138       0.83058593   
     35000  -6117.0607     -6183.9723      66.911672      22622.977      399.73067      8313.4854      1.5545102      0.79929595   
     35100  -6116.6203     -6181.6049      64.984668      22748.389      388.21874      8327.3864      1.5519153      0.79929595   
     35200  -6113.8518     -6182.7908      68.939005      24438.976      411.84197      8323.5711      1.5526266      0.79929595   
     35300  -6112.229      -6181.8613      69.632357      29306.67       415.98406      8306.2182      1.5558703      0.79929595   
     35400  -6114.9268     -6184.9529      70.026072      26696.682      418.33611      8281.2176      1.5605674      0.79929595   
     35500  -6115.2        -6183.5607      68.360753      31338.861      408.38749      8252.5286      1.5659925      0.79929595   
     35600  -6116.8151     -6184.2953      67.480158      31090.78       403.12681      8223.346       1.5715498      0.79929595   
     35700  -6119.174      -6182.9487      63.774749      28763.86       380.99068      8197.1815      1.576566       0.79929595   
     35800  -6121.0803     -6186.4152      65.334851      30596.25       390.31074      8176.6907      1.5805169      0.79929595   
     35900  -6120.4981     -6184.5478      64.049676      30945.168      382.63309      8164.2676      1.5829219      0.79929595   
     36000  -6119.3754     -6185.5247      66.149285      28607.143      395.17617      8165.3748      1.5827073      0.86579288   
     36100  -6117.8164     -6185.635       67.818617      25885.834      405.14876      8178.5999      1.580148       0.86579288   
     36200  -6117.9089     -6183.777       65.868038      27129.806      393.496        8202.4991      1.575544       0.86579288   
     36300  -6118.8602     -6186.2359      67.375679      27761.958      402.50266      8230.3943      1.570204       0.86579288   
     36400  -6116.7403     -6184.0232      67.282839      27301.941      401.94803      8256.5545      1.5652289      0.86579288   
     36500  -6117.1966     -6184.1959      66.999314      26734.075      400.25425      8277.627       1.5612443      0.86579288   
     36600  -6117.8339     -6183.1466      65.31277       24050.662      390.17883      8286.4119      1.5595891      0.86579288   
     36700  -6118.2689     -6183.7754      65.506483      26037.391      391.33607      8282.5712      1.5603123      0.86579288   
     36800  -6116.6334     -6185.9063      69.27292       27926.418      413.83678      8268.4018      1.5629862      0.86579288   
     36900  -6118.1237     -6184.1136      65.989888      28223.721      394.22393      8243.2211      1.5677607      0.86579288   
     37000  -6116.768      -6184.3267      67.558787      29021.617      403.59654      8216.5464      1.5728504      0.79726493   
     37100  -6116.4825     -6183.9696      67.487112      32112.73       403.16836      8193.1629      1.5773393      0.79726493   
     37200  -6117.2773     -6184.9476      67.670291      30192.041      404.26267      8180.5471      1.5797718      0.79726493   
     37300  -6118.0449     -6184.3682      66.323293      24953.52       396.21569      8180.0154      1.5798745      0.79726493   
     37400  -6118.6936     -6185.1184      66.424823      28453.144      396.82223      8185.9319      1.5787326      0.79726493   
     37500  -6117.3001     -6185.3199      68.01975       27523.239      406.35034      8198.3015      1.5763507      0.79726493   
     37600  -6118.6469     -6184.3252      65.678267      27775.994      392.36231      8216.351       1.5728878      0.79726493   
     37700  -6120.3282     -6186.1414      65.813235      27660.1        393.16861      8237.5154      1.5688466      0.79726493   
     37800  -6118.0655     -6184.1745      66.109016      27457.888      394.9356       8254.2882      1.5656587      0.79726493   
     37900  -6115.2577     -6182.7102      67.452533      31409          402.96178      8263.6746      1.5638803      0.79726493   
     38000  -6114.5657     -6181.1136      66.54795       29266.584      397.5578       8266.8405      1.5632814      0.8158677    
     38100  -6115.8105     -6181.7015      65.890941      29109.266      393.63282      8266.6908      1.5633097      0.8158677    
     38200  -6117.0764     -6182.9725      65.896114      26580.622      393.66372      8261.6475      1.564264       0.8158677    
     38300  -6116.0439     -6182.8744      66.83051       25648.25       399.24581      8249.3908      1.5665882      0.8158677    
     38400  -6117.0296     -6183.0795      66.049918      29534.575      394.58255      8232.3679      1.5698276      0.8158677    
     38500  -6117.0267     -6186.3124      69.285737      29485.772      413.91335      8215.6141      1.5730288      0.8158677    
     38600  -6117.966      -6185.0546      67.088571      28987.713      400.78747      8202.0978      1.575621       0.8158677    
     38700  -6117.5714     -6183.1572      65.585781      27352.186      391.8098       8195.238       1.5769399      0.8158677    
     38800  -6117.7446     -6185.0321      67.287498      26468.952      401.97586      8194.914       1.5770023      0.8158677    
     38900  -6118.3562     -6182.8806      64.524425      29433.371      385.46925      8199.1039      1.5761964      0.8158677    
     39000  -6117.1348     -6182.2197      65.08486       32078.089      388.81729      8207.457       1.5745922      0.85015595   
     39100  -6117.3947     -6183.6007      66.206009      26738.324      395.51504      8219.7335      1.5722405      0.85015595   
     39200  -6119.2481     -6185.242       65.993937      27017.249      394.24812      8236.4943      1.5690411      0.85015595   
     39300  -6119.9447     -6186.3485      66.403822      25711.907      396.69678      8253.3538      1.5658359      0.85015595   
     39400  -6117.2185     -6181.9735      64.754985      27511.995      386.84662      8265.3358      1.563566       0.85015595   
     39500  -6118.0648     -6184.2886      66.223829      24653.359      395.62149      8271.6195      1.5623782      0.85015595   
     39600  -6116.5561     -6183.6048      67.04865       28060.773      400.54898      8268.857       1.5629002      0.85015595   
     39700  -6115.2296     -6181.6101      66.380537      29632.544      396.55767      8258.9253      1.5647796      0.85015595   
     39800  -6117.1704     -6181.9661      64.795705      30638.427      387.08987      8245.1255      1.5673986      0.85015595   
     39900  -6118.452      -6185.1586      66.706572      26912.235      398.50541      8227.55        1.5707468      0.85015595   
     40000  -6118.492      -6186.1044      67.612419      32334.428      403.91694      8204.9785      1.5750679      0.82848947   
     40100  -6118.6051     -6186.1846      67.579525      30202.208      403.72043      8183.6853      1.579166       0.82848947   
     40200  -6116.878      -6185.0085      68.1305        28418.972      407.01196      8169.8208      1.5818459      0.82848947   
     40300  -6116.4159     -6184.0014      67.585547      30148.072      403.7564       8168.7993      1.5820438      0.82848947   
     40400  -6115.8733     -6181.9277      66.054462      29262.159      394.6097       8185.0958      1.5788939      0.82848947   
     40500  -6117.0467     -6187.444       70.397332      30819.245      420.55403      8214.9714      1.5731519      0.82848947   
     40600  -6116.3581     -6184.8154      68.457374      30857.116      408.9647       8249.5019      1.5665671      0.82848947   
     40700  -6117.8833     -6186.2316      68.348324      26881.215      408.31324      8283.5188      1.5601338      0.82848947   
     40800  -6119.2567     -6185.5548      66.298103      24548.646      396.06521      8307.8965      1.555556       0.82848947   
     40900  -6116.5319     -6184.4577      67.925871      25796.96       405.7895       8314.4828      1.5543237      0.82848947   
     41000  -6115.7847     -6182.6681      66.883427      29875.8        399.56194      8303.5277      1.5563744      0.81330498   
     41100  -6115.3134     -6182.6185      67.305108      29288.612      402.08106      8279.1632      1.5609546      0.81330498   
     41200  -6113.1185     -6182.7351      69.616593      27806.182      415.88988      8248.7365      1.5667124      0.81330498   
     41300  -6113.9997     -6182.3455      68.345733      28204.752      408.29776      8222.2607      1.5717572      0.81330498   
     41400  -6118.3832     -6184.1229      65.739658      32286.928      392.72905      8204.0951      1.5752375      0.81330498   
     41500  -6117.3133     -6182.7293      65.416014      35545.754      390.79561      8192.2582      1.5775135      0.81330498   
     41600  -6117.1477     -6182.3259      65.178187      33079.369      389.37483      8187.8233      1.5783679      0.81330498   
     41700  -6118.9766     -6185.2741      66.297439      28356.137      396.06124      8192.974       1.5773757      0.81330498   
     41800  -6120.2009     -6185.0321      64.831249      29504.866      387.30222      8201.8465      1.5756693      0.81330498   
     41900  -6120.0323     -6185.9373      65.904996      27086.212      393.71678      8215.1401      1.5731196      0.81330498   
     42000  -6120.0182     -6187.0795      67.061325      32931.949      400.6247       8228.4389      1.5705771      0.8654478    
     42100  -6116.7894     -6184.4341      67.644632      33422.17       404.10938      8237.5186      1.568846       0.8654478    
     42200  -6117.2659     -6184.639       67.37312       29856.462      402.48737      8248.7264      1.5667143      0.8654478    
     42300  -6117.2352     -6184.2095      66.974264      24790.756      400.1046       8258.85        1.5647939      0.8654478    
     42400  -6119.3694     -6187.1631      67.793664      25616.424      404.9997       8264.8449      1.5636588      0.8654478    
     42500  -6118.8517     -6185.0475      66.195808      25849.89       395.4541       8261.6172      1.5642697      0.8654478    
     42600  -6118.0578     -6184.8115      66.753724      28636.163      398.78709      8251.616       1.5661657      0.8654478    
     42700  -6116.4779     -6182.6463      66.168401      29123.446      395.29037      8235.3821      1.569253       0.8654478    
     42800  -6114.1964     -6180.797       66.60063       26143.854      397.87251      8219.8506      1.5722181      0.8654478    
     42900  -6117.3925     -6184.0752      66.682677      26591.292      398.36266      8212.4431      1.5736362      0.8654478    
     43000  -6116.1726     -6183.9396      67.767072      26866.516      404.84084      8208.6501      1.5743634      0.82585302   
     43100  -6118.2362     -6184.6983      66.462063      28467.769      397.04471      8207.6683      1.5745517      0.82585302   
     43200  -6118.3695     -6185.7191      67.349589      29524.345      402.34679      8210.2959      1.5740478      0.82585302   
     43300  -6116.4165     -6183.0236      66.607087      31335.556      397.91108      8217.0782      1.5727485      0.82585302   
     43400  -6113.3513     -6183.2304      69.879124      26811.262      417.45825      8230.7531      1.5701355      0.82585302   
     43500  -6114.7432     -6183.0574      68.314211      25992.241      408.10945      8248.1213      1.5668293      0.82585302   
     43600  -6115.2699     -6183.805       68.535072      32728.708      409.42887      8265.6341      1.5635096      0.82585302   
     43700  -6116.7771     -6184.0893      67.312141      27671.034      402.12308      8278.9744      1.5609902      0.82585302   
     43800  -6116.1536     -6184.0539      67.900311      29768.123      405.63681      8285.2701      1.5598041      0.82585302   
     43900  -6118.193      -6185.8813      67.688293      23854.643      404.37021      8282.4791      1.5603297      0.82585302   
     44000  -6116.6692     -6182.1283      65.459123      26442.816      391.05314      8270.9007      1.562514       0.8426778    
     44100  -6117.7863     -6183.1422      65.355902      30282.47       390.4365       8253.2859      1.5658488      0.8426778    
     44200  -6116.915      -6184.9037      67.988737      28933.143      406.16506      8233.1878      1.5696712      0.8426778    
     44300  -6115.5576     -6182.0658      66.508225      28932.728      397.32048      8213.695       1.5733964      0.8426778    
     44400  -6116.5286     -6182.8252      66.296547      27077.869      396.05591      8203.2375      1.5754021      0.8426778    
     44500  -6118.3389     -6183.8042      65.465316      28151.926      391.09014      8200.792       1.5758719      0.8426778    
     44600  -6118.5132     -6184.9364      66.423172      31823.77       396.81237      8206.9087      1.5746974      0.8426778    
     44700  -6116.488      -6186.067       69.57903       30408.586      415.66549      8219.6621      1.5722542      0.8426778    
     44800  -6116.3754     -6182.7699      66.394455      30307.436      396.64081      8237.3681      1.5688746      0.8426778    
     44900  -6117.1202     -6182.6757      65.555491      25772.506      391.62884      8262.0869      1.5641808      0.8426778    
     45000  -6118.2218     -6185.5849      67.363088      24915.55       402.42744      8288.8249      1.5591351      0.93038253   
     45100  -6116.7671     -6186.8857      70.118593      25352.06       418.88883      8304.415       1.5562081      0.93038253   
     45200  -6116.9173     -6184.8047      67.887394      27299.015      405.55964      8306.9434      1.5557344      0.93038253   
     45300  -6115.1935     -6183.2578      68.064347      30687.425      406.61676      8296.2421      1.5577412      0.93038253   
     45400  -6115.7103     -6183.6313      67.920936      29593.332      405.76002      8276.1943      1.5615146      0.93038253   
     45500  -6113.3767     -6183.9301      70.553382      29697.352      421.48626      8251.8634      1.5661187      0.93038253   
     45600  -6113.8185     -6182.6231      68.804559      29279.469      411.03879      8230.6095      1.5701629      0.93038253   
     45700  -6114.2637     -6182.5233      68.259538      31360.455      407.78283      8219.3067      1.5723221      0.93038253   
     45800  -6116.9961     -6184.655       67.658932      28926.678      404.19481      8220.2008      1.5721511      0.93038253   
     45900  -6117.9333     -6183.797       65.863674      27328.613      393.46993      8227.9085      1.5706784      0.93038253   
     46000  -6117.787      -6184.5298      66.742859      32857.32       398.72219      8240.3246      1.5683118      0.83262819   
     46100  -6118.7054     -6185.5697      66.864275      30008.434      399.44752      8254.0548      1.5657029      0.83262819   
     46200  -6119.0843     -6184.1433      65.059011      30142.435      388.66287      8263.7891      1.5638586      0.83262819   
     46300  -6119.26       -6186.1025      66.842449      26182.456      399.31713      8266.4436      1.5633564      0.83262819   
     46400  -6120.4391     -6186.9822      66.543028      29152.955      397.52839      8257.946       1.5649652      0.83262819   
     46500  -6120.8703     -6185.4832      64.612912      28563.728      385.99787      8239.8867      1.5683951      0.83262819   
     46600  -6117.6917     -6184.3215      66.629853      30249.3        398.04709      8218.2254      1.572529       0.83262819   
     46700  -6118.9667     -6185.6136      66.6469        30443.606      398.14892      8199.7531      1.5760716      0.83262819   
     46800  -6117.0487     -6184.4959      67.447198      30082.311      402.92991      8184.937       1.5789245      0.83262819   
     46900  -6120.4709     -6184.7802      64.309236      28912.7        384.18371      8180.6714      1.5797478      0.83262819   
     47000  -6120.3931     -6184.1821      63.789025      31280.466      381.07596      8184.6669      1.5789766      0.82967492   
     47100  -6120.6096     -6187.9421      67.332472      25776.302      402.24454      8196.3493      1.5767261      0.82967492   
     47200  -6119.6143     -6185.229       65.614725      24808.494      391.9827       8211.8417      1.5737515      0.82967492   
     47300  -6118.8708     -6185.0824      66.211601      29075.679      395.54844      8228.3712      1.57059        0.82967492   
     47400  -6118.6283     -6185.018       66.389774      31531.859      396.61285      8243.3252      1.5677409      0.82967492   
     47500  -6119.3894     -6186.2908      66.901338      28050.453      399.66894      8252.5941      1.5659801      0.82967492   
     47600  -6117.3487     -6184.4639      67.115175      25703.872      400.9464       8254.7955      1.5655624      0.82967492   
     47700  -6119.9673     -6186.9665      66.999231      30657.146      400.25375      8250.7662      1.566327       0.82967492   
     47800  -6121.13       -6187.1053      65.975239      27512.395      394.13641      8240.509       1.5682767      0.82967492   
     47900  -6122.0447     -6188.4469      66.402212      26237.886      396.68716      8225.7652      1.5710876      0.82967492   
     48000  -6118.6681     -6186.5687      67.90062       29324.793      405.63866      8207.8327      1.5745201      0.9004224    
     48100  -6117.6298     -6184.3908      66.761036      29284.804      398.83077      8193.7329      1.5772296      0.9004224    
     48200  -6116.923      -6184.3176      67.394604      29405.932      402.61571      8190.632       1.5778267      0.9004224    
     48300  -6116.4224     -6185.8049      69.382576      28026.678      414.49187      8197.9873      1.5764111      0.9004224    
     48400  -6114.1177     -6181.3493      67.231596      30440.967      401.6419       8209.5928      1.5741826      0.9004224    
     48500  -6113.8846     -6182.7522      68.867576      30535.716      411.41526      8228.2091      1.570621       0.9004224    
     48600  -6113.8495     -6182.3911      68.541585      35211.172      409.46778      8252.2496      1.5660454      0.9004224    
     48700  -6115.7294     -6185.0274      69.298044      27322.806      413.98687      8275.6251      1.561622       0.9004224    
     48800  -6118.4449     -6184.0985      65.653575      25399.443      392.21479      8290.1861      1.5588791      0.9004224    
     48900  -6119.7591     -6185.8511      66.092006      24384.612      394.83399      8289.4623      1.5590152      0.9004224    
     49000  -6118.0239     -6185.4284      67.404566      29048.324      402.67522      8274.7018      1.5617962      0.87513039   
     49100  -6116.7238     -6184.1647      67.44086       28894.754      402.89205      8249.6622      1.5665366      0.87513039   
     49200  -6117.2064     -6184.3865      67.180106      27766.355      401.3343       8222.7913      1.5716558      0.87513039   
     49300  -6119.2178     -6185.6217      66.403882      29059.037      396.69713      8201.058       1.5758208      0.87513039   
     49400  -6117.9611     -6183.4868      65.525712      26980.78       391.45094      8184.591       1.5789913      0.87513039   
     49500  -6117.6829     -6183.9479      66.265026      30273.332      395.86761      8177.7217      1.5803176      0.87513039   
     49600  -6116.9327     -6183.8857      66.953001      26488.682      399.97757      8179.939       1.5798893      0.87513039   
     49700  -6117.3769     -6184.9252      67.548351      25288.649      403.53419      8193.0245      1.5773659      0.87513039   
     49800  -6118.4192     -6185.0195      66.600337      27977.956      397.87075      8213.058       1.5735184      0.87513039   
     49900  -6117.3358     -6185.6672      68.33135       28022.321      408.21184      8237.1189      1.5689221      0.87513039   
     50000  -6118.1363     -6183.2992      65.162868      29615.995      389.28331      8254.3638      1.5656443      0.95638792   
     50100  -6118.0348     -6186.2144      68.179603      29530.314      407.3053       8260.4002      1.5645002      0.95638792   
     50200  -6116.9281     -6181.9865      65.058454      28167.453      388.65954      8257.795       1.5649938      0.95638792   
     50300  -6115.2616     -6182.9022      67.640643      25134.354      404.08555      8252.2806      1.5660396      0.95638792   
     50400  -6115.7547     -6185.6455      69.890887      30305.381      417.52852      8244.0356      1.5676058      0.95638792   
     50500  -6115.441      -6183.5085      68.067475      29917.838      406.63545      8232.5115      1.5698002      0.95638792   
     50600  -6115.2512     -6183.1765      67.925331      29704.812      405.78628      8220.1972      1.5721518      0.95638792   
     50700  -6116.2647     -6184.8277      68.563012      29833.17       409.59579      8209.8816      1.5741272      0.95638792   
     50800  -6115.9334     -6182.0831      66.149727      34212.562      395.17881      8205.5058      1.5749666      0.95638792   
     50900  -6112.9099     -6180.9812      68.071352      29871.009      406.65861      8211.4638      1.5738239      0.95638792   
     51000  -6115.5533     -6187.1847      71.631414      23946.111      427.92644      8230.1488      1.5702508      0.80016952   
     51100  -6113.564      -6181.1583      67.594297      31102.463      403.80868      8248.5237      1.5667528      0.80016952   
     51200  -6112.8716     -6181.9592      69.087524      29810.467      412.72922      8265.9599      1.5634479      0.80016952   
     51300  -6115.8908     -6184.3901      68.499262      25268.868      409.21494      8283.9719      1.5600485      0.80016952   
     51400  -6115.4395     -6180.8325      65.392957      23090.95       390.65786      8296.4849      1.5576956      0.80016952   
     51500  -6115.0518     -6183.9628      68.910924      22869.079      411.67421      8302.5987      1.5565485      0.80016952   
     51600  -6115.3885     -6183.4585      68.069971      26899.831      406.65035      8295.8843      1.5578084      0.80016952   
     51700  -6116.8131     -6181.7039      64.890869      28227.643      387.65838      8279.328       1.5609235      0.80016952   
     51800  -6117.7806     -6184.2645      66.483897      25915.531      397.17514      8255.0619      1.5655119      0.80016952   
     51900  -6117.6977     -6184.2353      66.537521      27393.518      397.49549      8224.8718      1.5712583      0.80016952   
     52000  -6120.1315     -6184.3484      64.216807      32534.579      383.63154      8197.0426      1.5765927      0.92863598   
     52100  -6118.4893     -6184.1778      65.688504      29526.627      392.42346      8174.6926      1.5809032      0.92863598   
     52200  -6117.2253     -6184.8735      67.648229      29170.695      404.13087      8163.2478      1.5831196      0.92863598   
     52300  -6114.2879     -6184.8371      70.549227      25666.6        421.46145      8168.5104      1.5820997      0.92863598   
     52400  -6112.1124     -6182.1056      69.993215      29956.549      418.13983      8192.0712      1.5775495      0.92863598   
     52500  -6114.1191     -6182.696       68.576864      30944.478      409.67854      8233.7365      1.5695666      0.92863598   
     52600  -6114.7108     -6181.2094      66.498542      28997.303      397.26263      8279.9031      1.5608151      0.92863598   
     52700  -6116.1703     -6183.7873      67.616986      26862.329      403.94422      8323.9456      1.5525567      0.92863598   
     52800  -6118.4843     -6183.2647      64.78037       26460.179      386.99827      8355.3278      1.5467254      0.92863598   
     52900  -6117.3147     -6185.4365      68.121764      25077.559      406.95977      8362.9295      1.5453195      0.92863598   
     53000  -6116.4148     -6184.1692      67.754427      26519.83       404.7653       8344.1272      1.5488016      0.87053326   
     53100  -6117.1243     -6185.4272      68.302951      27804.614      408.04218      8306.3012      1.5558547      0.87053326   
     53200  -6116.2652     -6184.1875      67.922287      26490.822      405.76809      8257.9927      1.5649563      0.87053326   
     53300  -6117.1919     -6182.029       64.837168      28691.393      387.33757      8209.3685      1.5742256      0.87053326   
     53400  -6114.8775     -6183.1602      68.28271       31940.49       407.92126      8172.8453      1.5812606      0.87053326   
     53500  -6114.7544     -6183.4445      68.690024      27955.114      410.35455      8156.2108      1.5844855      0.87053326   
     53600  -6113.2142     -6181.3665      68.15228       27440.81       407.14207      8161.8501      1.5833907      0.87053326   
     53700  -6115.4107     -6182.5659      67.15516       31847.708      401.18527      8189.6418      1.5780175      0.87053326   
     53800  -6116.6938     -6182.412       65.718195      29021.692      392.60084      8230.2555      1.5702305      0.87053326   
     53900  -6117.5988     -6185.1426      67.543853      26383.764      403.50733      8276.0262      1.5615463      0.87053326   
     54000  -6117.6517     -6184.0451      66.393482      28579.029      396.635        8312.2412      1.5547429      0.85479943   
     54100  -6116.8283     -6183.058       66.229767      26877.109      395.65697      8332.2983      1.5510004      0.85479943   
     54200  -6115.1153     -6184.2964      69.18106       26244.456      413.28801      8333.2291      1.5508271      0.85479943   
     54300  -6114.9439     -6182.5578      67.613837      22922.979      403.92541      8313.9663      1.5544203      0.85479943   
     54400  -6116.7395     -6185.5678      68.828272      22639.791      411.18045      8283.0065      1.5602303      0.85479943   
     54500  -6115.7144     -6183.1061      67.391703      29272.403      402.59838      8242.8996      1.5678218      0.85479943   
     54600  -6115.8295     -6183.6613      67.83179       31640.784      405.22746      8206.3017      1.5748139      0.85479943   
     54700  -6116.5219     -6183.0249      66.503092      30200.088      397.28981      8180.9813      1.579688       0.85479943   
     54800  -6118.4639     -6182.9062      64.442318      28938.724      384.97874      8167.6196      1.5822723      0.85479943   
     54900  -6116.504      -6183.8081      67.304094      28593.361      402.075        8166.0691      1.5825727      0.85479943   
     55000  -6117.7121     -6183.0274      65.315227      30370.332      390.1935       8175.5732      1.5807329      0.8475247    
     55100  -6117.3927     -6185.6522      68.259485      28384.066      407.78252      8195.3094      1.5769262      0.8475247    
     55200  -6118.2296     -6183.9301      65.700541      29928.808      392.49537      8218.9129      1.5723975      0.8475247    
     55300  -6117.729      -6184.1775      66.448525      26903.599      396.96383      8242.6302      1.5678731      0.8475247    
     55400  -6118.186      -6185.4154      67.229455      29575.067      401.62911      8263.5338      1.5639069      0.8475247    
     55500  -6114.9362     -6183.0497      68.113538      28070.728      406.91063      8276.2848      1.5614975      0.8475247    
[...]
   2006000  -6117.5272     -6184.8229      67.295691      32012.869      402.02481      8101.4039      1.5952047      0.80176757   
   2006100  -6120.153      -6187.1243      66.97128       32053.134      400.08677      8113.5217      1.5928222      0.80176757   
   2006200  -6119.5565     -6183.562       64.005462      30284.873      382.36896      8144.272       1.5868082      0.80176757   
   2006300  -6119.3779     -6187.3081      67.930199      28472.244      405.81536      8185.0918      1.5788947      0.80176757   
   2006400  -6119.354      -6185.7966      66.44259       29724.782      396.92837      8223.9463      1.5714351      0.80176757   
   2006500  -6118.5087     -6185.3203      66.811614      28626.446      399.13292      8255.529       1.5654233      0.80176757   
   2006600  -6114.8235     -6182.9604      68.136936      26582.981      407.05041      8276.4595      1.5614645      0.80176757   
   2006700  -6115.7543     -6181.8213      66.066976      26627.694      394.68446      8284.3128      1.5599843      0.80176757   
   2006800  -6118.4533     -6184.9766      66.52333       19665.348      397.41072      8280.2954      1.5607412      0.80176757   
   2006900  -6116.7098     -6182.7255      66.015687      21598.786      394.37805      8261.1261      1.5643628      0.80176757   
   2007000  -6114.8692     -6182.8106      67.941409      23928.609      405.88233      8230.7801      1.5701304      0.80401441   
   2007100  -6117.2444     -6186.4755      69.231108      26400.861      413.587        8199.084       1.5762002      0.80401441   
   2007200  -6117.5415     -6182.6249      65.083369      32645.039      388.80838      8168.2766      1.582145       0.80401441   
   2007300  -6117.8357     -6185.1948      67.359039      30685.748      402.40324      8147.5272      1.5861743      0.80401441   
   2007400  -6116.1671     -6183.7157      67.548586      27430.102      403.5356       8140.1244      1.5876168      0.80401441   
   2007500  -6114.6882     -6183.06        68.371767      31550.339      408.45329      8147.6318      1.5861539      0.80401441   
   2007600  -6116.9294     -6185.2446      68.315178      32937.121      408.11523      8172.57        1.5813138      0.80401441   
   2007700  -6119.5156     -6187.7432      68.227587      29488.466      407.59195      8207.1539      1.5746504      0.80401441   
   2007800  -6118.3889     -6184.2423      65.853478      33776.459      393.40902      8236.319       1.5690745      0.80401441   
   2007900  -6119.7108     -6185.1878      65.477005      29096.414      391.15997      8257.6363      1.5650239      0.80401441   
   2008000  -6117.6973     -6184.3528      66.655522      29591.942      398.20043      8266.4507      1.5633551      0.78653922   
   2008100  -6118.2194     -6186.4867      68.267267      27045.128      407.829        8261.012       1.5643843      0.78653922   
   2008200  -6117.5422     -6184.5347      66.992549      31989.677      400.21383      8242.6432      1.5678706      0.78653922   
   2008300  -6116.8447     -6185.548       68.703359      30022.311      410.43422      8219.3135      1.5723208      0.78653922   
   2008400  -6112.359      -6180.9385      68.579539      30870.986      409.69452      8195.7095      1.5768492      0.78653922   
   2008500  -6112.3826     -6184.7633      72.380666      29750.106      432.40247      8182.924       1.579313       0.78653922   
   2008600  -6113.0977     -6183.0197      69.921926      28158.768      417.71394      8180.8773      1.5797081      0.78653922   
   2008700  -6114.3769     -6181.7264      67.349534      28399.324      402.34646      8190.4341      1.5778648      0.78653922   
   2008800  -6116.7315     -6185.5616      68.83013       26831.071      411.19155      8208.0635      1.5744759      0.78653922   
   2008900  -6117.3583     -6186.6282      69.269917      27795.615      413.81884      8226.4742      1.5709522      0.78653922   
   2009000  -6117.3451     -6185.8727      68.527618      26484.876      409.38434      8239.418       1.5684843      0.90045855   
   2009100  -6117.4899     -6185.2798      67.789878      26198.811      404.97708      8247.4369      1.5669593      0.90045855   
   2009200  -6118.159      -6186.8969      68.737885      28679.829      410.64048      8248.428       1.566771       0.90045855   
   2009300  -6118.8901     -6185.7006      66.810521      25166.612      399.1264       8242.8217      1.5678366      0.90045855   
   2009400  -6118.2769     -6186.7076      68.430727      27256.631      408.80551      8231.2183      1.5700468      0.90045855   
   2009500  -6118.6032     -6185.7203      67.117045      32735.035      400.95758      8213.3643      1.5734597      0.90045855   
   2009600  -6118.7386     -6184.7932      66.054599      30040.258      394.61051      8192.2697      1.5775113      0.90045855   
   2009700  -6119.3475     -6186.8928      67.545323      27418.836      403.51611      8172.4434      1.5813383      0.90045855   
   2009800  -6118.0974     -6185.7985      67.701065      29827.386      404.44651      8154.6468      1.5847894      0.90045855   
   2009900  -6115.4714     -6184.882       69.410682      36689.398      414.65977      8146.7034      1.5863347      0.90045855   
   2010000  -6118.6266     -6185.3843      66.757737      32358.997      398.81106      8154.9994      1.5847209      0.83088455   
   2010100  -6119.1826     -6184.8883      65.705793      30170.86       392.52675      8175.1786      1.5808092      0.83088455   
   2010200  -6120.6169     -6187.9702      67.353264      26921.709      402.36875      8202.215       1.5755985      0.83088455   
   2010300  -6121.0186     -6186.5312      65.512595      30823.106      391.37258      8225.7529      1.57109        0.83088455   
   2010400  -6120.9333     -6188.0682      67.134897      25639.573      401.06422      8244.6976      1.5674799      0.83088455   
   2010500  -6121.8123     -6186.7742      64.96184       25977.018      388.08237      8252.2207      1.5660509      0.83088455   
   2010600  -6120.2056     -6188.5007      68.295112      22787.193      407.99535      8246.3294      1.5671697      0.83088455   
   2010700  -6120.003      -6186.247       66.244018      25181.528      395.74211      8226.8753      1.5708756      0.83088455   
   2010800  -6121.8727     -6186.8273      64.954615      25979.056      388.03921      8201.1512      1.5758029      0.83088455   
   2010900  -6120.7891     -6186.0403      65.251174      31417.254      389.81085      8172.1945      1.5813865      0.83088455   
   2011000  -6116.3477     -6185.1744      68.826657      29701.733      411.1708       8147.4092      1.5861972      0.84542204   
   2011100  -6116.8913     -6185.229       68.337706      29096.815      408.24981      8136.2378      1.5883751      0.84542204   
   2011200  -6117.6887     -6185.0429      67.354187      30356.943      402.37426      8142.6714      1.5871201      0.84542204   
   2011300  -6120.8621     -6188.4475      67.585369      28012.146      403.75534      8164.4436      1.5828878      0.84542204   
   2011400  -6121.1388     -6186.7612      65.622343      26166.947      392.02822      8193.5198      1.5772706      0.84542204   
   2011500  -6118.6252     -6185.5034      66.878279      29195.771      399.53118      8224.8697      1.5712587      0.84542204   
   2011600  -6118.4567     -6185.3694      66.912653      28011.74       399.73654      8256.5991      1.5652205      0.84542204   
   2011700  -6119.4406     -6186.4685      67.02792       24686.442      400.42514      8281.4232      1.5605286      0.84542204   
   2011800  -6120.813      -6185.2967      64.483628      28098.018      385.22553      8292.6367      1.5584184      0.84542204   
   2011900  -6118.8557     -6184.4286      65.572902      28803.992      391.73285      8287.4082      1.5594016      0.84542204   
   2012000  -6121.3563     -6188.9439      67.587607      27080.761      403.76871      8265.3555      1.5635623      0.88272373   
   2012100  -6118.9973     -6185.1998      66.202541      32107.307      395.49432      8224.3837      1.5713515      0.88272373   
   2012200  -6119.4414     -6183.6528      64.211389      33650.888      383.59917      8177.5062      1.5803593      0.88272373   
   2012300  -6117.5478     -6185.4846      67.936804      35359.406      405.85482      8136.9826      1.5882298      0.88272373   
   2012400  -6116.68       -6184.501       67.820997      34133.706      405.16298      8111.6008      1.5931994      0.88272373   
   2012500  -6116.2956     -6185.2949      68.999261      30540.717      412.20194      8108.4744      1.5938137      0.88272373   
   2012600  -6115.0553     -6184.1093      69.053999      31645.768      412.52894      8130.7925      1.5894389      0.88272373   
   2012700  -6116.3088     -6182.8912      66.582453      29632.377      397.76392      8177.3773      1.5803842      0.88272373   
   2012800  -6117.6637     -6187.5782      69.914492      27357.66       417.66953      8240.9797      1.5681871      0.88272373   
   2012900  -6120.144      -6186.992       66.847987      22107.694      399.35022      8300.6534      1.5569133      0.88272373   
   2013000  -6121.9315     -6186.8393      64.907872      20513.11       387.75996      8342.1473      1.5491692      0.89279676   
   2013100  -6120.2321     -6186.9328      66.700675      20233.27       398.47017      8352.412       1.5472654      0.89279676   
   2013200  -6119.5717     -6185.4171      65.84544       19410.66       393.361        8330.4458      1.5513453      0.89279676   
   2013300  -6118.075      -6183.1397      65.064748      24719.717      388.69714      8286.4867      1.5595751      0.89279676   
   2013400  -6116.8973     -6183.9708      67.073509      25967.406      400.69749      8233.5811      1.5695962      0.89279676   
   2013500  -6117.6359     -6183.495       65.859029      32461.007      393.44218      8183.6534      1.5791722      0.89279676   
   2013600  -6117.4231     -6185.2885      67.865466      30546.646      405.42865      8145.4093      1.5865867      0.89279676   
   2013700  -6117.453      -6184.371       66.917932      30307.847      399.76807      8125.2558      1.590522       0.89279676   
   2013800  -6116.1847     -6183.002       66.817237      32193.301      399.16652      8129.0407      1.5897814      0.89279676   
   2013900  -6117.2785     -6184.7657      67.487176      26752.064      403.16874      8154.1835      1.5848795      0.89279676   
   2014000  -6118.4794     -6186.2742      67.794807      22994.705      405.00653      8190.2656      1.5778973      0.81680053   
   2014100  -6118.2136     -6187.0244      68.810784      28497.471      411.07598      8228.1559      1.5706311      0.81680053   
   2014200  -6118.5115     -6186.0777      67.566297      28520.489      403.64141      8260.6711      1.5644489      0.81680053   
   2014300  -6120.0056     -6186.1764      66.170828      25018.357      395.30487      8283.7548      1.5600894      0.81680053   
   2014400  -6117.9759     -6185.9178      67.941935      27118.254      405.88547      8296.0412      1.5577789      0.81680053   
   2014500  -6117.8722     -6183.703       65.830775      28402.019      393.27339      8295.4767      1.5578849      0.81680053   
   2014600  -6118.4051     -6185.435       67.029918      26695.526      400.43708      8285.1254      1.5598313      0.81680053   
   2014700  -6116.8872     -6183.9203      67.033116      26428.924      400.45618      8265.1437      1.5636023      0.81680053   
   2014800  -6116.9877     -6185.5034      68.515713      27635.387      409.31322      8243.4297      1.567721       0.81680053   
   2014900  -6118.035      -6186.0397      68.004712      29727.112      406.2605       8222.0737      1.571793       0.81680053   
   2015000  -6118.2076     -6186.801       68.593423      30194.33       409.77746      8205.3486      1.5749968      0.80075469   
   2015100  -6118.3373     -6185.7887      67.451446      31254.365      402.95528      8195.2         1.5769472      0.80075469   
   2015200  -6117.7774     -6184.7692      66.99171       29631.387      400.20882      8191.974       1.5775682      0.80075469   
   2015300  -6118.3064     -6186.0937      67.787349      29021.845      404.96197      8195.4708      1.5768951      0.80075469   
   2015400  -6118.8891     -6186.4596      67.570475      27830.265      403.66637      8205.96        1.5748795      0.80075469   
   2015500  -6119.3664     -6185.8898      66.523404      30901.835      397.41116      8221.3875      1.5719242      0.80075469   
   2015600  -6119.3715     -6185.0081      65.63665       30418.003      392.11368      8237.6727      1.5688166      0.80075469   
   2015700  -6119.1881     -6186.3932      67.205077      27337.942      401.48348      8252.1276      1.5660686      0.80075469   
   2015800  -6121.2571     -6186.6205      65.363378      28597.038      390.48116      8260.414       1.5644976      0.80075469   
   2015900  -6119.9516     -6186.9889      67.037313      27860.834      400.48125      8259.5778      1.564656       0.80075469   
   2016000  -6120.4767     -6187.4622      66.985496      24932.62       400.1717       8250.2658      1.566422       0.78772425   
   2016100  -6119.0386     -6183.0154      63.976726      23682.522      382.19729      8236.5115      1.5690378      0.78772425   
   2016200  -6119.258      -6185.7773      66.519324      26341.905      397.38678      8221.2724      1.5719462      0.78772425   
   2016300  -6119.7519     -6188.2035      68.451597      29759.059      408.93019      8207.827       1.5745212      0.78772425   
   2016400  -6119.6457     -6186.9991      67.353359      31371.195      402.36932      8195.5532      1.5768793      0.78772425   
   2016500  -6118.1881     -6185.4701      67.281969      34897.035      401.94283      8187.7543      1.5783813      0.78772425   
   2016600  -6117.5312     -6186.379       68.847762      29751.885      411.29688      8188.3081      1.5782745      0.78772425   
   2016700  -6117.6601     -6184.7299      67.069806      31487.312      400.67537      8198.2037      1.5763695      0.78772425   
   2016800  -6118.1565     -6185.7387      67.582166      25860.31       403.73621      8216.7674      1.572808       0.78772425   
   2016900  -6118.9832     -6187.1612      68.177988      27064.107      407.29565      8241.277       1.5681305      0.78772425   
   2017000  -6120.8467     -6187.7003      66.853645      25009.568      399.38402      8262.1776      1.5641637      0.85988575   
   2017100  -6120.3952     -6185.914       65.518827      27083.065      391.40981      8272.3442      1.5622413      0.85988575   
   2017200  -6118.6984     -6185.6849      66.986483      26331.393      400.17759      8270.5491      1.5625804      0.85988575   
   2017300  -6119.1419     -6184.8449      65.702998      24045.739      392.51005      8258.8768      1.5647888      0.85988575   
   2017400  -6119.1691     -6184.523       65.353829      23221.597      390.42411      8237.5094      1.5688477      0.85988575   
   2017500  -6118.0439     -6186.5398      68.495951      27943.963      409.19516      8208.1276      1.5744636      0.85988575   
   2017600  -6117.4755     -6186.0646      68.589101      25660.918      409.75164      8177.9118      1.5802809      0.85988575   
   2017700  -6120.694      -6186.4795      65.78551       29044.175      393.00297      8154.8022      1.5847592      0.85988575   
   2017800  -6121.1711     -6186.0728      64.901703      29255.775      387.72311      8141.777       1.5872945      0.85988575   
   2017900  -6121.2791     -6187.6077      66.328565      22902.601      396.24719      8138.409       1.5879514      0.85988575   
   2018000  -6120.6664     -6188.2611      67.594757      27017.953      403.81142      8144.2885      1.586805       0.84154664   
   2018100  -6119.9066     -6184.8278      64.921231      28861.128      387.83977      8162.6158      1.5832422      0.84154664   
   2018200  -6120.0483     -6184.7278      64.679531      26526.504      386.39585      8193.577       1.5772596      0.84154664   
   2018300  -6120.1093     -6185.8462      65.736802      27977.16       392.71199      8231.6709      1.5699605      0.84154664   
   2018400  -6118.4414     -6183.4504      65.008934      23944.06       388.36371      8266.0484      1.5634312      0.84154664   
   2018500  -6118.7534     -6186.3107      67.557275      25516.784      403.58751      8292.7412      1.5583988      0.84154664   
   2018600  -6119.1573     -6184.5049      65.347626      26066.825      390.38705      8306.6195      1.5557951      0.84154664   
   2018700  -6118.3371     -6187.0986      68.761427      27832.825      410.78112      8305.8514      1.555939       0.84154664   
   2018800  -6117.1894     -6183.0356      65.84621       31888.114      393.3656       8287.7072      1.5593454      0.84154664   
   2018900  -6116.023      -6185.6865      69.663502      27563.553      416.17012      8256.6439      1.565212       0.84154664   
   2019000  -6116.6461     -6185.1463      68.500254      28808.281      409.22087      8221.6618      1.5718717      0.88024947   
   2019100  -6115.5604     -6183.1272      67.566824      32333.367      403.64455      8188.7243      1.5781943      0.88024947   
   2019200  -6115.6522     -6181.2627      65.610565      28709.678      391.95785      8165.2798      1.5827257      0.88024947   
   2019300  -6117.124      -6184.5725      67.448525      31097.453      402.93783      8156.5477      1.5844201      0.88024947   
   2019400  -6118.7213     -6185.6514      66.930045      32843.184      399.84044      8162.0271      1.5833564      0.88024947   
   2019500  -6120.543      -6186.598       66.054959      28943.507      394.61266      8178.6326      1.5801416      0.88024947   
   2019600  -6120.0048     -6185.6882      65.683416      27124.901      392.39307      8200.4339      1.5759407      0.88024947   
   2019700  -6119.6209     -6185.8722      66.251287      29221.626      395.78553      8226.6308      1.5709223      0.88024947   
   2019800  -6118.4969     -6186.0458      67.548883      28726.374      403.53738      8251.878       1.566116       0.88024947   
   2019900  -6119.6465     -6186.8055      67.158983      27671.798      401.20811      8268.3422      1.5629975      0.88024947   
   2020000  -6121.8104     -6187.6427      65.832277      25409.811      393.28236      8271.7474      1.562354       0.81077006   
   2020033  -6120.8082     -6184.2754      63.467167      27466.978      379.15318      8269.4852      1.5627814      0.81077006   
Loop time of 8658.96 on 1 procs for 2000000 steps with 1296 atoms

Performance: 9.978 ns/day, 2.405 hours/ns, 230.975 timesteps/s, 299.343 katom-step/s
99.8% CPU use with 1 MPI tasks x 1 OpenMP threads

MPI task timing breakdown:
Section |  min time  |  avg time  |  max time  |%varavg| %total
---------------------------------------------------------------
Pair    | 6625.2     | 6625.2     | 6625.2     |   0.0 | 76.51
Neigh   | 87.77      | 87.77      | 87.77      |   0.0 |  1.01
Comm    | 88.055     | 88.055     | 88.055     |   0.0 |  1.02
Output  | 8.0301     | 8.0301     | 8.0301     |   0.0 |  0.09
Modify  | 1805.1     | 1805.1     | 1805.1     |   0.0 | 20.85
Other   |            | 44.85      |            |       |  0.52

Nlocal:           1296 ave        1296 max        1296 min
Histogram: 1 0 0 0 0 0 0 0 0 0
Nghost:           4409 ave        4409 max        4409 min
Histogram: 1 0 0 0 0 0 0 0 0 0
Neighs:              0 ave           0 max           0 min
Histogram: 1 0 0 0 0 0 0 0 0 0
FullNghs:       233034 ave      233034 max      233034 min
Histogram: 1 0 0 0 0 0 0 0 0 0

Total # of neighbors = 233034
Ave neighs/atom = 179.81019
Neighbor list builds = 200000
Dangerous builds = 200000
Total wall time: 2:25:46
