LAMMPS (7 Feb 2024 - Update 1)
KOKKOS mode with Kokkos version 4.2.0 is enabled (src/KOKKOS/kokkos.cpp:72)
  will use up to 4 GPU(s) per node
  using 1 OpenMP thread(s) per MPI task
Reading data file ...
  triclinic box = (0 0 0) to (24.989956 24.989919 23.167336) with tilt (-0.22207236 -0.16357316 -0.098737559)
  2 by 2 by 1 MPI processor grid
  reading atoms ...
  1920 atoms
  read_data CPU = 0.010 seconds
ACE/AL version: 2023.11.25
Loading /home/cicn/cicn607503/pd/pot_dir/interim_potential_ladder_step_1.yaml
Total number of basis functions
	H: 23 (r=1) 664 (r>1)
	O: 23 (r=1) 664 (r>1)
Mapping LAMMPS atom type #1(H) -> ACE species type #0
Mapping LAMMPS atom type #2(O) -> ACE species type #1
Loading ASI /home/cicn/cicn607503/pd/pot_dir/interim_potential_ladder_step_1.asi
LINEAR ASI is loaded
Switching to 'neigh_modify every 1 delay 0 check yes' setting during minimization
Neighbor list info ...
  update: every = 1 steps, delay = 0 steps, check = yes
  max neighbors/atom: 2000, page size: 100000
  master list distance cutoff = 6.5
  ghost atom cutoff = 6.5
  binsize = 6.5, bins = 4 4 4
  1 neighbor lists, perpetual/occasional/extra = 1 0 0
  (1) pair pace/extrapolation/kk, perpetual
      attributes: full, newton on, kokkos_device
      pair build: full/bin/kk/device
      stencil: full/bin/3d
      bin: kk/device
Setting up cg/kk style minimization ...
  Unit style    : metal
  Current step  : 0
WARNING: Fix with atom-based arrays not compatible with sending data in Kokkos communication, switching to classic exchange/border communication (src/KOKKOS/comm_kokkos.cpp:666)
WARNING: Fix with atom-based arrays not compatible with Kokkos sorting on device, switching to classic host sorting (src/KOKKOS/atom_kokkos.cpp:218)
Per MPI rank memory allocation (min/avg/max) = 423.1 | 425.1 | 428.5 Mbytes
   Step         TotEng         PotEng         KinEng         Press           Temp          Volume        Density     c_max_pace_gamma
         0  -9257.6624     -9257.6624      0              4199.2215      0              14467.932      1.3233249      0.59040826   
       100  -9273.0754     -9273.0754      0             -8062.4723      0              14467.932      1.3233249      0.59040826   
       200  -9273.115      -9273.115       0             -8132.5793      0              14467.932      1.3233249      0.59040826   
       300  -9273.1151     -9273.1151      0             -8129.1373      0              14467.932      1.3233249      0.59040826   
       330  -9273.1151     -9273.1151      0             -8129.2551      0              14467.932      1.3233249      0.59040826   
Loop time of 1.32463 on 4 procs for 330 steps with 1920 atoms

99.6% CPU use with 4 MPI tasks x 1 OpenMP threads

Minimization stats:
  Stopping criterion = force tolerance
  Energy initial, next-to-last, final = 
     -9257.66239234844  -9273.11512032473  -9273.11512032964
  Force two-norm initial, final = 10.318152 0.00048118278
  Force max component initial, final = 0.72934274 3.9574738e-05
  Final line search alpha, max atom move = 1 3.9574738e-05
  Iterations, force evaluations = 330 660

MPI task timing breakdown:
Section |  min time  |  avg time  |  max time  |%varavg| %total
---------------------------------------------------------------
Pair    | 0.85607    | 0.87052    | 0.8864     |   1.3 | 65.72
Neigh   | 0.0020821  | 0.0021713  | 0.0023049  |   0.2 |  0.16
Comm    | 0.1994     | 0.21427    | 0.23008    |   2.5 | 16.18
Output  | 0.0004533  | 0.00045384 | 0.00045528 |   0.0 |  0.03
Modify  | 0.14702    | 0.15062    | 0.15426    |   0.7 | 11.37
Other   |            | 0.08658    |            |       |  6.54

Nlocal:            480 ave         483 max         478 min
Histogram: 1 0 1 0 1 0 0 0 0 1
Nghost:         2633.5 ave        2637 max        2632 min
Histogram: 2 0 1 0 0 0 0 0 0 1
Neighs:              0 ave           0 max           0 min
Histogram: 4 0 0 0 0 0 0 0 0 0
FullNghs:        75282 ave       75862 max       74860 min
Histogram: 1 0 0 2 0 0 0 0 0 1

Total # of neighbors = 301128
Ave neighs/atom = 156.8375
Neighbor list builds = 5
Dangerous builds = 0
Setting up Verlet run ...
  Unit style    : metal
  Current step  : 330
  Time step     : 0.0005
WARNING: Fix with atom-based arrays not compatible with sending data in Kokkos communication, switching to classic exchange/border communication (src/KOKKOS/comm_kokkos.cpp:666)
WARNING: Fix with atom-based arrays not compatible with Kokkos sorting on device, switching to classic host sorting (src/KOKKOS/atom_kokkos.cpp:218)
Per MPI rank memory allocation (min/avg/max) = 424.6 | 426.3 | 427.6 Mbytes
   Step         TotEng         PotEng         KinEng         Press           Temp          Volume        Density     c_max_pace_gamma
       330  -9185.0573     -9273.1151      88.057827     -1628.2484      355            14467.932      1.3233249      0.59040826   
       400  -9173.508      -9218.2904      44.782373     -5923.2648      180.53753      14399.018      1.3296583      0.59040826   
       500  -9153.2707     -9208.779       55.508265      3332.9709      223.77833      14137.313      1.3542725      0.59040826   
       600  -9137.0619     -9202.3928      65.330816      15598.47       263.37738      13829.132      1.3844524      0.59040826   
       700  -9128.5616     -9200.4763      71.914715      16397.257      289.91998      13610.488      1.4066927      0.59040826   
       800  -9120.071      -9194.2763      74.205313      16570.82       299.1544       13492.283      1.4190167      0.59040826   
       900  -9114.5865     -9192.4522      77.865658      19487.87       313.91086      13460.033      1.4224166      0.59040826   
      1000  -9109.6151     -9191.0966      81.48149       18059          328.48788      13504.563      1.4177264      0.66297161   
      1100  -9106.4682     -9188.4278      81.959571      19470.197      330.41523      13607.121      1.4070408      0.66297161   
      1200  -9105.7604     -9187.3213      81.560841      18238.696      328.80778      13744.603      1.3929667      0.66297161   
      1300  -9102.929      -9185.8058      82.876813      14080.693      334.11304      13883.033      1.3790772      0.66297161   
      1400  -9100.8844     -9186.0622      85.177853      13181.728      343.38955      13992.848      1.3682543      0.66297161   
      1500  -9098.5878     -9183.5264      84.938545      12310.751      342.42479      14059.308      1.3617865      0.66297161   
      1600  -9097.9389     -9185.1928      87.253944      13010.191      351.75919      14081.534      1.359637       0.66297161   
      1700  -9094.9633     -9182.0125      87.049156      11336.326      350.9336       14067.355      1.3610074      0.66297161   
      1800  -9094.0992     -9181.6619      87.562732      14391.509      353.00405      14031.05       1.364529       0.66297161   
      1900  -9093.1223     -9179.1365      86.014195      14649.458      346.76121      13983.004      1.3692175      0.66297161   
      2000  -9089.7155     -9176.3573      86.641804      14103.158      349.29138      13937.454      1.3736924      0.75500989   
      2100  -9086.7643     -9177.4139      90.649641      15474.303      365.44875      13907.917      1.3766098      0.75500989   
      2200  -9092.0961     -9180.9791      88.882997      16897.665      358.32662      13899.451      1.3774483      0.75500989   
      2300  -9093.2733     -9179.4879      86.214636      15613.729      347.56928      13905.773      1.376822       0.75500989   
      2400  -9090.9007     -9179.4349      88.534121      14918.079      356.92015      13920.096      1.3754054      0.75500989   
      2500  -9093.5714     -9182.685       89.113652      15731.64       359.2565       13939.271      1.3735133      0.75500989   
      2600  -9092.9641     -9179.8283      86.864158      14663.356      350.18779      13958.927      1.3715792      0.75500989   
      2700  -9091.6112     -9175.5098      83.898623      18371.234      338.23241      13975.113      1.3699906      0.75500989   
      2800  -9090.6983     -9179.2696      88.571362      14446.562      357.07028      13993.55       1.3681857      0.75500989   
      2900  -9090.0898     -9178.7491      88.659304      13908.862      357.42482      14006.096      1.3669601      0.75500989   
      3000  -9089.8701     -9178.0239      88.153733      14942.942      355.38664      14009.447      1.3666332      0.65724227   
      3100  -9087.7901     -9176.7799      88.989817      11475.446      358.75726      14007.78       1.3667958      0.65724227   
      3200  -9089.6858     -9180.3981      90.712302      11800.155      365.70136      14001.879      1.3673718      0.65724227   
      3300  -9088.9353     -9178.4762      89.540884      13345.733      360.97886      13993.189      1.368221       0.65724227   
      3400  -9093.4031     -9180.5662      87.163127      13273.96       351.39307      13983.084      1.3692098      0.65724227   
      3500  -9091.8927     -9179.6115      87.71881       14243.762      353.63327      13967.805      1.3707075      0.65724227   
      3600  -9092.3455     -9180.8946      88.549118      13484.356      356.98061      13952.408      1.3722201      0.65724227   
      3700  -9093.1549     -9179.2798      86.124909      15150.413      347.20755      13940.735      1.373369       0.65724227   
      3800  -9094.4124     -9181.2613      86.848957      16660.708      350.12651      13935.11       1.3739235      0.65724227   
      3900  -9097.5132     -9182.9673      85.454159      13202.003      344.50346      13929.29       1.3744975      0.65724227   
      4000  -9094.9264     -9181.4937      86.567304      16487.73       348.99104      13923.052      1.3751134      0.65811863   
      4100  -9095.4826     -9183.8962      88.41364       16973.739      356.43444      13921.72       1.3752449      0.65811863   
      4200  -9095.1819     -9180.9328      85.750868      17370.513      345.69963      13923.817      1.3750378      0.65811863   
      4300  -9094.2268     -9180.1162      85.889349      14617.542      346.2579       13932.708      1.3741604      0.65811863   
      4400  -9093.7933     -9180.9808      87.187518      12956.629      351.4914       13951.056      1.3723531      0.65811863   
      4500  -9093.0514     -9180.0338      86.982348      13552.338      350.66427      13975.89       1.3699145      0.65811863   
      4600  -9092.7913     -9180.6452      87.853925      13992.811      354.17798      14006.656      1.3669055      0.65811863   
      4700  -9092.623      -9181.0194      88.396478      13371.903      356.36525      14037.478      1.3639041      0.65811863   
      4800  -9093.5005     -9179.4734      85.972969      14767.338      346.59501      14059.129      1.3618038      0.65811863   
      4900  -9091.0013     -9179.6552      88.653983      11628.23       357.40337      14073.04       1.3604576      0.65811863   
      5000  -9092.2567     -9180.4765      88.2198        14501.121      355.65298      14073.194      1.3604427      0.7569229    
      5100  -9092.197      -9179.4699      87.272872      14859.422      351.8355       14057.672      1.3619449      0.7569229    
      5200  -9090.1553     -9181.3991      91.243701      13774.827      367.84366      14025.263      1.365092       0.7569229    
      5300  -9087.9109     -9176.954       89.043053      16675.159      358.97188      13983.798      1.3691398      0.7569229    
      5400  -9087.0078     -9175.4013      88.393506      14922.993      356.35327      13946.391      1.3728121      0.7569229    
      5500  -9088.3228     -9178.8312      90.508351      19705.783      364.87914      13919.134      1.3755004      0.7569229    
      5600  -9090.2929     -9180.493       90.20014       17435.941      363.63661      13907.05       1.3766956      0.7569229    
      5700  -9088.6179     -9177.2965      88.678644      17899.324      357.50279      13908.74       1.3765284      0.7569229    
      5800  -9089.5294     -9177.0517      87.522385      14695.072      352.84139      13932.178      1.3742126      0.7569229    
      5900  -9092.6272     -9180.9716      88.344396      14713.423      356.15528      13972.81       1.3702165      0.7569229    
      6000  -9093.307      -9180.5516      87.244607      16515.225      351.72155      14016.471      1.3659483      0.65111993   
      6100  -9093.1443     -9178.8733      85.728932      16138.378      345.61119      14055.569      1.3621487      0.65111993   
      6200  -9090.646      -9180.4364      89.790329      17012.977      361.98448      14082.644      1.3595298      0.65111993   
      6300  -9090.6941     -9180.0297      89.335553      14381.273      360.15108      14093.89       1.358445       0.65111993   
      6400  -9088.8753     -9176.2344      87.359119      16305.016      352.1832       14080.951      1.3596933      0.65111993   
      6500  -9089.0766     -9178.657       89.580425      12414.166      361.13827      14050.592      1.3626312      0.65111993   
      6600  -9090.2118     -9178.8853      88.673497      14525.133      357.48204      14011.014      1.3664803      0.65111993   
      6700  -9091.8321     -9179.845       88.012888      14084.396      354.81883      13970.429      1.3704501      0.65111993   
      6800  -9092.3263     -9179.7189      87.392551      13552.362      352.31798      13932.866      1.3741447      0.65111993   
      6900  -9092.7799     -9179.8857      87.105815      12846.349      351.16202      13905.295      1.3768694      0.65111993   
      7000  -9091.4428     -9177.5776      86.134793      16742.146      347.2474       13891.519      1.3782347      0.70407384   
      7100  -9093.5113     -9180.4954      86.984139      15293.693      350.67149      13898.448      1.3775477      0.70407384   
      7200  -9094.7654     -9180.3489      85.583534      14908.418      345.02503      13915.895      1.3758206      0.70407384   
      7300  -9096.5932     -9182.9836      86.390401      15371.029      348.27787      13934.942      1.37394        0.70407384   
      7400  -9094.577      -9182.1851      87.6081        14710.779      353.18695      13951.506      1.3723088      0.70407384   
      7500  -9093.9629     -9182.9166      88.953642      17420.336      358.61142      13965.608      1.3709231      0.70407384   
      7600  -9095.8396     -9182.3124      86.472866      16188.25       348.61032      13974.666      1.3700345      0.70407384   
      7700  -9096.0041     -9183.0466      87.042506      14240.664      350.90679      13974.481      1.3700527      0.70407384   
      7800  -9096.7887     -9182.6388      85.850118      14095.576      346.09975      13964.571      1.3710249      0.70407384   
      7900  -9094.5166     -9181.7555      87.238987      15800.512      351.69889      13947.72       1.3726813      0.70407384   
      8000  -9094.6946     -9181.8425      87.1479        14914.885      351.33168      13932.739      1.3741573      0.6465508    
      8100  -9095.9982     -9182.0087      86.010521      15265.858      346.7464       13922.508      1.375167       0.6465508    
      8200  -9096.2457     -9180.7349      84.489249      20113.956      340.61348      13918.828      1.3755306      0.6465508    
      8300  -9094.6141     -9179.5647      84.950599      16458.633      342.47339      13923.537      1.3750654      0.6465508    
      8400  -9092.3858     -9179.382       86.996234      15953.596      350.72025      13932.542      1.3741768      0.6465508    
      8500  -9090.3896     -9178.9764      88.586779      12747.665      357.13244      13948.293      1.372625       0.6465508    
      8600  -9091.3317     -9177.323       85.991331      15311.869      346.66904      13969.467      1.3705444      0.6465508    
      8700  -9092.3868     -9179.7537      87.366927      11288.438      352.21467      13991.15       1.3684204      0.6465508    
      8800  -9091.8508     -9176.3943      84.543429      14348.42       340.83191      14004.751      1.3670914      0.6465508    
      8900  -9090.4378     -9178.3638      87.92604       13298.878      354.46871      14009.262      1.3666512      0.6465508    
      9000  -9089.6906     -9177.1727      87.482061      14877.819      352.67883      14006.812      1.3668903      0.69336113   
      9100  -9090.0813     -9178.7133      88.632026      16368.288      357.31485      14002.127      1.3673476      0.69336113   
      9200  -9089.2633     -9174.8546      85.59128       13640.064      345.05626      13995.908      1.3679551      0.69336113   
      9300  -9088.6877     -9176.8379      88.150189      16512.123      355.37235      13987.482      1.3687792      0.69336113   
      9400  -9090.2277     -9180.0546      89.826907      15085.342      362.13194      13984.276      1.369093       0.69336113   
      9500  -9090.668      -9179.5327      88.86474       12044.659      358.25302      13984.494      1.3690717      0.69336113   
      9600  -9093.1894     -9178.4067      85.217283      11343.121      343.54851      13982.571      1.3692599      0.69336113   
      9700  -9091.235      -9178.5815      87.346481      13840.749      352.13225      13975.754      1.3699278      0.69336113   
      9800  -9088.9932     -9178.2056      89.212422      15309.571      359.65468      13962.784      1.3712004      0.69336113   
      9900  -9089.894      -9177.7527      87.85866       16643.212      354.19707      13952.229      1.3722377      0.69336113   
     10000  -9089.6516     -9178.0703      88.418614      16750.888      356.45449      13947.35       1.3727177      0.70351964   
     10100  -9091.4045     -9178.8284      87.423863      15409.731      352.44421      13946.654      1.3727862      0.70351964   
     10200  -9088.5528     -9176.5069      87.954093      13329.239      354.5818       13947.543      1.3726988      0.70351964   
     10300  -9088.8238     -9178.2706      89.446787      15094.239      360.59951      13951.671      1.3722926      0.70351964   
     10400  -9090.2988     -9179.6318      89.332959      17563.143      360.14062      13957.83       1.3716871      0.70351964   
     10500  -9091.7284     -9181.0866      89.358182      13473.174      360.2423       13966.696      1.3708163      0.70351964   
     10600  -9093.6134     -9181.8269      88.213499      15407.918      355.62758      13971.935      1.3703023      0.70351964   
     10700  -9094.3605     -9180.0163      85.655806      17317.665      345.31639      13964.29       1.3710525      0.70351964   
     10800  -9094.7381     -9180.1376      85.399568      13894.161      344.28338      13944.576      1.3729908      0.70351964   
     10900  -9095.0733     -9181.9267      86.853346      14533.57       350.1442       13914.911      1.3759179      0.70351964   
     11000  -9094.9657     -9180.7897      85.82403       18154.406      345.99457      13887.698      1.378614       0.63019998   
     11100  -9089.3588     -9177.8208      88.462047      14907.299      356.62959      13869.865      1.3803866      0.63019998   
     11200  -9090.7251     -9177.9758      87.250728      16070.64       351.74622      13871.27       1.3802467      0.63019998   
     11300  -9089.7748     -9180.4027      90.627911      13230.035      365.36114      13895.381      1.3778517      0.63019998   
     11400  -9090.012      -9177.0751      87.063095      16189.472      350.98979      13934.799      1.3739541      0.63019998   
     11500  -9090.7552     -9179.4376      88.682457      12803.355      357.51816      13983.544      1.3691647      0.63019998   
     11600  -9096.0197     -9182.0037      85.984022      10722.986      346.63957      14028.011      1.3648246      0.63019998   
     11700  -9096.7731     -9184.8314      88.058324      16278.155      355.002        14053.61       1.3623385      0.63019998   
     11800  -9096.0426     -9180.9077      84.865148      13262.808      342.1289       14051.447      1.3625483      0.63019998   
     11900  -9096.1979     -9179.5307      83.332757      14086.357      335.95115      14019.645      1.3656391      0.63019998   
     12000  -9093.8145     -9179.9877      86.173123      14490.467      347.40192      13967.548      1.3707327      0.7581121    
     12100  -9092.8234     -9182.4283      89.604838      15451.874      361.23668      13912.735      1.3761331      0.7581121    
     12200  -9093.6432     -9179.8392      86.195968      14860.315      347.49402      13864.128      1.3809577      0.7581121    
     12300  -9094.5344     -9179.9622      85.427787      14638.077      344.39714      13833.365      1.3840287      0.7581121    
     12400  -9096.2696     -9179.8656      83.595975      16247.304      337.0123       13821.159      1.385251       0.7581121    
     12500  -9095.8064     -9181.6641      85.857728      13430.516      346.13043      13829.532      1.3844123      0.7581121    
     12600  -9095.5729     -9181.4706      85.897677      12482.71       346.29148      13852.479      1.382119       0.7581121    
     12700  -9093.4359     -9178.7195      85.283571      15137.35       343.81575      13885.615      1.3788208      0.7581121    
     12800  -9090.9519     -9179.2962      88.344241      18483.082      356.15466      13925.458      1.3748758      0.7581121    
     12900  -9090.5517     -9179.3518      88.800056      17107.834      357.99225      13967.966      1.3706917      0.7581121    
     13000  -9091.5287     -9179.2253      87.696625      15571.497      353.54383      14002.333      1.3673275      0.71866895   
     13100  -9090.1987     -9178.1924      87.993733      13625.26       354.7416       14020.135      1.3655914      0.71866895   
     13200  -9091.9356     -9180.176       88.240445      13716.001      355.73621      14017.616      1.3658367      0.71866895   
     13300  -9092.5585     -9181.708       89.149537      14000.261      359.40116      13999.979      1.3675574      0.71866895   
     13400  -9093.3956     -9181.4594      88.063798      14729.248      355.02407      13968.986      1.3705916      0.71866895   
     13500  -9093.6823     -9182.915       89.232745      17064.966      359.73661      13931.204      1.3743087      0.71866895   
     13600  -9093.297      -9182.3017      89.004721      15020.557      358.81735      13893.804      1.3780081      0.71866895   
     13700  -9093.9355     -9179.604       85.668495      15706.541      345.36755      13864.748      1.3808959      0.71866895   
     13800  -9094.628      -9180.813       86.184943      18365.927      347.44958      13848.359      1.3825302      0.71866895   
     13900  -9094.7168     -9182.642       87.925146      18098.169      354.4651       13845.598      1.3828059      0.71866895   
     14000  -9096.223      -9180.6726      84.449652      14002.209      340.45385      13853.729      1.3819943      0.67750267   
     14100  -9094.6999     -9182.9459      88.245984      12902.896      355.75854      13874.268      1.3799484      0.67750267   
     14200  -9094.502      -9181.8288      87.326752      15894.233      352.05271      13903.265      1.3770704      0.67750267   
     14300  -9095.0849     -9182.0979      87.012988      16010.629      350.78779      13934.85       1.3739491      0.67750267   
     14400  -9092.9677     -9179.6489      86.681263      17629.127      349.45046      13960.189      1.3714553      0.67750267   
     14500  -9092.17       -9179.5199      87.349934      11293.826      352.14617      13978.353      1.3696731      0.67750267   
     14600  -9091.4132     -9179.3149      87.901702      11032.742      354.37059      13987.568      1.3687708      0.67750267   
     14700  -9093.3768     -9180.8351      87.458214      14401.973      352.58269      13981.663      1.3693489      0.67750267   
     14800  -9095.8348     -9181.469       85.634177      15352.015      345.2292       13955.458      1.3719202      0.67750267   
     14900  -9091.5918     -9178.0254      86.433619      15309.943      348.4521       13917.048      1.3757066      0.67750267   
     15000  -9089.5896     -9176.4879      86.8983        14506.446      350.32543      13879.533      1.379425       0.70408643   
     15100  -9086.3161     -9176.7742      90.458096      17151.513      364.67654      13851.858      1.382181       0.70408643   
     15200  -9089.9603     -9178.9596      88.999326      19825.131      358.7956       13841.071      1.3832582      0.70408643   
     15300  -9091.6119     -9179.5545      87.94265       14612.219      354.53567      13850.03       1.3823634      0.70408643   
     15400  -9093.3008     -9177.9016      84.600767      16853.186      341.06306      13874.437      1.3799316      0.70408643   
     15500  -9092.0374     -9178.8654      86.827997      17569.106      350.04201      13907.084      1.3766922      0.70408643   
     15600  -9092.0678     -9180.6005      88.53274       12618.773      356.91458      13941.981      1.3732464      0.70408643   
     15700  -9092.8546     -9179.5384      86.683775      11263.204      349.46059      13970.457      1.3704473      0.70408643   
     15800  -9094.1869     -9180.807       86.620102      14215.035      349.20389      13983.742      1.3691453      0.70408643   
     15900  -9095.9609     -9183.0296      87.06869       10346.84       351.01235      13979.245      1.3695858      0.70408643   
     16000  -9095.8753     -9182.5375      86.662179      17171.578      349.37353      13953.547      1.372108       0.69806696   
     16100  -9095.2174     -9180.6926      85.475181      14268.613      344.58821      13910.199      1.3763839      0.69806696   
     16200  -9092.0655     -9179.5173      87.45176       15005.19       352.55667      13863.835      1.3809869      0.69806696   
     16300  -9095.2293     -9182.0145      86.785129      13377.957      349.86919      13828.234      1.3845423      0.69806696   
     16400  -9094.3506     -9181.3199      86.969246      19383.639      350.61145      13805.626      1.3868096      0.69806696   
     16500  -9092.7952     -9181.2001      88.404877      18724.198      356.39911      13805.278      1.3868446      0.69806696   
     16600  -9093.1569     -9181.0834      87.926452      15036.175      354.47037      13828.556      1.38451        0.69806696   
     16700  -9092.6878     -9179.2223      86.534494      16176.98       348.85877      13874.691      1.3799064      0.69806696   
     16800  -9090.6931     -9179.5702      88.877077      15130.153      358.30276      13928.307      1.3745946      0.69806696   
     16900  -9091.2472     -9178.1289      86.881706      13680.847      350.25854      13977.783      1.369729       0.69806696   
     17000  -9091.0478     -9181.5907      90.54287       12658.47       365.0183       14017.641      1.3658343      0.67465074   
     17100  -9090.9449     -9180.0059      89.060988      14412.713      359.04418      14037.282      1.3639232      0.67465074   
     17200  -9089.9913     -9181.0238      91.032433      12043.498      366.99195      14030.708      1.3645623      0.67465074   
     17300  -9091.4646     -9180.1359      88.671322      15230.039      357.47327      14004.078      1.3671571      0.67465074   
     17400  -9093.9647     -9182.2413      88.276557      11582.85       355.8818       13960.747      1.3714004      0.67465074   
     17500  -9091.6257     -9177.585       85.95932       15174.775      346.53999      13907.276      1.3766732      0.67465074   
     17600  -9088.6599     -9179.2853      90.625455      17545.173      365.35124      13864.31       1.3809396      0.67465074   
     17700  -9086.6987     -9177.9108      91.212145      13694.927      367.71645      13838.454      1.3835197      0.67465074   
     17800  -9091.2212     -9179.1113      87.890175      16438.506      354.32412      13833.96       1.3839692      0.67465074   
     17900  -9091.367      -9179.5677      88.200707      14354.192      355.57601      13848.192      1.3825469      0.67465074   
     18000  -9090.3997     -9179.3592      88.959449      16935.033      358.63483      13875.773      1.3797988      0.68875863   
     18100  -9093.9345     -9180.5427      86.608249      15444.284      349.15611      13911.243      1.3762807      0.68875863   
     18200  -9092.6756     -9180.9898      88.314182      15594.224      356.03348      13944.688      1.3729798      0.68875863   
     18300  -9090.4682     -9177.7498      87.281608      14664.285      351.87071      13970.259      1.3704667      0.68875863   
     18400  -9091.7227     -9178.4679      86.745167      16049.794      349.70809      13985.115      1.3690109      0.68875863   
     18500  -9092.2901     -9177.7395      85.449394      14677.08       344.48425      13988.525      1.3686771      0.68875863   
     18600  -9093.3717     -9179.9188      86.547096      14489.526      348.90957      13978.653      1.3696437      0.68875863   
     18700  -9091.2841     -9179.659       88.374947      14545.702      356.27845      13954.695      1.3719952      0.68875863   
     18800  -9092.7912     -9182.1426      89.35141       17999.533      360.215        13926.472      1.3747756      0.68875863   
     18900  -9093.2481     -9180.6094      87.361289      18420.223      352.19195      13901.632      1.3772321      0.68875863   
     19000  -9092.5808     -9181.7037      89.122861      15430.116      359.29362      13886.313      1.3787514      0.70767726   
     19100  -9093.0179     -9179.007       85.989058      15136.526      346.65988      13887.376      1.378646       0.70767726   
     19200  -9093.4582     -9181.9131      88.454865      15375.02       356.60063      13903.155      1.3770813      0.70767726   
     19300  -9091.5831     -9178.935       87.351914      15768.831      352.15415      13923.25       1.3750938      0.70767726   
     19400  -9090.6916     -9178.8489      88.157368      16821.642      355.40129      13948.779      1.3725771      0.70767726   
     19500  -9092.8478     -9179.4193      86.571463      15615.365      349.00781      13974.952      1.3700065      0.70767726   
     19600  -9091.9661     -9181.5871      89.62105       13148.743      361.30204      13994.111      1.3681308      0.70767726   
     19700  -9095.0903     -9182.553       87.462681      12674.575      352.6007       13996.884      1.3678598      0.70767726   
     19800  -9095.8758     -9181.3386      85.462814      13853.861      344.53835      13981.385      1.3693761      0.70767726   
     19900  -9094.9538     -9179.809       84.855123      15104.279      342.08848      13952.373      1.3722235      0.70767726   
     20000  -9094.7422     -9182.2114      87.469206      13195.44       352.62701      13914.552      1.3759533      0.6859653    
     20100  -9092.6553     -9181.0585      88.403149      14775.275      356.39215      13875.971      1.379779       0.6859653    
     20200  -9091.7453     -9180.4232      88.677862      15902.87       357.49963      13850.841      1.3822824      0.6859653    
     20300  -9090.1955     -9179.7386      89.543185      14674.792      360.98813      13846.075      1.3827583      0.6859653    
     20400  -9088.5997     -9177.2011      88.601355      17795.296      357.1912       13868.011      1.3805711      0.6859653    
     20500  -9089.265      -9178.7856      89.52066       17568.627      360.89732      13913.255      1.3760817      0.6859653    
     20600  -9089.1178     -9177.914       88.796194      14855.788      357.97668      13972.74       1.3702233      0.6859653    
     20700  -9092.6556     -9180.9306      88.27506       13714.484      355.87576      14033.67       1.3642742      0.6859653    
     20800  -9091.7403     -9178.5186      86.77833       13114.658      349.84178      14075.189      1.3602499      0.6859653    
     20900  -9089.6689     -9176.6659      86.996934      15089.352      350.72307      14084.649      1.3593363      0.6859653    
     21000  -9087.1108     -9175.8133      88.702582      13596.086      357.59929      14068.067      1.3609385      0.65638094   
     21100  -9084.7939     -9174.5497      89.755875      16089.838      361.84558      14031.214      1.3645131      0.65638094   
     21200  -9085.9714     -9176.2227      90.251362      12966.214      363.84311      13989.808      1.3685516      0.65638094   
     21300  -9085.2802     -9176.1348      90.854568      16200          366.2749       13950.642      1.3723938      0.65638094   
     21400  -9086.1316     -9175.1523      89.020699      15615.726      358.88176      13920.865      1.3753293      0.65638094   
     21500  -9088.8468     -9178.6498      89.803059      14068.619      362.0358       13901.232      1.3772717      0.65638094   
     21600  -9090.9236     -9176.3904      85.466833      14670.965      344.55455      13892.034      1.3781837      0.65638094   
     21700  -9090.72       -9178.662       87.942         15140.216      354.53305      13895.132      1.3778764      0.65638094   
     21800  -9092.8354     -9179.0378      86.202335      14696.615      347.51969      13902.408      1.3771553      0.65638094   
     21900  -9093.366      -9182.2644      88.898455      13549.508      358.38894      13910.239      1.37638        0.65638094   
     22000  -9094.9508     -9179.9734      85.022604      13422.257      342.76368      13916.908      1.3757205      0.69435529   
     22100  -9094.6522     -9182.5795      87.927317      15110.94       354.47386      13920.583      1.3753573      0.69435529   
     22200  -9094.1981     -9183.0116      88.813466      15083.044      358.04631      13921.343      1.3752822      0.69435529   
     22300  -9092.6529     -9179.5643      86.911441      17015.775      350.37841      13924.008      1.375019       0.69435529   
     22400  -9090.4459     -9181.2128      90.766965      14435.916      365.92173      13929.501      1.3744767      0.69435529   
     22500  -9092.6276     -9181.5133      88.885656      15695.805      358.33734      13935.169      1.3739176      0.69435529   
     22600  -9091.3191     -9177.9494      86.630245      15593.26       349.24479      13940.409      1.3734012      0.69435529   
     22700  -9089.2139     -9179.0088      89.794843      13774.182      362.00268      13952.198      1.3722407      0.69435529   
     22800  -9088.9523     -9177.7399      88.787578      17514.667      357.94195      13968.711      1.3706186      0.69435529   
     22900  -9089.3129     -9177.5714      88.258429      16197.552      355.80871      13991.123      1.368423       0.69435529   
     23000  -9090.4292     -9176.7968      86.367566      12804.586      348.18581      14006.049      1.3669647      0.72769353   
     23100  -9090.1462     -9177.5855      87.4393        14151.442      352.50644      14010.994      1.3664822      0.72769353   
     23200  -9090.5835     -9180.911       90.327433      15307.448      364.14978      14002.851      1.3672769      0.72769353   
     23300  -9089.5253     -9179.5057      89.980427      16675.114      362.75085      13983.661      1.3691532      0.72769353   
     23400  -9087.9448     -9177.5537      89.6089        17064.205      361.25306      13960.256      1.3714487      0.72769353   
     23500  -9091.9176     -9178.598       86.680397      16362.982      349.44697      13936.827      1.3737542      0.72769353   
     23600  -9092.032      -9179.6035      87.571541      16917.379      353.03956      13918.047      1.3756079      0.72769353   
     23700  -9089.4283     -9180.0414      90.61313       17134.339      365.30155      13907.105      1.3766901      0.72769353   
     23800  -9089.9232     -9178.8974      88.974277      13891.752      358.69461      13908.026      1.376599       0.72769353   
     23900  -9088.1376     -9177.2943      89.156738      17377.314      359.43019      13922.718      1.3751464      0.72769353   
     24000  -9088.488      -9180.0129      91.524829      15194.551      368.97702      13944.083      1.3730393      0.79302379   
     24100  -9087.2372     -9176.8358      89.598637      17062.149      361.21168      13967.742      1.3707136      0.79302379   
     24200  -9089.4632     -9177.5159      88.052662      14637.635      354.97918      13994.565      1.3680864      0.79302379   
     24300  -9088.8833     -9178.7886      89.905329      14988.739      362.44809      14018.993      1.3657026      0.79302379   
     24400  -9087.6738     -9178.1641      90.490322      13659.955      364.80646      14032.178      1.3644193      0.79302379   
     24500  -9088.267      -9180.1725      91.905446      15665.198      370.51145      14034.626      1.3641813      0.79302379   
     24600  -9087.4693     -9175.9981      88.528832      15749.526      356.89883      14025.641      1.3650553      0.79302379   
     24700  -9089.4153     -9182.2033      92.788011      14106.663      374.06946      14004.101      1.3671548      0.79302379   
     24800  -9086.3552     -9177.3196      90.964464      17472.768      366.71793      13974.802      1.3700212      0.79302379   
     24900  -9086.2871     -9178.2833      91.996202      14782.277      370.87733      13948.603      1.3725944      0.79302379   
     25000  -9084.6636     -9174.2954      89.631847      16875.701      361.34557      13932.403      1.3741905      0.66329765   
     25100  -9081.5534     -9172.0058      90.452328      16754.119      364.65329      13934.587      1.373975       0.66329765   
     25200  -9083.3957     -9176.9912      93.595538      15106.249      377.32496      13960.405      1.371434       0.66329765   
     25300  -9083.2979     -9174.2932      90.995371      15312.852      366.84254      13999.628      1.3675917      0.66329765   
     25400  -9087.3662     -9175.0886      87.722496      14849.737      353.64813      14040.831      1.3635785      0.66329765   
     25500  -9087.8979     -9178.6381      90.740262      15991.156      365.81408      14072.058      1.3605526      0.66329765   
     25600  -9090.4721     -9177.4758      87.00369       12701.991      350.75031      14084.345      1.3593656      0.66329765   
     25700  -9091.4018     -9179.0081      87.606292      12300.989      353.17966      14071.064      1.3606487      0.66329765   
     25800  -9091.0346     -9180.796       89.761401      12710.265      361.86786      14033.312      1.3643091      0.66329765   
     25900  -9089.1673     -9177.546       88.378715      19037.759      356.29364      13978.481      1.3696606      0.66329765   
     26000  -9087.401      -9177.7579      90.356982      16436.976      364.26891      13927.348      1.3746892      0.71986019   
     26100  -9086.6473     -9176.1715      89.524204      17857.085      360.91161      13894.869      1.3779025      0.71986019   
     26200  -9087.7293     -9180.0881      92.358764      19320.805      372.33898      13889.036      1.3784812      0.71986019   
     26300  -9088.732      -9178.0945      89.362491      18661.196      360.25968      13900.944      1.3773003      0.71986019   
     26400  -9091.4401     -9179.5856      88.145517      16385.459      355.35352      13925.397      1.3748818      0.71986019   
     26500  -9090.4027     -9178.1064      87.703722      18348.155      353.57244      13956.904      1.371778       0.71986019   
     26600  -9090.7123     -9178.8402      88.127902      16786.989      355.2825       13988.872      1.3686432      0.71986019   
     26700  -9090.9982     -9179.0263      88.028086      13927.051      354.8801       14011.035      1.3664782      0.71986019   
     26800  -9090.8709     -9177.7106      86.839722      12621.561      350.08928      14017.184      1.3658788      0.71986019   
     26900  -9092.3151     -9179.3088      86.99365       13372.771      350.70983      14011.726      1.3664109      0.71986019   
     27000  -9090.9502     -9180.9284      89.978133      14542.983      362.7416       13994.217      1.3681205      0.6781924    
     27100  -9089.1957     -9176.3105      87.114754      16287.369      351.19805      13967.932      1.370695       0.6781924    
     27200  -9090.3759     -9177.8872      87.511306      12280.673      352.79673      13945.543      1.3728956      0.6781924    
     27300  -9091.4719     -9181.9834      90.511453      12944.643      364.89165      13926.049      1.3748174      0.6781924    
     27400  -9089.712      -9177.925       88.212985      13751.754      355.62551      13911.53       1.3762523      0.6781924    
     27500  -9090.8702     -9177.6011      86.730924      13438.913      349.65067      13907.831      1.3766183      0.6781924    
     27600  -9090.2553     -9176.9622      86.706851      17458.521      349.55362      13918.348      1.3755781      0.6781924    
     27700  -9090.5467     -9180.0228      89.476101      13804.481      360.71769      13939.682      1.3734728      0.6781924    
     27800  -9090.8288     -9179.9791      89.150245      17622.198      359.40402      13963.047      1.3711745      0.6781924    
     27900  -9092.9362     -9180.8379      87.901735      17491.352      354.37072      13984.852      1.3690366      0.6781924    
     28000  -9092.8807     -9183.1823      90.301569      15639.904      364.04551      13998.534      1.3676986      0.62610855   
     28100  -9092.4609     -9177.7178      85.256872      16806.751      343.70811      14001.125      1.3674454      0.62610855   
     28200  -9091.3476     -9180.2474      88.899867      16209.746      358.39463      13997.64       1.3677859      0.62610855   
     28300  -9092.3637     -9177.4737      85.110011      15088.13       343.11605      13989.647      1.3685674      0.62610855   
     28400  -9091.1986     -9178.2262      87.027598      13530.427      350.84669      13981.65       1.3693501      0.62610855   
     28500  -9092.5001     -9179.4899      86.989866      14523.243      350.69458      13971.866      1.370309       0.62610855   
     28600  -9093.8232     -9179.463       85.639733      14810.588      345.25159      13955.158      1.3719497      0.62610855   
     28700  -9093.2401     -9181.3586      88.118453      13187.942      355.24441      13938.195      1.3736194      0.62610855   
     28800  -9092.5712     -9181.5311      88.959853      15044.668      358.63646      13924.246      1.3749954      0.62610855   
     28900  -9091.0523     -9177.6762      86.623871      13898.633      349.21909      13914.374      1.375971       0.62610855   
     29000  -9091.1336     -9179.466       88.332309      14129.345      356.10656      13914.223      1.3759859      0.71789075   
     29100  -9093.2684     -9181.8597      88.591312      16709.823      357.15071      13924.188      1.3750012      0.71789075   
     29200  -9092.0608     -9179.241       87.180167      13302.192      351.46176      13938.259      1.3736131      0.71789075   
     29300  -9091.2002     -9177.8397      86.639576      15317.399      349.2824       13957.006      1.371768       0.71789075   
     29400  -9089.3421     -9177.6995      88.35734       16585.69       356.20747      13981.102      1.3694038      0.71789075   
     29500  -9088.1474     -9178.5684      90.420979      14348.026      364.52691      14006.175      1.3669524      0.71789075   
     29600  -9089.5815     -9178.5291      88.947644      15490.213      358.58724      14026.113      1.3650093      0.71789075   
     29700  -9092.6592     -9179.6771      87.017886      13784.397      350.80753      14031.188      1.3645155      0.71789075   
     29800  -9093.2098     -9179.9208      86.710996      13889.375      349.57033      14019.534      1.3656498      0.71789075   
     29900  -9091.7544     -9180.8975      89.14316       14671.541      359.37545      13989.199      1.3686112      0.71789075   
     30000  -9089.6482     -9176.1692      86.521088      17454.936      348.80473      13948.612      1.3725935      0.74654015   
     30100  -9087.1602     -9178.1909      91.030673      16041.968      366.98485      13914.601      1.3759485      0.74654015   
     30200  -9087.7643     -9176.7657      89.001415      17914.09       358.80402      13891.655      1.3782213      0.74654015   
     30300  -9088.7143     -9177.9244      89.210064      15885.843      359.64517      13884.887      1.3788931      0.74654015   
     30400  -9087.9957     -9177.2282      89.232486      17947.016      359.73557      13894.151      1.3779737      0.74654015   
     30500  -9089.4702     -9177.6244      88.154139      18469.691      355.38827      13920.496      1.3753659      0.74654015   
     30600  -9089.4689     -9177.2343      87.765372      14203.025      353.82098      13956.534      1.3718144      0.74654015   
     30700  -9089.1576     -9179.1497      89.992038      12137.11       362.79766      13991.782      1.3683586      0.74654015   
     30800  -9088.0486     -9179.5695      91.520912      14938.028      368.96122      14016.316      1.3659634      0.74654015   
     30900  -9088.5827     -9177.5783      88.99568       14849.734      358.7809       14027.821      1.3648431      0.74654015   
     31000  -9090.0518     -9177.1834      87.131582      16080.687      351.26589      14029.579      1.3646721      0.75189231   
     31100  -9090.7875     -9177.6853      86.897722      16860.081      350.3231       14019.314      1.3656713      0.75189231   
     31200  -9089.0382     -9177.8779      88.83966       17408.903      358.15191      13997.244      1.3678246      0.75189231   
     31300  -9087.4252     -9176.6079      89.182716      16681.038      359.53492      13970.435      1.3704495      0.75189231   
     31400  -9087.8698     -9178.6082      90.738376      14655.427      365.80648      13945.003      1.3729487      0.75189231   
     31500  -9087.2955     -9176.3264      89.030855      16809.539      358.92271      13924.031      1.3750166      0.75189231   
     31600  -9086.2811     -9174.5768      88.295695      16597.697      355.95895      13911.727      1.3762327      0.75189231   
     31700  -9087.1728     -9177.2955      90.122718      15683.362      363.32449      13911.375      1.3762676      0.75189231   
     31800  -9090.653      -9179.018       88.365024      14168.464      356.23844      13921.064      1.3753097      0.75189231   
     31900  -9092.3407     -9179.4458      87.105093      14608.168      351.15911      13935.168      1.3739178      0.75189231   
     32000  -9092.4095     -9179.0125      86.603076      14109.229      349.13525      13951.001      1.3723585      0.64087948   
     32100  -9089.4424     -9180.0053      90.562912      13636.323      365.0991       13964.489      1.3710329      0.64087948   
     32200  -9089.691      -9179.2746      89.583626      18501.924      361.15117      13975.474      1.3699553      0.64087948   
     32300  -9092.0712     -9181.9678      89.89655       13654.905      362.4127       13980.358      1.3694767      0.64087948   
     32400  -9092.4822     -9180.0441      87.56192       11358.71       353.00078      13974.047      1.3700952      0.64087948   
     32500  -9091.2406     -9177.0851      85.844464      12427.071      346.07695      13960.025      1.3714714      0.64087948   
     32600  -9089.2975     -9177.889       88.59149       15915.695      357.15143      13942.948      1.3731512      0.64087948   
     32700  -9091.3131     -9177.6363      86.32321       14344.961      348.00699      13930.649      1.3743634      0.64087948   
     32800  -9091.1594     -9179.9319      88.772544      17066.88       357.88134      13925.252      1.3748961      0.64087948   
     32900  -9092.7147     -9183.1523      90.437656      16252.296      364.59414      13925.637      1.3748581      0.64087948   
     33000  -9090.5316     -9179.5236      88.992014      15505.306      358.76612      13928.419      1.3745835      0.61670997   
     33100  -9093.1288     -9182.688       89.559202      16662.575      361.0527       13934.527      1.3739809      0.61670997   
     33200  -9092.504      -9181.3673      88.863309      14994.972      358.24725      13942.872      1.3731586      0.61670997   
     33300  -9094.1444     -9181.1694      87.025011      15061.966      350.83626      13948.068      1.3726471      0.61670997   
     33400  -9094.6511     -9181.546       86.894929      13346.881      350.31184      13950.781      1.3723801      0.61670997   
     33500  -9092.3452     -9178.9599      86.614761      16126.555      349.18236      13946.306      1.3728205      0.61670997   
     33600  -9092.0262     -9179.4501      87.42388       15315.636      352.44428      13942.346      1.3732104      0.61670997   
     33700  -9090.9906     -9179.41        88.419442      14764.631      356.45783      13938.254      1.3736135      0.61670997   
     33800  -9094.3007     -9180.9144      86.613705      16599.533      349.1781       13934.878      1.3739464      0.61670997   
     33900  -9089.9911     -9178.3967      88.405586      15177.823      356.40197      13934.034      1.3740295      0.61670997   
     34000  -9091.9031     -9179.8098      87.906742      17301.339      354.39091      13938.739      1.3735657      0.71578868   
     34100  -9091.3689     -9179.4963      88.127376      15808.799      355.28038      13945.597      1.3728902      0.71578868   
     34200  -9092.744      -9182.3571      89.613121      14254.855      361.27008      13948.495      1.3726051      0.71578868   
     34300  -9091.3543     -9178.8354      87.48104       11176.832      352.67472      13945.449      1.3729049      0.71578868   
     34400  -9092.5053     -9180.0407      87.535419      11660.68       352.89394      13942.294      1.3732156      0.71578868   
     34500  -9092.5801     -9178.7013      86.121139      13761.425      347.19235      13938.196      1.3736192      0.71578868   
     34600  -9093.2322     -9180.1847      86.952447      17764.458      350.54372      13933.494      1.3740828      0.71578868   
     34700  -9092.3014     -9179.9032      87.601803      18310.103      353.16156      13926.778      1.3747455      0.71578868   
     34800  -9089.4208     -9176.6972      87.276471      17110.561      351.85001      13921.621      1.3752547      0.71578868   
     34900  -9090.3336     -9180.4541      90.120436      13207.496      363.31529      13923.45       1.375074       0.71578868   
     35000  -9090.2138     -9181.2997      91.085912      15890.703      367.20755      13927.552      1.3746691      0.68134971   
     35100  -9090.4122     -9178.9709      88.558698      13286.46       357.01923      13933.572      1.3740751      0.68134971   
     35200  -9091.1063     -9177.9169      86.810576      13903.886      349.97178      13943.404      1.3731062      0.68134971   
     35300  -9092.1479     -9179.8609      87.712958      15660.948      353.60968      13954.868      1.3719782      0.68134971   
     35400  -9089.9678     -9178.8939      88.926046      12203.841      358.50017      13962.964      1.3711827      0.68134971   
     35500  -9088.8048     -9174.9435      86.138636      15094.902      347.26289      13965.163      1.3709668      0.68134971   
     35600  -9091.9405     -9181.067       89.126521      14973.847      359.30838      13966.045      1.3708803      0.68134971   
     35700  -9091.4502     -9179.7962      88.345954      13837.23       356.16157      13957.792      1.3716908      0.68134971   
     35800  -9086.8547     -9176.4323      89.577552      18356.642      361.12668      13948.472      1.3726073      0.68134971   
     35900  -9089.6815     -9180.0339      90.35245       14646.674      364.25064      13947.671      1.3726861      0.68134971   
     36000  -9092.7063     -9180.2649      87.558514      15259.381      352.98705      13952.742      1.3721872      0.76953682   
     36100  -9092.1735     -9177.5618      85.38825       15060.876      344.23776      13957.354      1.3717338      0.76953682   
     36200  -9089.5872     -9178.6547      89.067456      14150.076      359.07026      13960.467      1.371428       0.76953682   
     36300  -9091.7688     -9181.7518      89.982991      16359.111      362.76118      13963.544      1.3711258      0.76953682   
     36400  -9092.5513     -9181.5802      89.028876      16152.826      358.91473      13962.573      1.3712211      0.76953682   
     36500  -9094.1723     -9182.2972      88.124957      17719.837      355.27063      13955.815      1.3718851      0.76953682   
     36600  -9095.2349     -9181.1664      85.931475      14866.226      346.42773      13940.635      1.373379       0.76953682   
     36700  -9094.9606     -9182.4503      87.489704      16220.658      352.70964      13920.118      1.3754032      0.76953682   
     36800  -9093.4748     -9180.2651      86.790341      16150.316      349.8902       13899.372      1.3774561      0.76953682   
     36900  -9090.4961     -9179.4995      89.003465      16583.274      358.81228      13888.642      1.3785203      0.76953682   
     37000  -9091.3847     -9178.866       87.481301      13919.052      352.67577      13891.973      1.3781897      0.73467052   
     37100  -9093.9147     -9178.71        84.795279      14202.352      341.84723      13906.769      1.3767234      0.73467052   
     37200  -9095.3027     -9183.0665      87.763796      16774.047      353.81463      13926.865      1.3747369      0.73467052   
     37300  -9094.1335     -9180.4995      86.366051      12883.565      348.1797       13938.027      1.3736359      0.73467052   
     37400  -9094.2491     -9179.9761      85.726986      12919.429      345.60335      13939.599      1.373481       0.73467052   
     37500  -9093.0866     -9182.3205      89.233873      13704.7        359.74116      13939.703      1.3734708      0.73467052   
     37600  -9090.8515     -9179.1952      88.343747      13517.593      356.15267      13938.389      1.3736002      0.73467052   
     37700  -9090.8766     -9180.1664      89.289833      12635.381      359.96676      13938.978      1.3735422      0.73467052   
     37800  -9092.6122     -9181.1977      88.585466      14061.709      357.12714      13939.843      1.373457       0.73467052   
     37900  -9092.1518     -9179.404       87.252173      16008.546      351.75205      13938.633      1.3735762      0.73467052   
     38000  -9093.9345     -9182.0828      88.148344      14937.882      355.36491      13934.983      1.373936       0.61122849   
     38100  -9092.7734     -9179.1203      86.346886      15633.894      348.10244      13927.857      1.374639       0.61122849   
     38200  -9092.486      -9180.0114      87.525383      16042.848      352.85348      13920.194      1.3753957      0.61122849   
     38300  -9092.3082     -9179.0606      86.752421      16104.046      349.73733      13915.855      1.3758246      0.61122849   
     38400  -9093.7983     -9181.3335      87.535264      17400.16       352.89332      13918.242      1.3755886      0.61122849   
     38500  -9091.8485     -9179.6969      87.848384      17150.177      354.15564      13923.161      1.3751026      0.61122849   
     38600  -9090.8436     -9181.1958      90.35216       17430.737      364.24947      13931.81       1.3742489      0.61122849   
     38700  -9090.5984     -9180.0012      89.402841      16986.703      360.42234      13942.206      1.3732242      0.61122849   
     38800  -9089.5151     -9179.0233      89.508255      17267.409      360.84731      13954.227      1.3720412      0.61122849   
     38900  -9090.3738     -9179.15        88.776183      15061.542      357.89601      13969.267      1.370564       0.61122849   
     39000  -9094.6475     -9180.7384      86.090878      13614.508      347.07036      13980.748      1.3694385      0.64677128   
     39100  -9096.1805     -9180.9538      84.773303      15199.1        341.75863      13981.991      1.3693167      0.64677128   
     39200  -9098.007      -9182.8121      84.805104      16021.451      341.88683      13969.294      1.3705613      0.64677128   
     39300  -9094.9159     -9181.3804      86.46458       15384.231      348.57692      13941.099      1.3733332      0.64677128   
     39400  -9093.5064     -9182.448       88.94168       12933.047      358.5632       13904.959      1.3769026      0.64677128   
     39500  -9090.9894     -9176.3142      85.324802      13417.962      343.98197      13867.803      1.3805918      0.64677128   
     39600  -9092.6806     -9180.4892      87.808591      16227.405      353.99522      13845.954      1.3827704      0.64677128   
     39700  -9090.3273     -9180.5246      90.197231      14357.307      363.62488      13840.954      1.3832698      0.64677128   
     39800  -9089.3121     -9176.9889      87.676808      15169.485      353.46394      13859.616      1.3814073      0.64677128   
     39900  -9091.4285     -9179.883       88.454469      16086.057      356.59904      13906.476      1.3767524      0.64677128   
     40000  -9092.2675     -9178.9692      86.701752      13084.206      349.53306      13968.395      1.3706496      0.73007598   
     40100  -9091.7605     -9179.79        88.029569      13600.757      354.88608      14028.257      1.3648007      0.73007598   
     40200  -9091.3453     -9178.7852      87.439991      15079.148      352.50923      14071.716      1.3605857      0.73007598   
     40300  -9092.4166     -9180.3537      87.937155      11670.511      354.51352      14091.165      1.3587077      0.73007598   
     40400  -9092.8408     -9181.3988      88.557947      13202.916      357.0162       14074.122      1.3603531      0.73007598   
     40500  -9091.3262     -9177.8048      86.478564      13948.403      348.63329      14022.276      1.3653828      0.73007598   
     40600  -9092.05       -9179.7193      87.669326      15843.91       353.43378      13951.52       1.3723074      0.73007598   
     40700  -9091.2053     -9178.1414      86.936038      16812.955      350.47757      13872.814      1.3800931      0.73007598   
     40800  -9089.6587     -9180.1968      90.538112      15661.813      364.99912      13807.593      1.3866121      0.73007598   
     40900  -9088.1728     -9177.941       89.768227      14946.002      361.89538      13773.274      1.3900671      0.73007598   
     41000  -9090.1202     -9179.2465      89.126345      16626.274      359.30767      13780.454      1.3893429      0.69578483   
     41100  -9091.5332     -9177.555       86.021792      16244.201      346.79184      13822.947      1.3850718      0.69578483   
     41200  -9092.7859     -9181.9246      89.138734      13835.915      359.35761      13893.216      1.3780664      0.69578483   
     41300  -9092.6389     -9181.1404      88.501434      13454.244      356.78838      13970.005      1.3704916      0.69578483   
     41400  -9092.2055     -9179.172       86.966549      10969.654      350.60057      14036.498      1.3639994      0.69578483   
     41500  -9092.9889     -9179.9861      86.997229      9464.2688      350.72426      14077.636      1.3600135      0.69578483   
     41600  -9091.5234     -9179.4723      87.948915      12965.196      354.56093      14086.566      1.3591513      0.69578483   
     41700  -9091.5021     -9179.1697      87.667673      13213.392      353.42712      14063.083      1.3614209      0.69578483   
     41800  -9090.2782     -9180.234       89.955823      15058.582      362.65166      14012.631      1.3663226      0.69578483   
     41900  -9090.0924     -9179.1134      89.021024      16985.213      358.88307      13945.433      1.3729064      0.69578483   
     42000  -9092.7269     -9181.6398      88.912834      17758.912      358.44691      13876.879      1.3796888      0.66049039   
     42100  -9093.4176     -9178.438       85.020475      18564.172      342.75509      13819.551      1.3854122      0.66049039   
     42200  -9094.4962     -9180.4839      85.987723      19568.695      346.65449      13784.967      1.388888       0.66049039   
     42300  -9096.472      -9183.3306      86.858657      15059.084      350.16561      13777.213      1.3896697      0.66049039   
     42400  -9096.3583     -9181.8997      85.541392      16760.19       344.85514      13793.899      1.3879886      0.66049039   
     42500  -9094.5131     -9183.259       88.745905      15457.947      357.77394      13833.478      1.3840175      0.66049039   
     42600  -9094.5473     -9182.258       87.710708      14567.045      353.60061      13889.006      1.3784842      0.66049039   
     42700  -9094.2344     -9183.949       89.714633      13097.426      361.67931      13949.976      1.3724593      0.66049039   
     42800  -9093.2768     -9181.1883      87.911519      15139.23       354.41017      14000.486      1.3675079      0.66049039   
     42900  -9093.7171     -9181.0006      87.283442      13719.444      351.87811      14029.626      1.3646675      0.66049039   
     43000  -9092.4584     -9180.5065      88.048163      13388.265      354.96104      14032.974      1.3643419      0.70322063   
     43100  -9093.6098     -9181.149       87.53925       12183.926      352.90939      14012.085      1.3663758      0.70322063   
     43200  -9092.2203     -9179.4561      87.235808      12865.656      351.68608      13972.766      1.3702208      0.70322063   
     43300  -9089.7739     -9178.5035      88.729554      15662.155      357.70803      13919.764      1.3754382      0.70322063   
     43400  -9091.6636     -9179.6783      88.014663      16554.168      354.82598      13870.715      1.3803019      0.70322063   
     43500  -9090.7449     -9179.9294      89.1845        15817.665      359.54211      13835.657      1.3837995      0.70322063   
     43600  -9092.0081     -9178.6745      86.666485      19192.572      349.39088      13820.973      1.3852696      0.70322063   
     43700  -9093.3162     -9180.2985      86.982312      16932.93       350.66412      13828.659      1.3844998      0.70322063   
     43800  -9094.2475     -9182.6384      88.390906      14166.825      356.34279      13853.18       1.3820491      0.70322063   
     43900  -9092.5317     -9182.5835      90.051786      15302.86       363.03853      13887.292      1.3786543      0.70322063   
     44000  -9091.4576     -9181.8933      90.435748      14550.266      364.58645      13926.511      1.3747718      0.73740854   
     44100  -9092.4391     -9181.6168      89.177632      14571.922      359.51443      13960.802      1.3713951      0.73740854   
     44200  -9089.6019     -9177.1701      87.568155      15754.965      353.02591      13985.737      1.36895        0.73740854   
     44300  -9088.8775     -9178.4957      89.618261      14230.697      361.2908       14000.342      1.367522       0.73740854   
     44400  -9089.905      -9178.293       88.388003      13410.814      356.33108      13998.036      1.3677472      0.73740854   
     44500  -9091.1697     -9182.1979      91.028159      10877.916      366.97472      13981.008      1.3694131      0.73740854   
     44600  -9090.8141     -9178.3841      87.570081      16389.465      353.03368      13948.753      1.3725797      0.73740854   
     44700  -9093.8346     -9182.6285      88.793814      17754.677      357.96709      13908.178      1.376584       0.73740854   
     44800  -9089.9408     -9180.4632      90.522389      16483.829      364.93574      13866.135      1.3807578      0.73740854   
     44900  -9088.2082     -9177.4491      89.24094       18982.866      359.76965      13839.116      1.3834536      0.73740854   
     45000  -9087.9626     -9177.3068      89.344215      17595.838      360.186        13835.455      1.3838196      0.68401451   
     45100  -9090.0288     -9178.8615      88.8327        17154.202      358.12385      13854.629      1.3819045      0.68401451   
     45200  -9092.4588     -9178.6132      86.154415      15225.264      347.3265       13889.781      1.3784073      0.68401451   
     45300  -9093.7054     -9180.9978      87.292459      15549.11       351.91446      13933.859      1.3740469      0.68401451   
     45400  -9094.1528     -9182.2938      88.140957      12408.018      355.33513      13971.129      1.3703814      0.68401451   
     45500  -9093.5459     -9180.9565      87.410521      13633.823      352.39042      13996.492      1.3678981      0.68401451   
     45600  -9090.8574     -9178.4619      87.60451       16497.291      353.17248      14005.097      1.3670576      0.68401451   
     45700  -9091.8273     -9182.2823      90.455035      14214.022      364.6642       14003.27       1.3672359      0.68401451   
     45800  -9093.7326     -9178.3103      84.577652      17585.238      340.96987      13988.63       1.3686669      0.68401451   
     45900  -9091.1406     -9180.6393      89.498702      13807.358      360.8088       13963.679      1.3711125      0.68401451   
     46000  -9093.0151     -9180.7399      87.724837      14921.26       353.65757      13934.096      1.3740235      0.78863893   
     46100  -9090.0369     -9178.3326      88.295628      15143.448      355.95868      13906.18       1.3767818      0.78863893   
     46200  -9092.5005     -9179.4054      86.904862      15569.367      350.35189      13888.346      1.3785497      0.78863893   
     46300  -9092.8593     -9180.656       87.796655      14100.661      353.9471       13885.195      1.3788625      0.78863893   
     46400  -9091.5327     -9180.6393      89.106656      18054.301      359.22829      13895.722      1.3778179      0.78863893   
     46500  -9091.1134     -9180.0261      88.912742      12871.074      358.44654      13919.535      1.3754608      0.78863893   
     46600  -9090.766      -9177.5892      86.823131      17100.043      350.02239      13950.235      1.3724338      0.78863893   
     46700  -9090.9492     -9179.4615      88.512305      13844.705      356.8322       13984.979      1.3690242      0.78863893   
     46800  -9090.5399     -9179.6908      89.150945      17584.486      359.40684      14011.741      1.3664094      0.78863893   
     46900  -9089.631      -9178.1719      88.540809      16155.046      356.94711      14028.421      1.3647847      0.78863893   
     47000  -9088.986      -9179.0267      90.040757      16419.167      362.99406      14035.343      1.3641117      0.72341671   
     47100  -9089.9145     -9177.8241      87.909567      18238.516      354.4023       14030.75       1.3645582      0.72341671   
     47200  -9087.8758     -9178.1618      90.285979      15809.073      363.98266      14015.717      1.3660217      0.72341671   
     47300  -9087.4291     -9176.8452      89.416163      16451.619      360.47605      13994.77       1.3680664      0.72341671   
     47400  -9089.6431     -9178.1333      88.490114      12515.545      356.74274      13970.73       1.3704205      0.72341671   
     47500  -9089.2205     -9176.8692      87.648651      13347.488      353.35043      13944.532      1.3729952      0.72341671   
     47600  -9089.1864     -9176.8779      87.691513      14317.423      353.52322      13922.571      1.3751609      0.72341671   
     47700  -9089.5455     -9178.29        88.744472      15261.073      357.76817      13911.487      1.3762565      0.72341671   
     47800  -9089.0059     -9180.7586      91.752623      14408.781      369.89535      13909.07       1.3764957      0.72341671   
     47900  -9091.0029     -9179.7369      88.73399       14364.127      357.72591      13913.151      1.3760919      0.72341671   
     48000  -9090.8929     -9178.6345      87.741595      17373.14       353.72513      13923.52       1.3750671      0.61324527   
     48100  -9092.1642     -9179.7928      87.628671      15612.702      353.26988      13937.719      1.3736663      0.61324527   
     48200  -9091.0298     -9179.702       88.672239      13591.188      357.47696      13951.352      1.372324       0.61324527   
     48300  -9092.0635     -9181.4194      89.355923      13611.404      360.2332       13963.141      1.3711653      0.61324527   
     48400  -9090.4001     -9177.2864      86.88631       15668.87       350.27709      13964.899      1.3709927      0.61324527   
     48500  -9089.5195     -9176.5826      87.063132      14128.65       350.98994      13961.89       1.3712881      0.61324527   
     48600  -9090.3528     -9179.5152      89.16236       13703.115      359.45286      13961.052      1.3713705      0.61324527   
     48700  -9089.2452     -9178.2111      88.965907      15142.896      358.66087      13959.574      1.3715157      0.61324527   
     48800  -9089.9753     -9176.1341      86.158731      12742.532      347.3439       13956.179      1.3718493      0.61324527   
     48900  -9090.6224     -9177.9937      87.371231      15770.064      352.23203      13955.446      1.3719214      0.61324527   
     49000  -9086.7277     -9177.3915      90.663847      16755.357      365.50602      13958.416      1.3716295      0.68227197   
     49100  -9088.6811     -9178.6483      89.96724       16575.5        362.69769      13964.48       1.3710339      0.68227197   
     49200  -9087.4861     -9176.356       88.869929      11839.405      358.27394      13973.477      1.3701511      0.68227197   
     49300  -9089.0273     -9179.6958      90.668456      13570.288      365.5246       13983.692      1.3691502      0.68227197   
     49400  -9089.0184     -9177.5388      88.520402      13909.749      356.86484      13988.194      1.3687096      0.68227197   
     49500  -9090.0072     -9179.56        89.552815      17339.209      361.02695      13992.645      1.3682742      0.68227197   
     49600  -9090.3099     -9177.4114      87.101498      14866.82       351.14461      13994.475      1.3680952      0.68227197   
     49700  -9089.2041     -9176.9807      87.776657      15995.818      353.86648      13994.536      1.3680893      0.68227197   
     49800  -9090.0082     -9178.1553      88.147094      10866.096      355.35987      13986.095      1.368915       0.68227197   
     49900  -9090.1753     -9180.0959      89.920636      11779.762      362.5098       13972.063      1.3702897      0.68227197   
     50000  -9087.4603     -9177.7708      90.310486      16451.274      364.08146      13955.345      1.3719313      0.64937424   
     50100  -9088.7488     -9176.7351      87.986336      17385.696      354.71179      13942.085      1.3732361      0.64937424   
     50200  -9089.89       -9179.0542      89.164167      15886.331      359.46014      13936.071      1.3738288      0.64937424   
     50300  -9089.3342     -9177.8857      88.551488      19035.927      356.99016      13938.675      1.373572       0.64937424   
     50400  -9088.0233     -9177.4977      89.474356      17717.887      360.71065      13951.879      1.3722721      0.64937424   
     50500  -9088.6936     -9176.734       88.040392      14715.902      354.92971      13975.126      1.3699894      0.64937424   
     50600  -9089.2247     -9177.8529      88.628129      15223.946      357.29914      13996.795      1.3678685      0.64937424   
     50700  -9093.0434     -9180.945       87.901647      13164.682      354.37037      14011.097      1.3664722      0.64937424   
     50800  -9091.7871     -9181.7951      90.007933      14014.067      362.86174      14010.539      1.3665266      0.64937424   
     50900  -9090.7377     -9180.8006      90.062812      17259.679      363.08298      13997.712      1.3677788      0.64937424   
     51000  -9088.5198     -9176.9145      88.394716      13743.805      356.35815      13976.144      1.3698896      0.68354668   
     51100  -9089.2763     -9175.8651      86.588791      14637.976      349.07767      13952.229      1.3722377      0.68354668   
     51200  -9090.63       -9180.4229      89.792883      13712.142      361.99478      13934.718      1.3739621      0.68354668   
     51300  -9089.9324     -9177.6512      87.718808      14094.243      353.63326      13921.386      1.3752779      0.68354668   
     51400  -9090.758      -9180.4523      89.694293      12510.784      361.59732      13915.87       1.375823       0.68354668   
     51500  -9091.195      -9179.0506      87.855657      14707.663      354.18496      13917.292      1.3756825      0.68354668   
     51600  -9091.4159     -9179.9868      88.570861      14406.962      357.06826      13923.923      1.3750273      0.68354668   
     51700  -9092.6814     -9182.2985      89.617105      14464.948      361.28614      13930.538      1.3743744      0.68354668   
     51800  -9093.049      -9180.5719      87.522884      14866.812      352.84341      13935.261      1.3739086      0.68354668   
     51900  -9091.8548     -9180.4026      88.547753      15739.882      356.97511      13937.712      1.3736669      0.68354668   
     52000  -9092.1136     -9180.3738      88.260173      14959.999      355.81574      13934.174      1.3740157      0.67713751   
     52100  -9091.5575     -9180.9126      89.355103      15618.609      360.22989      13931.271      1.374302       0.67713751   
     52200  -9092.7368     -9180.1345      87.397716      14672.465      352.3388       13934.841      1.37395        0.67713751   
     52300  -9089.5293     -9179.9547      90.425479      11831.448      364.54505      13942.607      1.3731847      0.67713751   
     52400  -9087.7797     -9179.0548      91.275107      14287.754      367.97027      13952.182      1.3722423      0.67713751   
     52500  -9086.8876     -9178.5317      91.644094      15730.117      369.45783      13962.23       1.3712548      0.67713751   
     52600  -9086.681      -9176.5987      89.917688      13456.557      362.49792      13971.074      1.3703868      0.67713751   
     52700  -9087.5784     -9178.0657      90.487316      19066.52       364.79434      13979.345      1.3695759      0.67713751   
     52800  -9089.1676     -9178.0971      88.929481      16225.003      358.51402      13984.263      1.3690943      0.67713751   
     52900  -9087.7651     -9179.4389      91.673828      16918.727      369.5777       13984.278      1.3690928      0.67713751   
     53000  -9091.211      -9180.542       89.330969      13301.519      360.1326       13979.049      1.3696049      0.67804088   
     53100  -9091.5939     -9178.9314      87.337463      14480.122      352.09589      13964.182      1.3710631      0.67804088   
     53200  -9091.4469     -9181.1878      89.740883      14399.673      361.78514      13946.668      1.3727848      0.67804088   
     53300  -9089.3154     -9178.3374      89.022034      15633.236      358.88714      13932.826      1.3741487      0.67804088   
     53400  -9090.9608     -9177.4209      86.46016       14772.069      348.5591       13926.739      1.3747493      0.67804088   
     53500  -9093.102      -9180.4825      87.380429      17906.695      352.26911      13926.374      1.3747854      0.67804088   
     53600  -9092.9621     -9181.5584      88.596352      16268.593      357.17103      13926.641      1.3747589      0.67804088   
     53700  -9088.8031     -9179.4352      90.632095      13216.741      365.37801      13930.195      1.3744083      0.67804088   
     53800  -9088.9064     -9178.9294      90.022996      14142.93       362.92246      13939.996      1.3734419      0.67804088   
     53900  -9089.6414     -9181.3542      91.712804      14372.68       369.73483      13955.528      1.3719133      0.67804088   
     54000  -9090.7713     -9179.9874      89.216032      14857.242      359.66923      13970.646      1.3704288      0.63962769   
     54100  -9092.4372     -9179.241       86.803841      15507.332      349.94463      13982.739      1.3692435      0.63962769   
     54200  -9094.7615     -9182.265       87.503563      14042.115      352.76551      13991.355      1.3684003      0.63962769   
     54300  -9093.6426     -9182.3391      88.696545      14059.644      357.57495      13990.687      1.3684657      0.63962769   
     54400  -9091.7334     -9179.3108      87.577344      16662.891      353.06296      13975.739      1.3699293      0.63962769   
     54500  -9092.6913     -9180.8504      88.159073      14010.048      355.40817      13954.599      1.3720047      0.63962769   
     54600  -9091.7675     -9181.7572      89.989764      15077.31       362.78849      13929.489      1.3744779      0.63962769   
     54700  -9090.1819     -9178.288       88.106131      15976.926      355.19473      13912.376      1.3761686      0.63962769   
     54800  -9091.2839     -9182.4341      91.15024       12126.19       367.46688      13908.001      1.3766015      0.63962769   
     54900  -9092.6258     -9180.6589      88.033087      14634.593      354.90026      13908.481      1.3765539      0.63962769   
     55000  -9092.8598     -9179.8069      86.947161      17319.349      350.52241      13912.124      1.3761935      0.72902733   
     55100  -9092.2745     -9180.5922      88.317632      13908.85       356.04739      13922.441      1.3751737      0.72902733   
     55200  -9091.4225     -9179.3102      87.88767       16967.01       354.31402      13937.723      1.3736659      0.72902733   
     55300  -9091.813      -9180.9704      89.157335      12809.408      359.4326       13958.17       1.3716536      0.72902733   
     55400  -9090.7813     -9178.9937      88.212402      14453.892      355.62316      13974.658      1.3700353      0.72902733   
     55500  -9090.8453     -9180.5699      89.724604      11968.87       361.71951      13982.977      1.3692202      0.72902733   
     55600  -9089.7473     -9178.52        88.772684      15085.07       357.8819       13980.962      1.3694175      0.72902733   
     55700  -9091.0992     -9180.6436      89.544435      15557.721      360.99317      13972.911      1.3702066      0.72902733   
     55800  -9089.7991     -9180.5071      90.707968      15855.128      365.68389      13958.462      1.3716249      0.72902733   
     55900  -9091.9218     -9181.7096      89.787756      15741.186      361.97411      13939.667      1.3734743      0.72902733   
     56000  -9094.3489     -9183.7783      89.429327      13984.08       360.52912      13914.91       1.375918       0.69472979   
     56100  -9093.9191     -9183.0145      89.095326      17726.521      359.18262      13890.993      1.378287       0.69472979   
     56200  -9092.8394     -9181.9402      89.100786      16627.761      359.20463      13876.905      1.3796863      0.69472979   
     56300  -9093.779      -9180.8889      87.109946      14152.582      351.17867      13875.147      1.3798611      0.69472979   
     56400  -9094.2413     -9182.1162      87.874899      15166.029      354.26254      13883.394      1.3790413      0.69472979   
     56500  -9094.1008     -9181.5738      87.473004      18221.898      352.64232      13895.209      1.3778688      0.69472979   
     56600  -9095.3136     -9182.0694      86.755829      13297.192      349.75107      13908.257      1.3765761      0.69472979   
     56700  -9095.2641     -9180.6252      85.361104      13497.206      344.12832      13918.95       1.3755186      0.69472979   
     56800  -9095.2369     -9180.824       85.587101      15220.868      345.03941      13920.199      1.3753952      0.69472979   
     56900  -9093.7819     -9182.625       88.843105      12895.293      358.1658       13916.554      1.3757554      0.69472979   
     57000  -9093.2227     -9180.542       87.319261      18107.671      352.02251      13908.081      1.3765935      0.71372065   
     57100  -9093.4819     -9179.9487      86.466767      17577.686      348.58573      13898.274      1.3775649      0.71372065   
     57200  -9092.2425     -9179.5349      87.292379      14088.084      351.91414      13889.752      1.3784101      0.71372065   
[...]
    386300  -9086.5226     -9177.5833      91.060705      14829.858      367.10593      13951.773      1.3722825      0.86184943   
    386400  -9086.7796     -9176.3529      89.573233      15412.01       361.10927      13974.74       1.3700272      0.86184943   
    386500  -9085.8125     -9176.3902      90.577702      19490.543      365.15873      14002.139      1.3673464      0.86184943   
    386600  -9085.5417     -9174.3915      88.849748      14036.168      358.19258      14028.527      1.3647744      0.86184943   
    386700  -9087.0145     -9178.856       91.841427      14594.363      370.25336      14049.051      1.3627806      0.86184943   
    386800  -9087.1161     -9179.1349      92.01875       14893.612      370.96823      14057.763      1.3619361      0.86184943   
    386900  -9089.4258     -9178.1585      88.732702      13496.298      357.72072      14044.705      1.3632023      0.86184943   
    387000  -9089.2314     -9178.7263      89.494939      18440.122      360.79363      14013.876      1.3662012      0.7371798    
    387100  -9089.0401     -9180.7228      91.682769      12822.052      369.61374      13970.187      1.3704738      0.7371798    
    387200  -9093.578      -9180.3713      86.793288      12910.192      349.90208      13921.701      1.3752468      0.7371798    
    387300  -9093.0447     -9178.3007      85.256035      14359.717      343.70474      13872.497      1.3801246      0.7371798    
    387400  -9089.9617     -9178.424       88.462308      14497.018      356.63064      13836.862      1.3836789      0.7371798    
    387500  -9090.0332     -9179.7569      89.723698      18952.021      361.71586      13823.214      1.3850451      0.7371798    
    387600  -9089.981      -9176.1224      86.141389      16636.438      347.27399      13836.203      1.3837448      0.7371798    
    387700  -9088.5516     -9178.3877      89.836136      13534.811      362.16915      13877.323      1.3796447      0.7371798    
    387800  -9087.7891     -9175.523       87.733879      17387.342      353.69402      13938.28       1.373611       0.7371798    
    387900  -9086.5601     -9177.1155      90.555379      15186.191      365.06873      14007.868      1.3667872      0.7371798    
    388000  -9088.8154     -9176.4484      87.632981      15852.783      353.28726      14067.737      1.3609705      0.63616714   
    388100  -9090.7589     -9179.1293      88.370425      11972.062      356.26022      14104.227      1.3574495      0.63616714   
    388200  -9091.3442     -9179.1023      87.758095      8904.8638      353.79165      14108.029      1.3570836      0.63616714   
    388300  -9089.8881     -9176.9812      87.093062      11256.141      351.11061      14079.396      1.3598434      0.63616714   
    388400  -9089.2644     -9177.719       88.454627      13327.829      356.59967      14028.518      1.3647753      0.63616714   
    388500  -9088.0275     -9179.6273      91.599809      13450.229      369.27929      13963.086      1.3711707      0.63616714   
    388600  -9088.8939     -9176.2566      87.362653      15114.605      352.19745      13896.784      1.3777126      0.63616714   
    388700  -9089.6583     -9178.8953      89.237018      18292.679      359.75384      13846.797      1.3826862      0.63616714   
    388800  -9090.1259     -9178.9154      88.789481      16209.34       357.94962      13821.699      1.3851969      0.63616714   
    388900  -9092.9936     -9179.4759      86.482222      13092.645      348.64804      13827.46       1.3846197      0.63616714   
    389000  -9096.2606     -9182.8879      86.627322      15336.211      349.233        13858.696      1.381499       0.69800716   
    389100  -9096.8018     -9183.2481      86.446353      18181.088      348.50343      13906.018      1.3767977      0.69800716   
    389200  -9095.2744     -9183.5674      88.293018      13980.305      355.94816      13958.412      1.3716299      0.69800716   
    389300  -9096.0223     -9182.7019      86.67959       11781.254      349.44372      14000.983      1.3674593      0.69800716   
    389400  -9095.7818     -9181.1794      85.397613      16315.65       344.2755       14025.442      1.3650746      0.69800716   
    389500  -9094.228      -9180.1074      85.879396      13526.78       346.21778      14031.004      1.3645334      0.69800716   
    389600  -9094.049      -9181.4904      87.441396      12907.229      352.51489      14020.203      1.3655847      0.69800716   
    389700  -9092.0084     -9180.2196      88.211206      15616.168      355.61834      13991.74       1.3683626      0.69800716   
    389800  -9090.7668     -9179.9314      89.164586      14231.245      359.46183      13954.243      1.3720397      0.69800716   
    389900  -9091.0661     -9176.4135      85.347378      16592.37       344.07298      13916.859      1.3757253      0.69800716   
    390000  -9091.5478     -9179.04        87.492179      17755.205      352.71962      13896.669      1.3777241      0.65194562   
    390100  -9091.5205     -9182.0033      90.482818      15617.727      364.77621      13892.681      1.3781195      0.65194562   
    390200  -9095.2585     -9182.2001      86.941647      13952.853      350.50018      13905.11       1.3768877      0.65194562   
    390300  -9092.9436     -9180.9536      88.01          13155.438      354.80719      13929.502      1.3744767      0.65194562   
    390400  -9091.0103     -9178.9185      87.908146      17017.582      354.39657      13959.315      1.3715411      0.65194562   
    390500  -9092.7266     -9180.9966      88.270013      15650.363      355.85541      13989.06       1.3686248      0.65194562   
    390600  -9090.2178     -9177.2984      87.080651      13393.427      351.06057      14011.736      1.3664099      0.65194562   
    390700  -9092.7496     -9181.9811      89.231456      16834.757      359.73141      14026.695      1.3649526      0.65194562   
    390800  -9094.9806     -9181.9816      87.001011      12802.774      350.73951      14021.089      1.3654984      0.65194562   
    390900  -9094.6414     -9181.9348      87.293433      13475.507      351.91839      13996.245      1.3679222      0.65194562   
    391000  -9093.7355     -9179.1611      85.425615      17273.904      344.38839      13955.861      1.3718806      0.73393206   
    391100  -9092.7214     -9180.5442      87.822791      18246.728      354.05247      13909.55       1.3764482      0.73393206   
    391200  -9091.7517     -9180.1758      88.424075      16145.849      356.4765       13866.017      1.3807696      0.73393206   
    391300  -9090.4993     -9178.9705      88.471202      18264.393      356.66649      13836.037      1.3837615      0.73393206   
    391400  -9091.3523     -9179.4814      88.129043      17612.163      355.2871       13838.902      1.383475       0.73393206   
    391500  -9094.4237     -9181.8586      87.434896      17470.537      352.48869      13871.321      1.3802417      0.73393206   
    391600  -9095.588      -9182.464       86.875991      15738.679      350.23549      13921.539      1.3752628      0.73393206   
    391700  -9095.869      -9183.2799      87.410895      14701.111      352.39193      13971.288      1.3703657      0.73393206   
    391800  -9097.7687     -9183.4248      85.656136      13625.568      345.31772      14008.319      1.3667432      0.73393206   
    391900  -9098.317      -9183.7287      85.411705      13693.677      344.33231      14022.436      1.3653672      0.73393206   
    392000  -9097.6241     -9185.2128      87.588676      14758.756      353.10864      14013.597      1.3662285      0.73002616   
    392100  -9098.9586     -9183.0203      84.061738      13185.738      338.89         13985.204      1.3690022      0.73002616   
    392200  -9096.6117     -9179.8941      83.282446      12049.231      335.74833      13942.041      1.3732405      0.73002616   
    392300  -9098.197      -9184.418       86.221004      15641.403      347.59495      13897.002      1.377691       0.73002616   
    392400  -9097.1265     -9182.1765      85.049925      15335.381      342.87382      13855.412      1.3818265      0.73002616   
    392500  -9096.6708     -9184.6247      87.953869      18104.916      354.5809       13829.17       1.3844485      0.73002616   
    392600  -9097.6263     -9183.0535      85.427214      16851.642      344.39483      13821.949      1.3851719      0.73002616   
    392700  -9095.1838     -9180.0342      84.850404      16303.324      342.06946      13838.953      1.3834699      0.73002616   
    392800  -9092.9781     -9180.2273      87.249155      15103.791      351.73988      13877.31       1.379646       0.73002616   
    392900  -9093.2375     -9181.5099      88.272418      11610.375      355.86511      13928.432      1.3745822      0.73002616   
    393000  -9092.5009     -9180.5899      88.088982      15588.53       355.1256       13978.459      1.3696627      0.69218534   
    393100  -9093.4389     -9181.3732      87.934354      13439.281      354.50222      14014.262      1.3661636      0.69218534   
    393200  -9095.4053     -9181.2305      85.825209      15039.605      345.99933      14028.928      1.3647354      0.69218534   
    393300  -9094.3136     -9180.9974      86.683728      11193.517      349.4604       14017.072      1.3658897      0.69218534   
    393400  -9091.4891     -9179.1656      87.676463      15759.223      353.46255      13978.408      1.3696677      0.69218534   
    393500  -9091.1153     -9180.2763      89.160984      12353.53       359.44731      13929.978      1.3744297      0.69218534   
    393600  -9093.6211     -9180.2389      86.617831      15747.126      349.19474      13882.925      1.379088       0.69218534   
    393700  -9093.461      -9181.3136      87.85253       14289.771      354.17236      13846.149      1.3827509      0.69218534   
    393800  -9090.9549     -9181.9083      90.95339       17917.834      366.67329      13827.503      1.3846155      0.69218534   
    393900  -9094.3031     -9182.3564      88.053265      17970.687      354.98161      13834.558      1.3839093      0.69218534   
    394000  -9093.6405     -9182.6668      89.026214      16220.971      358.90399      13859.431      1.3814258      0.7379758    
    394100  -9093.3998     -9181.5713      88.171471      14793.661      355.45815      13897.255      1.3776659      0.7379758    
    394200  -9091.7305     -9178.2731      86.542622      13959.866      348.89154      13941.812      1.373263       0.7379758    
    394300  -9092.7647     -9180.3793      87.614603      13498.544      353.21317      13988.577      1.3686721      0.7379758    
    394400  -9092.5039     -9181.3142      88.810238      13635.428      358.0333       14025.874      1.3650325      0.7379758    
    394500  -9093.1549     -9181.2639      88.109046      13401.333      355.20648      14043.884      1.363282       0.7379758    
    394600  -9092.2149     -9180.5361      88.321178      10676.465      356.06168      14039.801      1.3636785      0.7379758    
    394700  -9091.134      -9181.0354      89.901322      14429.834      362.43194      14014.363      1.3661538      0.7379758    
    394800  -9090.341      -9179.1333      88.792365      14721.05       357.96124      13972.953      1.3702024      0.7379758    
    394900  -9091.1827     -9178.2251      87.042379      14464.316      350.90628      13927.569      1.3746674      0.7379758    
    395000  -9090.9701     -9180.0256      89.055467      16609.237      359.02192      13887.785      1.3786054      0.69791302   
    395100  -9090.7067     -9180.7767      90.069952      19230.367      363.11176      13858.882      1.3814804      0.69791302   
    395200  -9090.0158     -9180.5638      90.548056      18217.209      365.03921      13848.036      1.3825625      0.69791302   
    395300  -9089.5455     -9180.8402      91.294729      15967.83       368.04938      13861.103      1.3812591      0.69791302   
    395400  -9087.3531     -9175.6051      88.252034      13979.411      355.78293      13893.365      1.3780517      0.69791302   
    395500  -9088.5911     -9177.7194      89.128275      12503.745      359.31545      13943.003      1.3731457      0.69791302   
    395600  -9088.6467     -9178.653       90.006366      13670.881      362.85542      13998.798      1.3676728      0.69791302   
    395700  -9090.0374     -9180.9097      90.872382      13015.895      366.34671      14051.489      1.3625442      0.69791302   
    395800  -9089.2225     -9178.1449      88.922406      12598.127      358.4855       14085.449      1.3592591      0.69791302   
    395900  -9088.0675     -9178.8833      90.815721      14318.784      366.11829      14094.709      1.3583661      0.69791302   
    396000  -9087.8516     -9178.0162      90.164603      16702.033      363.49334      14073.489      1.3604142      0.69136299   
    396100  -9088.297      -9178.7399      90.442923      11730.227      364.61537      14027.515      1.3648728      0.69136299   
    396200  -9088.8441     -9177.2884      88.444324      11979.101      356.55814      13967.02       1.3707845      0.69136299   
    396300  -9087.3397     -9177.9807      90.641         17254.143      365.41391      13906.418      1.3767582      0.69136299   
    396400  -9090.2529     -9179.1928      88.939887      18304.127      358.55597      13861.984      1.3811713      0.69136299   
    396500  -9091.7804     -9179.5641      87.783679      18184.116      353.89479      13837.842      1.383581       0.69136299   
    396600  -9093.554      -9179.4413      85.887259      17003.6        346.24948      13839.783      1.3833869      0.69136299   
    396700  -9095.5101     -9183.6141      88.104014      14261.197      355.1862       13862.82       1.381088       0.69136299   
    396800  -9095.2497     -9183.0246      87.774832      12756.566      353.85912      13897.295      1.377662       0.69136299   
    396900  -9095.2376     -9181.0636      85.826042      11629.626      346.00269      13937.527      1.3736852      0.69136299   
    397000  -9093.9592     -9181.9814      88.022172      12625.379      354.85626      13976.591      1.3698458      0.69093556   
    397100  -9094.2023     -9183.7042      89.501912      17061.246      360.82174      14005.444      1.3670237      0.69093556   
    397200  -9096.3553     -9182.5158      86.160539      12319.354      347.35119      14015.212      1.366071       0.69093556   
    397300  -9096.4372     -9184.0431      87.605965      12464.709      353.17834      14000.494      1.3675071      0.69093556   
    397400  -9097.0297     -9183.261       86.231303      14992.097      347.63647      13958.867      1.3715852      0.69093556   
    397500  -9094.1198     -9182.0027      87.882906      15736.054      354.29481      13901.243      1.3772707      0.69093556   
    397600  -9092.6097     -9178.7352      86.125448      19079.937      347.20972      13844.986      1.382867       0.69093556   
    397700  -9093.6284     -9181.0401      87.411706      15533.509      352.3952       13810.173      1.386353       0.69093556   
    397800  -9094.5988     -9182.492       87.893178      17937.46       354.33623      13800.226      1.3873523      0.69093556   
    397900  -9093.804      -9182.1265      88.322506      18862.94       356.06704      13815.241      1.3858444      0.69093556   
    398000  -9092.981      -9182.1564      89.175349      18368.313      359.50522      13854.887      1.3818788      0.68072378   
    398100  -9091.2648     -9179.1827      87.917899      13690.653      354.43589      13912          1.3762057      0.68072378   
    398200  -9091.7394     -9179.957       88.217594      15329.364      355.64409      13976.282      1.3698761      0.68072378   
    398300  -9092.4103     -9179.1866      86.776308      16486.645      349.83363      14031.911      1.3644453      0.68072378   
    398400  -9093.2249     -9183.4295      90.204601      11615.93       363.65459      14066.004      1.3611382      0.68072378   
    398500  -9092.221      -9179.1922      86.971155      14021.556      350.61914      14065.915      1.3611468      0.68072378   
    398600  -9094.4091     -9179.694       85.284891      15147.5        343.82107      14032.939      1.3643453      0.68072378   
    398700  -9091.1278     -9178.6656      87.537821      14963.133      352.90362      13976.284      1.3698759      0.68072378   
    398800  -9089.7026     -9179.8493      90.146726      15074.547      363.42127      13909.743      1.376429       0.68072378   
    398900  -9089.9747     -9177.9868      88.012144      19513.881      354.81583      13850.442      1.3823223      0.68072378   
    399000  -9089.4197     -9177.6774      88.257752      16607.367      355.80598      13811.964      1.3861732      0.63063622   
    399100  -9086.9129     -9178.8296      91.916637      17139.437      370.55657      13802.647      1.3871089      0.63063622   
    399200  -9089.0046     -9177.0979      88.093268      15605.838      355.14287      13824.075      1.3849588      0.63063622   
    399300  -9090.262      -9183.8298      93.567816      14744.66       377.2132       13873.073      1.3800673      0.63063622   
    399400  -9091.3027     -9179.6449      88.342204      15881.584      356.14645      13929.787      1.3744485      0.63063622   
    399500  -9089.3773     -9176.8872      87.509896      13902.177      352.79105      13983.073      1.3692108      0.63063622   
    399600  -9090.2718     -9178.3893      88.11748       12176.688      355.24049      14021.32       1.3654759      0.63063622   
    399700  -9090.2833     -9177.9763      87.693028      12317.239      353.52933      14036.331      1.3640157      0.63063622   
    399800  -9090.6456     -9180.2789      89.633251      11752.846      361.35123      14026.55       1.3649668      0.63063622   
    399900  -9091.0748     -9178.4446      87.369724      13108.19       352.22595      13994.318      1.3681106      0.63063622   
    400000  -9090.7277     -9181.686       90.958361      11954.407      366.69333      13949.031      1.3725523      0.64205391   
    400100  -9092.3952     -9181.868       89.472819      15107.684      360.70445      13904.8        1.3769184      0.64205391   
    400200  -9090.8359     -9179.012       88.176089      14727.303      355.47676      13867.277      1.3806441      0.64205391   
    400300  -9090.1554     -9178.2941      88.138727      15256.689      355.32614      13848.138      1.3825523      0.64205391   
    400330  -9090.4732     -9178.6011      88.127883      17813.132      355.28243      13846.117      1.382754       0.64205391   
Loop time of 548.231 on 4 procs for 200000 steps with 1920 atoms

Performance: 15.760 ns/day, 1.523 hours/ns, 364.810 timesteps/s, 700.435 katom-step/s
99.6% CPU use with 4 MPI tasks x 1 OpenMP threads

MPI task timing breakdown:
Section |  min time  |  avg time  |  max time  |%varavg| %total
---------------------------------------------------------------
Pair    | 272.89     | 276.39     | 281.58     |  19.6 | 50.41
Neigh   | 7.8845     | 8.0197     | 8.1351     |   3.3 |  1.46
Comm    | 64.566     | 70.443     | 74.552     |  47.6 | 12.85
Output  | 0.3123     | 0.31804    | 0.32516    |   0.8 |  0.06
Modify  | 189.15     | 190.63     | 192.02     |   7.9 | 34.77
Other   |            | 2.43       |            |       |  0.44

Nlocal:            480 ave         483 max         476 min
Histogram: 1 0 0 0 1 0 0 0 1 1
Nghost:         2696.5 ave        2701 max        2692 min
Histogram: 1 1 0 0 0 0 0 0 1 1
Neighs:              0 ave           0 max           0 min
Histogram: 4 0 0 0 0 0 0 0 0 0
FullNghs:      77824.5 ave       78397 max       77075 min
Histogram: 1 0 0 0 1 0 0 0 1 1

Total # of neighbors = 311298
Ave neighs/atom = 162.13438
Neighbor list builds = 20000
Dangerous builds = 20000
Total wall time: 0:18:20
