../../full/vi/15000_bar/1-bulk/355/water.dat (written by ASE) 

1920 	 atoms 
2  atom types
0.0       24.98995591405814  xlo xhi
0.0      24.989919218824369  ylo yhi
0.0      23.167336367943193  zlo zhi
   -0.22207236291586091    -0.16357316490059631   -0.098737558798777311  xy xz yz


Atoms 

     1   2      4.3586169014538187       1.551069856049492      4.0412400572383627
     2   1      5.2172690838051183      1.4787221328738929      3.5613128079119147
     3   1      4.3890524264245894     0.86940415222377321      4.7524879230950923
     4   2      2.7693417248420671      1.4242260542768181      1.6855914093438829
     5   1      3.1480033625700186      1.4493588275327192      2.5960091016578621
     6   1      3.2828572121706774      2.1226537465500992      1.2235447970462139
     7   2      5.8208116839108346      4.4239491134431788      3.6330788111985188
     8   1      6.3399241882585917       4.418549941383449      2.7953058129478046
     9   1      6.2450113273131844      5.1431805587960078      4.1544348708992667
    10   2      3.0770132919256543      4.4844343945320739      3.0967843147344425
    11   1       2.668874241391328      3.8244664402702164      3.7071718797964586
    12   1      4.0427468691232713      4.4882099119936125      3.2942274193584624
    13   2      1.5214214540896445      3.0015872033408328      4.7364998887220731
    14   1      1.7139489742713307      2.0457383622341889      4.8737276942694763
    15   1      1.6096872486465106      3.4421123506838875      5.6192702266811327
    16   2      24.928707161673483      1.0054251221792312      2.0467477584788432
    17   1      0.8829027127950605       1.186037423808626      1.8910954052305435
    18   1      24.638196005166812     0.39590390586828078      1.3443283846221363
    19   2      4.9549534644840678      3.0763546531506538     0.78741038087661219
    20   1      5.0374753238432497      2.6686496499604799      23.063155139977468
    21   1       4.919546548231799      4.0633601665723633     0.74238603175694406
    22   2      1.0595813107418852      4.5787316766269504      1.2656883044870439
    23   1      1.1293174773061354      5.3711191430467391      0.6728612380569593
    24   1      1.9037981904644914      4.5462354141300914      1.7774807561913135
    25   2      4.6930577579113679      5.8341228052880547     0.80459895203309106
    26   1      4.4701855261919814      6.2361037693686452      23.126095321251096
    27   1      3.8833708938924825      6.0839743359557108      1.2978317996720838
    28   2      1.8223872983794467     0.13055944257201429      4.7602250225449785
    29   1     0.81759069527027506      24.792429801076448      4.2571408514840527
    30   1      1.5212680640876717      24.631188953756403       5.612166455532309
    31   2      10.838225781187441      1.2202444910715133      4.2178387144760388
    32   1      11.634579102368782      1.2467140367648539      3.6354245233228082
    33   1      10.907297088314792      1.9894720469266787      4.8261375773978239
    34   2      9.2217932512728407      1.4130003731564944       1.949814444645354
    35   1      9.6256327814556215      1.4316454638306848      2.8519964136674192
    36   1       9.689990623096417      2.1260712633203136      1.4561321920959724
    37   2      12.193311576911315      4.4466988602064808       3.157437337538898
    38   1       12.69423138055831      3.6931915642717015      3.5381487125783617
    39   1       12.50421784536298      5.2088007609840021      3.6893537719131388
    40   2      9.3798462762768455      4.3572013800510057       3.603954743210152
    41   1      10.360498258710816      4.2880129475809845      3.5252808675836418
    42   1      9.0798607924108108      3.6188540681105303      4.1801801700009529
    43   2      7.5904927449351289      2.7824373812299337      5.1671490092948185
    44   1      7.6182481034716067      1.7975448424043303      5.1052676739202898
    45   1      6.8406903884883494      3.0788001785005772      4.6031217190596125
    46   2      6.4084505238057972      1.2845595126133735      2.1839435778933267
    47   1      7.3922153703450073      1.3405197828783002       2.137705543445279
    48   1       6.066119209636164      2.1069760678443821      1.7539701143434505
    49   2      11.024368588360302      3.1672181682167317     0.43684627468784765
    50   1      11.078039982880572       4.152513723365912      0.4293198926642437
    51   1      11.759930531130058       2.858076139961804      1.0060753409811176
    52   2      7.7070521358216286      4.5088994990562243      1.4885961183633207
    53   1      8.4358292097086913      4.4591453494839541      2.1570159458709632
    54   1      7.7698075157765514      3.6806108549418144     0.96361230935863218
    55   2      10.971292876603915      5.9285999991021692     0.47681496535121748
    56   1      11.733003379144996      6.3790686472232014      0.9105935345905346
    57   1      10.215546254549787      6.2263824746001708      1.0287452910357144
    58   2      7.7587320670554165    0.035034124851013398      4.7810877630954769
    59   1      8.3372863382112126      24.567477552069914      4.4185720127822652
    60   1      6.8319631544503832      24.736620699259802      4.1625376735044624
    61   2      17.143047707101069       1.393880206862091      3.8814017323866006
    62   1      17.946113293556895      1.3046459508834793      3.3167353258823233
    63   1      17.196760896293178     0.64154253734626165      4.5195082965402316
    64   2      15.373255410226886      1.5312104205371979       1.657654992626685
    65   1      15.877601506293065        1.47556481862313      2.5039961803842248
    66   1      15.775017603419769     0.80890271494886701      1.1150443509383137
    67   2      18.403355450882241      4.8185165699994288      3.4532134591347918
    68   1      18.661151665616245      3.9958074127605987       3.918785710590678
    69   1      17.411593018713106      4.8258670479991963      3.4249341655884713
    70   2      15.701155771034523      4.6318335845644771      3.4239208680285644
    71   1      15.199671972785834      5.3219786389656001      3.9046286100886229
    72   1      15.281942886746775      4.6380457923082821      2.5255699217312957
    73   2       13.98097370254775      2.7185129512535084      4.6015336048673721
    74   1      13.915097371364025      3.1353333094217093      5.4926657114393045
    75   1      14.707591073528976      3.2301654825108082      4.1814081276286901
    76   2      12.583573610374042      1.4269141806039769      2.0267911890482444
    77   1      13.567376042093775      1.3761466416686723      1.9692894292530352
    78   1      12.228362168737124     0.70197224116023682      1.4580463166896576
    79   2      17.268629745163807      3.3013972019342925     0.38652820934610277
    80   1      16.479228638550005      2.9132320752222398     0.82281873355591917
    81   1      17.077524096948043      2.8057200271609242      22.653315685732206
    82   2      14.207692301500323      4.6672434000271155      1.1530289286209634
    83   1      13.378414852429282      4.7480036070099203      1.6653628624301646
    84   1      14.180945755730615      5.3776032132951892     0.47553099520462572
    85   2      17.191470102565454      5.9819430680891301     0.47890807859070705
    86   1      16.371133777771927      6.2508251914041235     0.93706510365064766
    87   1      17.227777603752592      4.9906969453165022     0.49102187582095386
    88   2      14.277960742498111   -0.037984125352072143      4.7296845322607082
    89   1      14.264036129937354     0.94210544389670026      4.6081892970636122
    90   1      14.838625594713788      24.614025822928497      4.2488790713035236
    91   2      23.086898454819945      1.3939446061046392      4.1538039318123774
    92   1      23.864412163288353      1.2508193141372086       3.559171707680965
    93   1      23.101274143749993     0.62233685085269597      4.7701533523188635
    94   2      21.683357513762623      1.1526020918382123      1.6207250641963107
    95   1      22.040707345609082      1.2968099181619821      2.5279090957069634
    96   1      22.015506256567722      1.9183275946784657      1.1032403491176024
    97   2      24.473932694946566       4.408413055061569      3.4875991313654757
    98   1      24.910346178189226      4.5763237663452498      2.6159025552810973
    99   1    0.042798058660269575      3.7173049797337789       3.918386194179325
   100   2      21.808695115668041      4.3007688422012871      3.6800371260283846
   101   1      21.592625642126173      5.1513050778480647      4.1139612055228305
   102   1      22.793090188562847      4.2695832723210607       3.601551851749639
   103   2      19.898842999517008      2.7171515590743156      4.7586236235834551
   104   1      19.968522839840006      1.7319745947247231      4.7834024533674491
   105   1      20.721530906117902      3.0328549329189158      4.3222339329136918
   106   2      18.973941936198347      1.2098862241312218      1.7566933669246605
   107   1      19.963656605572073      1.1247290322855386      1.7146066310889012
   108   1      18.783333441666993      2.0989808553477158      1.3985537168794382
   109   2      23.248199011446193       3.355648529888239     0.49888693607403162
   110   1      24.068200369193509      3.2773512000923497      1.0175659564028596
   111   1      23.058726914099882      4.3279944218028916     0.51012541658048438
   112   2      20.152396629788623      4.4513132017513284      1.4171490992189022
   113   1      19.353897651651536      4.5704872015324245       1.996448618692815
   114   1      20.880922368210673       4.388040190433653       2.084133692648074
   115   2      23.022694386943837      6.0126560879926991     0.69203888273274561
   116   1      22.286009295130281      6.4619040916128787      1.1707590802803951
   117   1      22.910453824424387       6.372176039585745      22.991507398930249
   118   2      19.867499298275785       24.97087990797305      4.6725078967038813
   119   1      19.781521574250441      24.500658862506196      5.5404728225918438
   120   1      20.712866698429615       24.61624973986352      4.3156226979897916
   121   2      4.5067783113370012      7.4841037797136307      4.2541078584079406
   122   1      3.7556393225344906      7.5134217757661252      3.6187844578146664
   123   1      4.4319787198258247      8.2882977921067944      4.8149709157685425
   124   2      2.6830917617537926      7.4628976242757261      2.1465811292453387
   125   1      3.0734856384409919      8.1935877224999061      1.6167523158163279
   126   1      1.7034318406546889      7.5637840145109863       2.097113730264331
   127   2      5.8795736109087997      10.892975067194049      3.5900039351928643
   128   1      6.2632941687878603      10.140783035055447      4.0890741098536969
   129   1      6.3233006477930314      10.837785579491751      2.7083595725769491
   130   2      3.1743332007067693      10.423769392267141        3.52951149195325
   131   1      4.1566527966871059      10.513345435945537      3.4461413066125202
   132   1      2.8942570198945323      11.159004670662167      4.1158621522987948
   133   2      1.0999383175435395      8.9634859521810153      4.7774139836258023
   134   1      1.0195380852881093      7.9760997214770528      4.7452464514265014
   135   1      1.9497557757203929      9.1546192118022542       4.320874342965392
   136   2      24.915514544374975        7.74465776910949      1.9346462484018612
   137   1      24.449637893457581      7.6570389704169495      2.8018014383768581
   138   1      24.508626688803307      7.0380728009019258      1.3861102712206312
   139   2       4.444380873008801      9.1561909309010385     0.84588817178741726
   140   1      5.2376817663229218      8.9018700553375432      1.3715682908920297
   141   1       4.413670397765773        10.1462731932879     0.81809087675042647
   142   2      1.3032268571874683       10.75964857943204      1.5347049291627428
   143   1      2.1057527310451585      10.648925529497788      2.0974786595028378
   144   1      1.2922555097398132        10.0069775762442     0.89833871341569849
   145   2      4.1598305508135036      11.924978781754911     0.65252534295206899
   146   1      4.0176903990891404       12.23492209316553      22.922352702271358
   147   1      4.8984625702149538      12.392631938115056      1.1410933162704335
   148   2      1.2441754414981894      6.2286664920680614      4.6531834634579408
   149   1      1.9365526430485029      5.9034978204523085      4.0353487708795228
   150   1     0.42641390735380208      5.7842018025209114      4.3289118683197039
   151   2      11.044997465016205      7.3229180263914673      4.2048416261858881
   152   1      10.271646436457345      7.2187196298039629      3.5978633237174655
   153   1      11.799230751672152      7.4167505051965312      3.5838545969673707
   154   2      9.2068387248199937      7.3537651540125344       2.229183259611073
   155   1      9.5410252567555816       8.151014879635861      1.7616233799603187
   156   1      8.2345498156205199      7.4705062997822367      2.3414153328209131
   157   2      11.834192047008349      10.946629910310499      3.7151187250567888
   158   1      12.225286112225998      10.235143940988054      4.2615342269884859
   159   1      12.310600286652805      10.883758393991618      2.8434597750835588
   160   2      9.1694876180539566      10.533653065487554      3.5113741400429817
   161   1      10.153727878288748      10.645837035293985      3.5233539072621869
   162   1      8.8266777591336183      11.259249991806666      4.0752670171674987
   163   2      7.4974136677268826      8.9068654261580971      5.0208196870299524
   164   1      7.4809609219906168      7.9188860941552957      5.0425562448023902
   165   1      8.2349277266748366      9.1592375010603142      4.4241689552642844
   166   2      6.4297861703479269       7.621654001715032      2.2319996346001232
   167   1       5.934423988741135      7.5428639629879832      3.0845435345179726
   168   1      6.0369403783171123      6.8930495755543282      1.7050183084411803
   169   2      10.748030247787675      9.1266388951340289     0.78949889268449824
   170   1      10.502282954854879      8.6921364390393006      23.033270604927178
   171   1      10.617118475190146      10.105017331493425     0.75205504710645599
   172   2      7.4719976682225928      10.524890848785152      1.3651709296416659
   173   1      7.5994813894975923      9.7832867212211507     0.72380989505748183
   174   1      8.2387239015469422      10.491395796525728      1.9844090326720876
   175   2      10.441839631455677      11.872646942765762     0.82883234890015756
   176   1      9.6106427688610605      12.285935834433497      1.1722331537305763
   177   1      10.618224505976656       12.37323200148348  -0.0027643249825622194
   178   2       7.627950213111192      6.1547353113393424      5.0300061955461395
   179   1      7.6612275521645588      5.6986432636957627      5.9086469262460222
   180   1      8.3884987856970383      5.7814127612281476      4.5384122323212841
   181   2      16.985281139593035      7.5624895716798148      4.2742345785176692
   182   1      17.060920483212374       8.298975495695295       4.927888818194611
   183   1      17.737255218648993      7.6756744900965614      3.6534648055802088
   184   2      15.390787045387732      7.7155933728489972      1.9298334990615336
   185   1      15.820427869621653      8.4516927196999241      1.4312704346680121
   186   1      15.807218261763065      7.7531463404604359      2.8216271495299869
   187   2      18.104521097452807      10.963438255991971      3.4377553450266758
   188   1      18.480713257442378      10.187681596631787       3.913760980154438
   189   1      18.638327738872043      10.998495118606764      2.6099976475426279
   190   2       15.28577662848911       10.90443816644428      3.5739740897106649
   191   1       16.25676309113361      10.934171701162542       3.412381741794797
   192   1      14.839268422981407      10.898245919391744      2.6951238435687261
   193   2      13.601399704650339      9.0468772498383387      4.9750925056598376
   194   1       14.31839265918552      9.5419638064340013      4.5184961653687861
   195   1      13.618431449841339      9.4191388033246266      5.8836054956527049
   196   2      12.691929675241342      7.5328597697184811      1.9572998667574208
   197   1      12.277446591654732      8.3163967562105405      1.5516333991445679
   198   1      13.667079865700368      7.6588932948920769      1.9178266909583968
   199   2      16.869886812588252      9.4945866826039094      0.5289850344094702
   200   1      16.731833455031826      10.476482702669452     0.50760648433742306
   201   1      16.699745565820482      9.0727630160344841      22.772217670876216
   202   2      13.464026377231066      10.920635378445144      1.4917389067708835
   203   1      13.471374342948954      11.634969660163108     0.80634034378132424
   204   1      13.520015322479228      10.125665617404213     0.91215759374774619
   205   2      16.525105554347199      12.151660971705649     0.84267807634090364
   206   1      16.605082085715182      12.622237517227376   -0.025584573767192403
   207   1      17.240412165339414      12.573602342311988      1.3741304516244552
   208   2       13.86536084657833      6.1353869876684852       4.896633939613114
   209   1      13.892858527653406      5.6645603558085478       5.764484792564609
   210   1      13.834327170408278      7.1018025801673375      5.0796763779888989
   211   2      23.310045029337651      7.5970340483538319      4.1965546209180804
   212   1      23.356198884931445      8.3937087859610031      4.7822984868815483
   213   1      22.450945853073705      7.6483040862555214      3.7211799834600683
   214   2      21.269534228639891      7.6821617059998148      2.1074137148831431
   215   1      21.578157228057584      8.4371752961514055      1.5601626273896014
   216   1      20.283374624645628      7.6980298025490113      2.0655660503586071
   217   2      24.494630521956559      10.979776584563281      3.5726458270981287
   218   1     -0.1224792302792084      10.163779044311839      3.9854865774032771
   219   1   -0.061732429523399149      10.982025028596862      2.6855803224354631
   220   2      21.618918876360382      10.944749425607004      3.6622239679969302
   221   1      22.598340522845799      10.995909749004673      3.7081950625929689
   222   1      21.259517794608552      11.703803994187561      4.1710622417765082
   223   2      19.839241576150119      9.1458995195604675      4.7936224469403248
   224   1      19.801025459129761       9.511920652404358      5.7093407485094652
   225   1      20.580059860911266        9.63930820141975      4.3655855478122794
   226   2      18.548863572003654      7.8605613836806727      1.9618210198007922
   227   1      18.148804940091324      8.6434855879328119      1.5138356366900021
   228   1      18.181434800840766      7.1059557344826585      1.4377035307611372
   229   2      22.938781269014545      9.3227404170654076     0.72425214520518622
   230   1      23.003273747022639      10.310676837264145      0.7613052342273241
   231   1      23.688616309771582      8.9561977119722496      1.2447967705769787
   232   2      20.066399925565712      10.870454355475285      1.3587146314310783
   233   1      20.783108469931147      10.858380837703514       2.036883824601734
   234   1      20.188261991384863      10.067118698765437     0.80519749409857688
   235   2      23.084624759591431      12.046251496902389     0.73202083386985251
   236   1      23.001979298551095      12.326200120969109      22.990458940540179
   237   1      22.297045823609213      12.504356446970824      1.1104357247988319
   238   2      20.309760185820551      6.4458100740512121      4.7268053736962923
   239   1      20.192312007794584      7.4296108616203771        4.73009778925395
   240   1      19.564184071103252      6.0878136324888921      4.1978242667221686
   241   2      4.3485614434860436      13.964812113180438      4.1387115998147506
   242   1      3.5292683801129274      13.992551209048377      3.5893726383602642
   243   1      4.2614139547687904      14.685998473452708      4.8122519474465122
   244   2      2.5259619328413625      13.895188940139757      2.0525220954791372
   245   1      1.5411119034405825      13.934586581550414      2.0239208283037029
   246   1      2.8057247677391817      13.087333497317763      1.5729891285073854
   247   2      5.6613544408242653      16.872289113263513       3.508408842380311
   248   1      6.0761345960193287      16.138234208456691      4.0226019362199477
   249   1       6.155350620280756      16.865241031576758      2.6559979687186561
   250   2      2.9846936909126338      16.740258530361622      3.3658710717072942
   251   1      2.5950049671700768      17.517001093834555      3.8212069652496541
   252   1      3.9694326029010165      16.811634068322633       3.438173887447137
   253   2      1.0444569949370031       15.17807571983116      4.7440645812155182
   254   1      1.1785997877730845       14.19975930997138      4.8319060374467862
   255   1      1.8636030924076314      15.525234024188345      4.3195881585146205
   256   2      24.726891371944113      14.014301776735731      1.9953572903311974
   257   1      24.245053849938987      14.104834967302002      2.8516310584645685
   258   1      24.311015531103259      13.213520178034196       1.586863586225203
   259   2      4.2980040115266673      15.595735636333901     0.64423254514720107
   260   1      3.6075638399126917      15.261545623829475      1.2583204507647394
   261   1       3.952874291494227      15.013660679749336      22.977947300618361
   262   2      1.3901840822089959      16.962452635669038      1.1966059259970305
   263   1      2.1393125536881765      16.869785874941769      1.8512803542429586
   264   1       0.605493222422122      17.099532196506551      1.7704887432436813
   265   2      4.3546964878473435      18.428739353664756     0.37506212662766736
   266   1      4.3057271711557608      17.447865676614814     0.41692433178652788
   267   1      3.6273965306486264      18.783211712865459     0.93656064227400937
   268   2      1.5216973996687277      12.422144958106294       4.858787933346699
   269   1     0.77075736269741557      12.021469039888906      4.3499034186532644
   270   1       1.436575510527498      11.973745941694764      5.7347869685664481
   271   2      10.242042262922356      13.964963173944415      4.4103620569352442
   272   1      10.996104088633775      13.912944864362219      3.7706146734853969
   273   1      10.327986106728467      13.170105959543749      4.9851716702494366
   274   2       8.636869344315711      13.662305907316949      1.9113046551795601
   275   1      8.9037385492542871      13.704794864726521      2.8512496601234583
   276   1      7.6392317285527902      13.670656997845786      1.9060002415164565
   277   2      11.895674883944771      16.994303508899161      3.3992871391312685
   278   1      10.925009913911444      17.094871853695889      3.5126742506801976
   279   1      12.320138029448339      17.714361425074866      3.9290250243519891
   280   2      9.0959545530145203       17.07736132117763      3.7810518043040275
   281   1      8.6438614826567477      16.345103608658427      4.2703965113414242
   282   1      8.6236594653266287      17.877984772180323      4.0992307641098913
   283   2      7.3554637816649766      15.284354673263522      4.9815370692278007
   284   1      7.4919416193202908      14.314104701817699      5.0825938578881065
   285   1      7.3153166208562022      15.685061454401907      5.8825179595143222
   286   2      5.9279882251287139      13.652521209715808      1.9618124824742593
   287   1      5.4508461308303788      13.811292882313191      2.8171031605090704
   288   1      5.5790047418545141      14.362531820887293      1.3765394887968776
   289   2      10.516503295296157      15.485905295078682     0.72625199131333107
   290   1      10.425722348060274      16.472403414962635     0.64334691757677909
   291   1      9.6706522951124985      15.155497146941554       1.103989945608326
   292   2      7.5639440036015841      16.771990331106828      1.5063909913458342
   293   1      8.2671894342133232      16.742855048510506      2.1980412717491125
   294   1      7.7571853299768918      17.579857964385283     0.98902010903563475
   295   2      10.112229627323183      18.219849224317503     0.60394456729607127
   296   1      9.6118893521395261      18.891865649710653      1.1506866856167546
   297   1      10.052881847544162      18.569276117669268       22.90260892658069
   298   2      7.7417453039544357       12.50063475848442      5.0715153687445893
   299   1       7.821212693946709      11.994137091659024      5.9143426548649076
   300   1        6.95371655565837      12.111856212246359      4.6339406346534746
   301   2      16.628922898192208      13.893048113028339      4.2658721944543077
   302   1      15.859838099198853      13.813131761462657      3.6549375476451327
   303   1      16.641697393842918      13.066426378907781      4.7964754634537448
   304   2      14.762448722936815      13.934262227575013      2.1597673457540352
   305   1      13.779932435554477       13.80869584344752       2.228851912599831
   306   1      15.103917950137497      13.174191899809873      1.6381578673415704
   307   2      18.006863799958619      16.943391339659769      3.5329242160670118
   308   1      17.028739327196327       16.83436644813057      3.4418778764117373
   309   1      18.327121439554116      16.198293044724789      4.0881604506362752
   310   2       15.24137472595293      16.843969173536646      3.3415090769799023
   311   1      14.822290971326854      16.065936493945756      3.7706597343403767
   312   1      14.845293712829422      17.585236465867663      3.8630640044765081
   313   2      13.593138835761483       15.24216634042177      4.8724444175425097
   314   1      13.658128104375422      14.260930975746858      4.9850361344262719
   315   1      12.794773018843701      15.434858932545845      4.3554981678729758
   316   2      12.011039608477137      13.740008060836221       2.273313692747128
   317   1      11.643329152882595      14.503448735661285       1.731576881469022
   318   1      11.543112985308891      12.919562758412194      1.9237554307013023
   319   2      16.687367832130949      15.448078572529512      0.7588608315653349
   320   1      15.885213039552415      15.193773830271169      1.2658208403877427
   321   1      16.711567555533108      16.434004066998202     0.71747215244435081
   322   2      13.467377746337375      17.214153553316439      1.1572377606916504
   323   1      12.738594518763911      17.082557031178599      1.8193956891030711
   324   1       14.26091142318398      17.185986227520672      1.7363968428265333
   325   2      16.850015288427404      18.181833384416315     0.54967745642567245
   326   1      16.071240307141778      18.682456353119221     0.89952006503189086
   327   1      16.805180965312321      18.449207190511881       22.81083787728064
   328   2       13.70096112453361      12.526454516003806      5.1617226221500951
   329   1      14.404644088055067       12.09622747714559      4.6171698130485117
   330   1      12.889617896038628      12.174955551086175      4.7362610902916291
   331   2      22.785645321574904      13.996587497225972      4.0799308217908372
   332   1      22.047257303770238      13.954289095044532      3.4107739100014438
   333   1      22.621691717733608      14.789793883193855      4.6342734796415286
   334   2      21.184317749835564      13.796532454844057      1.9582139628151152
   335   1      20.200426207302183      13.848776643144339      2.0392428156723241
   336   1      21.482957201681067      14.572821406534667      1.4203622504661502
   337   2      24.347257529244885      16.913461084076697        3.29551201123224
   338   1     -0.2599304195750553      16.132706523777685       3.774884755284897
   339   1      23.367395993947344      16.886304017375796      3.4381054677736653
   340   2      21.500247052495684      16.897134178719941      3.7857718814187522
   341   1      21.071481885608325      17.676585399544187      4.2174178325174267
   342   1      21.060451616178366      16.866432395838988      2.9025004654464737
   343   2       19.56976296538452      15.284760363745745      5.0386326250571338
   344   1      19.647661748797052      14.301881017175894      5.0802207834097555
   345   1      20.357333287670517      15.607947175397554      4.5544508809225261
   346   2      18.418870526450782      13.859687796916402      2.2165289527874341
   347   1      17.944971669948849      14.606988752879881      1.7773803784116069
   348   1      17.989200864597812      13.834353158791618      3.1044033703303038
   349   2       22.82221978407156      15.463420463932863     0.58761206924564602
   350   1      23.615431125315496       15.20631021963492       1.115217283811331
   351   1      22.823549643568821      16.449951409702205     0.53448909968042058
   352   2      19.870052388999014      16.805399668627498      1.5207536256159055
   353   1      19.043516069673338      16.963318145754787      2.0471294079080793
   354   1      19.918410221739919      17.533391983119294     0.86467760335098232
   355   2      22.909647681651702      18.181096248098953     0.51766750615793478
   356   1      23.668880705980548      18.589257312391901     0.99116790085037576
   357   1      22.740874233887379      18.564240785647389      22.822209862005746