LAMMPS (7 Feb 2024 - Update 1)
KOKKOS mode with Kokkos version 4.2.0 is enabled (src/KOKKOS/kokkos.cpp:72)
  will use up to 2 GPU(s) per node
  using 1 OpenMP thread(s) per MPI task
package kokkos
package kokkos newton on neigh half

units		metal						## E in [eV], t in [ps], P in [10000 Pa], l in [A]
atom_style	atomic						## mass x y z vx vy vz

neighbor	0.5 bin						## neighbor list, skin = 0.5 Angstrom
neigh_modify	every 2 delay 10 check yes			## update of neighbor list

############################## main variables
variable        seed equal 43125

variable	temperature equal 295
variable	tempDamp equal 0.1

variable        pressure equal 100
variable        pressureDamp equal 1.0 				# This is 1 ps

##############################

read_data water.dat
Reading data file ...
  orthogonal box = (0 0 0) to (18.207572 23.629178 22.213196)
  1 by 2 by 1 MPI processor grid
  reading atoms ...
  864 atoms
  read_data CPU = 0.010 seconds

mass		1 1.008    # H
mass		2 15.9994  # O


pair_style	pace/extrapolation
ACE/AL version: 2023.11.25
pair_coeff	* * /home/cicn/cicn607503/pd/pot_dir/interim_potential_ladder_step_5.yaml /home/cicn/cicn607503/pd/pot_dir/interim_potential_ladder_step_5.asi H O
Loading /home/cicn/cicn607503/pd/pot_dir/interim_potential_ladder_step_5.yaml
Total number of basis functions
	H: 24 (r=1) 863 (r>1)
	O: 24 (r=1) 863 (r>1)
Mapping LAMMPS atom type #1(H) -> ACE species type #0
Mapping LAMMPS atom type #2(O) -> ACE species type #1
Loading ASI /home/cicn/cicn607503/pd/pot_dir/interim_potential_ladder_step_5.asi
LINEAR ASI is loaded

fix pace_gamma all pair 1000 pace/extrapolation gamma 1
compute max_pace_gamma all reduce max f_pace_gamma
variable dump_skip equal "c_max_pace_gamma < 10"

dump pace_dump all custom 1000 extrapolative_structures.dump id type x y z f_pace_gamma
dump_modify pace_dump skip v_dump_skip
dump_modify pace_dump element H O

variable max_pace_gamma equal c_max_pace_gamma

timestep	0.0005						## timestep = 0.0005*ps = 0.5 fs

thermo		100
thermo_style custom step etotal pe ke press temp vol density c_max_pace_gamma


min_style cg/kk
minimize 0.0 5.0e-4 10000 100000
Switching to 'neigh_modify every 1 delay 0 check yes' setting during minimization
Neighbor list info ...
  update: every = 1 steps, delay = 0 steps, check = yes
  max neighbors/atom: 2000, page size: 100000
  master list distance cutoff = 6.5
  ghost atom cutoff = 6.5
  binsize = 6.5, bins = 3 4 4
  1 neighbor lists, perpetual/occasional/extra = 1 0 0
  (1) pair pace/extrapolation/kk, perpetual
      attributes: full, newton on, kokkos_device
      pair build: full/bin/kk/device
      stencil: full/bin/3d
      bin: kk/device
WARNING: Fix with atom-based arrays not compatible with sending data in Kokkos communication, switching to classic exchange/border communication (src/KOKKOS/comm_kokkos.cpp:666)
WARNING: Fix with atom-based arrays not compatible with Kokkos sorting on device, switching to classic host sorting (src/KOKKOS/atom_kokkos.cpp:218)
Per MPI rank memory allocation (min/avg/max) = 449.3 | 453 | 456.7 Mbytes
   Step         TotEng         PotEng         KinEng         Press           Temp          Volume        Density     c_max_pace_gamma
         0  -4180.2701     -4180.2701      0              309.14185      0              9556.7825      0.90151666     0.58778247   
       100  -4182.3963     -4182.3963      0             -6479.0667      0              9556.7825      0.90151666     0.58778247   
       174  -4182.3964     -4182.3964      0             -6480.3888      0              9556.7825      0.90151666     0.58778247   
Loop time of 0.626474 on 2 procs for 174 steps with 864 atoms

99.0% CPU use with 2 MPI tasks x 1 OpenMP threads

Minimization stats:
  Stopping criterion = force tolerance
  Energy initial, next-to-last, final = 
      -4180.2701144618  -4182.39644829382  -4182.39644830578
  Force two-norm initial, final = 6.6050737 0.00039957885
  Force max component initial, final = 0.28115465 3.2573508e-05
  Final line search alpha, max atom move = 1 3.2573508e-05
  Iterations, force evaluations = 174 348

MPI task timing breakdown:
Section |  min time  |  avg time  |  max time  |%varavg| %total
---------------------------------------------------------------
Pair    | 0.42814    | 0.42971    | 0.43129    |   0.2 | 68.59
Neigh   | 0.00043309 | 0.0004705  | 0.0005079  |   0.0 |  0.08
Comm    | 0.06351    | 0.066685   | 0.069859   |   1.2 | 10.64
Output  | 0.00015664 | 0.00015699 | 0.00015735 |   0.0 |  0.03
Modify  | 0.080166   | 0.082793   | 0.085419   |   0.9 | 13.22
Other   |            | 0.04666    |            |       |  7.45

Nlocal:            432 ave         433 max         431 min
Histogram: 1 0 0 0 0 0 0 0 0 1
Nghost:           2186 ave        2191 max        2181 min
Histogram: 1 0 0 0 0 0 0 0 0 1
Neighs:              0 ave           0 max           0 min
Histogram: 2 0 0 0 0 0 0 0 0 0
FullNghs:        46055 ave       46168 max       45942 min
Histogram: 1 0 0 0 0 0 0 0 0 1

Total # of neighbors = 92110
Ave neighs/atom = 106.6088
Neighbor list builds = 1
Dangerous builds = 0

################## equilibration of main calculation
# Equilibrate to specified number of ice

fix             3 all nph aniso ${pressure} ${pressure} ${pressureDamp}
fix             3 all nph aniso 100 ${pressure} ${pressureDamp}
fix             3 all nph aniso 100 100 ${pressureDamp}
fix             3 all nph aniso 100 100 1
fix             4 all temp/csvr ${temperature} ${temperature} ${tempDamp} ${seed}
fix             4 all temp/csvr 295 ${temperature} ${tempDamp} ${seed}
fix             4 all temp/csvr 295 295 ${tempDamp} ${seed}
fix             4 all temp/csvr 295 295 0.1 ${seed}
fix             4 all temp/csvr 295 295 0.1 43125
velocity 	all create ${temperature} ${seed} dist gaussian
velocity 	all create 295 ${seed} dist gaussian
velocity 	all create 295 43125 dist gaussian

run 200000
WARNING: Fix with atom-based arrays not compatible with sending data in Kokkos communication, switching to classic exchange/border communication (src/KOKKOS/comm_kokkos.cpp:666)
WARNING: Fix with atom-based arrays not compatible with Kokkos sorting on device, switching to classic host sorting (src/KOKKOS/atom_kokkos.cpp:218)
Per MPI rank memory allocation (min/avg/max) = 454.1 | 455.3 | 456.4 Mbytes
   Step         TotEng         PotEng         KinEng         Press           Temp          Volume        Density     c_max_pace_gamma
       174  -4149.4888     -4182.3964      32.907694     -2802.4471      295            9556.7825      0.90151666     0.58778247   
       200  -4147.3589     -4161.4747      14.115766     -2271.7439      126.54034      9553.6252      0.90181459     0.58778247   
       300  -4141.0468     -4161.0214      19.974597     -374.35876      179.06165      9516.0257      0.90537782     0.58778247   
       400  -4134.6359     -4158.347       23.71111      -628.24055      212.55751      9442.1491      0.91246162     0.58778247   
       500  -4130.3069     -4156.1323      25.825379      514.789        231.51081      9341.3584      0.92230682     0.58778247   
       600  -4126.1748     -4153.7608      27.58603       1370.9226      247.29411      9245.2672      0.93189287     0.58778247   
       700  -4122.6713     -4152.25        29.578737      4330.0326      265.15767      9186.9278      0.93781063     0.58778247   
       800  -4122.238      -4151.7046      29.46657       4606.2388      264.15215      9182.3874      0.93827435     0.58778247   
       900  -4119.8456     -4149.7416      29.895949      3988.2733      268.0013       9228.4529      0.93359078     0.58778247   
      1000  -4118.2193     -4149.6891      31.469744     -211.51345      282.10954      9316.5114      0.9247666      0.76620606   
      1100  -4115.7456     -4146.9229      31.177304      1476.8335      279.48798      9429.8092      0.91365567     0.76620606   
      1200  -4114.8591     -4146.1684      31.309326     -2019.3874      280.67148      9545.3916      0.90259247     0.76620606   
      1300  -4113.9085     -4145.5452      31.636623     -157.46008      283.60553      9637.8917      0.8939298      0.76620606   
      1400  -4113.5799     -4146.6717      33.091811     -514.90409      296.65051      9698.4318      0.88834966     0.76620606   
      1500  -4114.1774     -4147.0235      32.846109     -586.76295      294.44792      9726.0569      0.88582646     0.76620606   
      1600  -4113.7158     -4146.6535      32.937655     -3013.5815      295.26858      9724.2339      0.88599253     0.76620606   
      1700  -4113.602      -4146.1805      32.578492     -2540.776       292.04888      9697.1717      0.8884651      0.76620606   
      1800  -4112.355      -4145.8405      33.485547     -1207.056       300.18014      9650.5961      0.89275299     0.76620606   
      1900  -4114.5562     -4147.3552      32.798955     -2359.2247      294.02521      9594.6643      0.89795727     0.76620606   
      2000  -4113.2436     -4146.1119      32.86839      -35.419132      294.64766      9534.2449      0.90364772     0.78503814   
      2100  -4114.0344     -4145.733       31.698544      2240.7494      284.16061      9477.6642      0.9090424      0.78503814   
      2200  -4113.6243     -4146.2476      32.623346      2316.5194      292.45098      9435.5019      0.91310443     0.78503814   
      2300  -4114.0795     -4146.528       32.448455      130.94976      290.88317      9419.2014      0.91468462     0.78503814   
      2400  -4115.1773     -4146.7521      31.574799     -428.4026       283.05131      9425.841       0.9140403      0.78503814   
      2500  -4115.4975     -4146.5951      31.09754      -792.05599      278.77293      9448.6904      0.91182991     0.78503814   
      2600  -4113.8892     -4147.6756      33.786378      898.16692      302.87694      9481.1571      0.9087075      0.78503814   
      2700  -4113.9907     -4148.0508      34.060157      48.086866      305.33122      9522.7876      0.90473493     0.78503814   
      2800  -4114.0707     -4146.2428      32.172101      2698.0285      288.4058       9568.4603      0.9004164      0.78503814   
      2900  -4113.5073     -4146.0603      32.553025     -4254.5856      291.82058      9611.0063      0.89643044     0.78503814   
      3000  -4111.4649     -4145.0887      33.623734     -1912.074       301.41892      9640.5133      0.8936867      0.8480026    
      3100  -4111.839      -4145.1707      33.331641     -1431.7441      298.80046      9656.0412      0.89224957     0.8480026    
      3200  -4111.5115     -4145.5939      34.082429      169.97598      305.53087      9658.5549      0.89201736     0.8480026    
      3300  -4111.9916     -4144.7057      32.714128     -548.36801      293.26478      9649.7566      0.89283066     0.8480026    
      3400  -4112.12       -4144.6326      32.512606      958.84937      291.45824      9629.7418      0.89468636     0.8480026    
      3500  -4112.6638     -4146.0363      33.372522     -1799.6418      299.16693      9600.6236      0.89739989     0.8480026    
      3600  -4111.7146     -4145.6304      33.915859     -1568.2613      304.03767      9563.6899      0.90086553     0.8480026    
      3700  -4112.2075     -4145.7273      33.51975       2618.4944      300.48676      9528.8528      0.90415906     0.8480026    
      3800  -4112.13       -4145.561       33.430986      1084.858       299.69103      9501.8174      0.90673165     0.8480026    
      3900  -4112.9803     -4146.3137      33.33339      -1050.9844      298.81613      9482.7813      0.90855186     0.8480026    
      4000  -4114.495      -4147.3664      32.871319     -601.1936       294.67392      9478.0211      0.90900816     0.86082593   
      4100  -4113.4874     -4145.0781      31.59072      -37.950763      283.19403      9484.8067      0.90835785     0.86082593   
      4200  -4112.8899     -4145.8264      32.93649       236.35264      295.25814      9504.9267      0.90643504     0.86082593   
      4300  -4112.2488     -4146.4845      34.235703      948.33928      306.90489      9539.0268      0.90319471     0.86082593   
      4400  -4110.2849     -4145.5485      35.263618     -1406.3805      316.11961      9583.5607      0.89899765     0.86082593   
      4500  -4109.7344     -4142.9709      33.236511      2212.927       297.94767      9631.3926      0.89453301     0.86082593   
      4600  -4112.1354     -4145.0588      32.923375     -1806.3628      295.14057      9677.5023      0.89027089     0.86082593   
      4700  -4111.865      -4146.0045      34.139451     -1203.7596      306.04205      9712.6264      0.88705137     0.86082593   
      4800  -4113.1554     -4146.6822      33.526834     -3176.8849      300.55026      9725.2282      0.88590195     0.86082593   
      4900  -4113.1639     -4146.0726      32.90864      -4098.2185      295.00848      9711.8049      0.88712641     0.86082593   
      5000  -4112.6189     -4145.3344      32.715474      302.73782      293.27685      9668.597       0.89109088     0.88399669   
      5100  -4113.5758     -4145.8723      32.296523     -701.50102      289.52118      9605.5597      0.89693874     0.88399669   
      5200  -4112.6028     -4147.202       34.599264      761.59861      310.16403      9530.1451      0.90403645     0.88399669   
      5300  -4113.1685     -4147.1655      33.997009      1864.3312      304.76513      9459.2156      0.91081533     0.88399669   
      5400  -4113.2481     -4145.6229      32.37481       4002.9849      290.22297      9402.0119      0.91635691     0.88399669   
      5500  -4112.6101     -4146.1248      33.514716      2824.7077      300.44163      9369.7988      0.91950732     0.88399669   
      5600  -4112.3518     -4144.8457      32.493906      1611.9723      291.29061      9370.1942      0.91946852     0.88399669   
      5700  -4113.6024     -4146.9953      33.392919      1536.8561      299.34979      9401.6112      0.91639596     0.88399669   
      5800  -4112.5404     -4147.2538      34.713403      1690.2484      311.18722      9460.0079      0.91073905     0.88399669   
      5900  -4111.9673     -4144.5373      32.570064      1090.2609      291.97333      9541.4372      0.90296655     0.88399669   
      6000  -4111.4923     -4144.8984      33.406048     -1281.5267      299.46748      9632.393       0.89444011     0.85668706   
      6100  -4112.0645     -4146.0477      33.983226     -2984.201       304.64157      9713.7305      0.88695055     0.85668706   
      6200  -4113.077      -4145.8877      32.810689     -3575.8341      294.1304       9765.7333      0.88222752     0.85668706   
      6300  -4111.2065     -4144.3695      33.162985     -710.43003      297.28855      9781.0665      0.8808445      0.85668706   
      6400  -4110.5689     -4145.0831      34.514243      505.57558      309.40186      9759.4858      0.88279227     0.85668706   
      6500  -4110.7818     -4145.1972      34.4154       -96.898556      308.51579      9708.417       0.88743598     0.85668706   
      6600  -4111.9872     -4145.974       33.98682      -860.1307       304.67379      9637.2278      0.89399138     0.85668706   
      6700  -4111.7617     -4145.4828      33.72106      -370.26862      302.2914       9558.5226      0.90135253     0.85668706   
      6800  -4111.1392     -4144.5951      33.455945      1698.2463      299.91478      9486.3919      0.90820606     0.85668706   
      6900  -4111.6699     -4145.3254      33.65557      -471.18102      301.70431      9428.9794      0.91373607     0.85668706   
      7000  -4112.3154     -4147.3218      35.006393      3467.3855      313.81372      9396.3646      0.91690765     0.76043213   
      7100  -4112.7315     -4146.1162      33.384662      679.65782      299.27577      9392.7126      0.91726415     0.76043213   
      7200  -4114.1812     -4147.8949      33.713619      430.37519      302.22469      9419.4217      0.91466322     0.76043213   
      7300  -4114.1329     -4146.7272      32.594337      3249.2942      292.19092      9471.5782      0.90962651     0.76043213   
      7400  -4114.1781     -4146.2052      32.027089     -1422.8302      287.10584      9540.3873      0.90306592     0.76043213   
      7500  -4115.5215     -4147.7916      32.270072     -1043.0965      289.28406      9610.8988      0.89644047     0.76043213   
      7600  -4116.5322     -4147.7803      31.248065     -684.63674      280.1223       9668.2127      0.8911263      0.76043213   
      7700  -4116.9579     -4148.8844      31.926475     -1436.0778      286.20389      9704.1504      0.88782616     0.76043213   
      7800  -4115.3555     -4146.6333      31.277838     -381.34008      280.38921      9713.3156      0.88698843     0.76043213   
      7900  -4114.3689     -4146.2301      31.861249     -1347.4468      285.61917      9700.1823      0.88818934     0.76043213   
      8000  -4113.2456     -4145.2748      32.029132     -2055.7315      287.12415      9669.2564      0.89103011     0.82207258   
      8100  -4113.748      -4146.529       32.780913     -2108.9543      293.86348      9629.9168      0.8946701      0.82207258   
      8200  -4114.0383     -4146.6582      32.61992       3459.6706      292.42025      9587.823       0.898598       0.82207258   
      8300  -4112.9619     -4145.9799      33.018004      2428.4089      295.98887      9548.3723      0.90231071     0.82207258   
      8400  -4114.5456     -4147.1658      32.620209     -1737.6994      292.42285      9516.4168      0.90534061     0.82207258   
      8500  -4114.9725     -4147.3982      32.425791      406.79023      290.68         9492.6837      0.9076041      0.82207258   
      8600  -4114.0237     -4148.2491      34.225478     -789.02883      306.81323      9485.3714      0.90830377     0.82207258   
      8700  -4115.2581     -4147.0661      31.807913      3558.8039      285.14105      9492.1558      0.90765457     0.82207258   
      8800  -4114.9947     -4147.1154      32.120712      21.509113      287.94512      9511.3171      0.90582603     0.82207258   
      8900  -4114.119      -4146.3745      32.255587     -2227.8302      289.15421      9535.9269      0.90348832     0.82207258   
      9000  -4115.4145     -4145.8503      30.435755     -1971.0145      272.84038      9563.061       0.90092477     0.77438196   
      9100  -4116.8842     -4148.1102      31.226003     -1385.5744      279.92454      9587.5773      0.89862103     0.77438196   
      9200  -4116.7315     -4148.644       31.912487     -1046.2695      286.0785       9604.6632      0.89702246     0.77438196   
      9300  -4116.0097     -4148.9871      32.977415     -1893.1646      295.62501      9610.4452      0.89648277     0.77438196   
      9400  -4115.9006     -4147.4589      31.558297      311.47752      282.90337      9604.8077      0.89700896     0.77438196   
      9500  -4115.4439     -4148.2451      32.801264      1678.2753      294.04591      9589.7553      0.89841694     0.77438196   
      9600  -4114.1236     -4147.5344      33.410812      1145.9327      299.51018      9571.1071      0.9001674      0.77438196   
      9700  -4114.3112     -4147.6517      33.340535      924.57658      298.88019      9555.528       0.90163501     0.77438196   
      9800  -4113.9463     -4147.1042      33.157889     -1702.965       297.24286      9543.8248      0.90274065     0.77438196   
      9900  -4113.5597     -4146.0908      32.531009      2197.3233      291.62322      9535.2388      0.90355352     0.77438196   
     10000  -4112.9219     -4146.7374      33.815475      2169.8446      303.13778      9535.8688      0.90349383     0.81523445   
     10100  -4113.4619     -4145.9492      32.487301     -3770.6751      291.2314       9540.3405      0.90307035     0.81523445   
     10200  -4113.8883     -4147.5638      33.675461     -2973.462       301.88262      9546.5807      0.90248005     0.81523445   
     10300  -4114.8086     -4147.4147      32.606141      2694.2623      292.29674      9557.3812      0.90146018     0.81523445   
     10400  -4115.0386     -4146.9464      31.907735      249.67504      286.0359       9575.8007      0.89972618     0.81523445   
     10500  -4114.8054     -4147.1224      32.317018      192.38629      289.70491      9596.3076      0.89780351     0.81523445   
     10600  -4114.4845     -4146.3118      31.827286      362.25405      285.31472      9613.1231      0.89623304     0.81523445   
     10700  -4115.2002     -4146.7903      31.590174      43.155938      283.18913      9624.3951      0.89518339     0.81523445   
     10800  -4113.2611     -4147.0897      33.828567     -492.6502       303.25514      9629.7911      0.89468177     0.81523445   
     10900  -4113.1335     -4146.0336      32.900171     -1488.9536      294.93256      9628.2535      0.89482465     0.81523445   
     11000  -4111.2085     -4145.0527      33.844175     -63.125682      303.39506      9620.7556      0.89552203     0.88684776   
     11100  -4112.429      -4145.2721      32.843069      302.89256      294.42067      9616.0556      0.89595973     0.88684776   
     11200  -4113.9486     -4145.9127      31.964076     -185.67495      286.54097      9606.1672      0.89688201     0.88684776   
     11300  -4114.2683     -4146.1938      31.925471      485.07778      286.1949       9585.7689      0.89879056     0.88684776   
     11400  -4114.8644     -4146.2667      31.402303     -2098.097       281.50497      9555.6315      0.90162524     0.88684776   
     11500  -4115.2632     -4147.5206      32.257461      992.79452      289.17101      9520.5206      0.90495036     0.88684776   
     11600  -4114.9531     -4147.5974      32.644252      3003.6584      292.63838      9487.1758      0.90813102     0.88684776   
     11700  -4113.4629     -4147.3185      33.855603      2016.5826      303.4975       9462.5341      0.91049591     0.88684776   
     11800  -4113.7587     -4148.1192      34.360532     -1719.6357      308.02392      9455.7297      0.91115111     0.88684776   
     11900  -4114.2355     -4146.2939      32.058393     -466.0491       287.38646      9468.4701      0.90992509     0.88684776   
     12000  -4113.3757     -4147.2494      33.873687      1108.9913      303.65962      9501.0983      0.90680028     0.82217368   
     12100  -4113.3028     -4145.9764      32.673584     -570.15589      292.90132      9546.6199      0.90247634     0.82217368   
     12200  -4114.3234     -4147.1703      32.846941     -346.5436       294.45538      9595.4803      0.89788091     0.82217368   
     12300  -4113.7955     -4147.1555      33.359968     -1180.6094      299.05439      9638.6915      0.89385562     0.82217368   
     12400  -4113.8788     -4146.2287      32.34988       2070.2401      289.9995       9668.8644      0.89106623     0.82217368   
     12500  -4115.5667     -4146.8097      31.242976     -1619.0973      280.07669      9682.0589      0.88985191     0.82217368   
     12600  -4114.8677     -4146.2222      31.354504     -1688.4207      281.07648      9670.536       0.89091221     0.82217368   
     12700  -4113.5424     -4146.1063      32.563887     -3184.489       291.91796      9638.2321      0.89389822     0.82217368   
     12800  -4113.4301     -4147.1311      33.701018      419.31236      302.11173      9597.0065      0.89773812     0.82217368   
     12900  -4112.9553     -4144.9647      32.009371     -323.91612      286.94701      9556.3108      0.90156115     0.82217368   
     13000  -4111.5959     -4145.1581      33.56222       3136.7987      300.86748      9523.0622      0.90470884     0.82048664   
     13100  -4112.028      -4144.9829      32.954899      720.20315      295.42317      9498.5351      0.90704498     0.82048664   
     13200  -4114.2829     -4147.1093      32.826463      1917.0287      294.27181      9487.311       0.90811807     0.82048664   
     13300  -4113.5793     -4145.9558      32.376421      1451.7002      290.23742      9489.8189      0.90787808     0.82048664   
     13400  -4113.9299     -4147.4724      33.542534      1281.797       300.691        9506.9881      0.9062385      0.82048664   
     13500  -4115.5814     -4147.8292      32.247824      1635.8586      289.08462      9532.74        0.90379037     0.82048664   
     13600  -4115.0106     -4148.1049      33.094241      838.29882      296.6723       9560.7342      0.90114404     0.82048664   
     13700  -4114.0541     -4146.0908      32.036653     -1178.467       287.19158      9578.9422      0.89943111     0.82048664   
     13800  -4113.0528     -4145.9199      32.86713      -2127.5735      294.63636      9590.0152      0.89839259     0.82048664   
     13900  -4112.4741     -4146.3465      33.872371     -255.43099      303.64781      9591.9663      0.89820985     0.82048664   
     14000  -4113.6299     -4146.695       33.065154     -119.15384      296.41154      9585.41        0.89882421     0.84032329   
     14100  -4114.6729     -4148.7444      34.071508     -38.677827      305.43297      9571.7145      0.90011028     0.84032329   
     14200  -4113.5912     -4147.0043      33.413086      48.579221      299.53057      9553.308       0.90184453     0.84032329   
     14300  -4114.0249     -4147.148       33.123144      217.67949      296.9314       9537.3612      0.90335245     0.84032329   
     14400  -4114.3141     -4147.4236      33.109578      2829.1555      296.80978      9526.0766      0.90442256     0.84032329   
     14500  -4114.8703     -4147.2201      32.349812     -1572.7905      289.99888      9518.0568      0.90518462     0.84032329   
     14600  -4113.4575     -4146.3319      32.874394     -5.1086867      294.70148      9511.7976      0.90578027     0.84032329   
     14700  -4113.1973     -4146.67        33.472687      1345.6107      300.06486      9509.6362      0.90598614     0.84032329   
     14800  -4113.0392     -4147.5141      34.474868      1765.3443      309.04888      9515.7462      0.90540441     0.84032329   
     14900  -4113.6809     -4146.016       32.335082      1260.2828      289.86684      9529.7323      0.90407562     0.84032329   
     15000  -4113.812      -4145.9915      32.179538      1960.3648      288.47247      9545.1979      0.90261079     0.77839002   
     15100  -4114.0099     -4146.2284      32.218443      2174.6479      288.82123      9563.4929      0.90088408     0.77839002   
     15200  -4113.6396     -4146.2919      32.652266     -1731.6529      292.71022      9582.4962      0.89909752     0.77839002   
     15300  -4112.28       -4146.0637      33.783697     -182.76444      302.8529       9601.3277      0.89733408     0.77839002   
     15400  -4112.4163     -4146.3743      33.95802       714.02145      304.41562      9619.1294      0.89567342     0.77839002   
     15500  -4112.0299     -4144.4605      32.430603     -1257.421       290.72314      9634.348       0.8942586      0.77839002   
     15600  -4112.0674     -4146.5118      34.444418      12.168387      308.77591      9645.5015      0.89322453     0.77839002   
     15700  -4112.1956     -4145.7327      33.537049     -2701.5728      300.64183      9647.7224      0.89301891     0.77839002   
     15800  -4112.7205     -4145.2769      32.556342     -1026.6155      291.85032      9640.8051      0.89365966     0.77839002   
     15900  -4111.8848     -4145.3968      33.512009     -455.86379      300.41736      9625.2338      0.89510538     0.77839002   
     16000  -4113.5684     -4144.932       31.363557      905.95063      281.15763      9606.8769      0.89681576     0.831379     
     16100  -4112.9458     -4146.6729      33.727017     -2334.9343      302.34479      9594.3009      0.89799129     0.831379     
     16200  -4113.3929     -4146.7692      33.376271     -158.8892       299.20054      9581.2772      0.89921191     0.831379     
     16300  -4113.9871     -4146.8753      32.88821      -119.55679      294.82534      9564.3448      0.90080385     0.831379     
     16400  -4111.7072     -4145.0882      33.380992      625.60919      299.24287      9545.2966      0.90260145     0.831379     
     16500  -4112.3863     -4145.8843      33.498006     -1404.8459      300.29184      9532.0399      0.90385674     0.831379     
     16600  -4112.9836     -4145.338       32.35443       508.36734      290.04029      9528.756       0.90416824     0.831379     
     16700  -4110.8804     -4145.4754      34.594978      1729.0244      310.12561      9532.6471      0.90379917     0.831379     
     16800  -4110.3441     -4145.3015      34.957373      1658.1222      313.37429      9548.4173      0.90230646     0.831379     
     16900  -4111.2304     -4144.9246      33.694176     -2067.9392      302.05039      9578.9027      0.89943482     0.831379     
     17000  -4110.1052     -4143.9149      33.809665      1437.8488      303.08569      9616.326       0.89593454     0.84444028   
     17100  -4111.319      -4144.7335      33.414495      173.99369      299.5432       9655.1159      0.89233508     0.84444028   
     17200  -4111.5079     -4145.0295      33.521579     -2537.0131      300.50316      9684.9315      0.88958797     0.84444028   
     17300  -4113.0445     -4146.0457      33.00124      -704.38154      295.83859      9700.3757      0.88817164     0.84444028   
     17400  -4113.876      -4146.5048      32.628816     -127.34506      292.5          9696.7503      0.88850371     0.84444028   
     17500  -4113.92       -4147.2946      33.374555     -3024.273       299.18516      9671.3533      0.89083692     0.84444028   
     17600  -4114.034      -4146.6077      32.573648      1540.2774      292.00546      9627.005       0.8949407      0.84444028   
     17700  -4112.8521     -4146.4587      33.606603      1375.8484      301.26534      9573.3629      0.89995529     0.84444028   
     17800  -4111.9747     -4146.8235      34.848858     -695.45625      312.40151      9525.4531      0.90448176     0.84444028   
     17900  -4112.9503     -4145.8048      32.854494      1171.56        294.52309      9490.9982      0.90776527     0.84444028   
     18000  -4112.9784     -4146.6825      33.704056      2680.6263      302.13896      9471.9875      0.9095872      0.75433507   
     18100  -4112.7214     -4146.2881      33.566647      2533.8347      300.90716      9471.9661      0.90958926     0.75433507   
     18200  -4112.568      -4145.1133      32.545308      1242.6456      291.7514       9492.1544      0.90765471     0.75433507   
     18300  -4112.3891     -4146.4854      34.096282     -963.50494      305.65506      9526.7746      0.9043563      0.75433507   
     18400  -4112.9814     -4146.3133      33.331922      4071.5844      298.80298      9568.2322      0.90043786     0.75433507   
     18500  -4113.7137     -4146.6198      32.906025      2390.6768      294.98504      9615.0122      0.89605696     0.75433507   
     18600  -4113.0763     -4146.1888      33.112551     -2606.7112      296.83644      9652.5556      0.89257177     0.75433507   
     18700  -4113.3261     -4145.0898      31.763607     -1406.1111      284.74387      9672.8288      0.89070104     0.75433507   
     18800  -4114.5234     -4146.5891      32.065743     -278.06353      287.45235      9674.8868      0.89051157     0.75433507   
     18900  -4113.9575     -4146.5369      32.579384      1092.2237      292.05687      9657.8618      0.89208137     0.75433507   
     19000  -4112.2362     -4145.5687      33.332494     -651.46083      298.80811      9627.9206      0.89485559     0.81775104   
     19100  -4111.4398     -4144.4618      33.021926     -3985.4802      296.02403      9593.1017      0.89810354     0.81775104   
     19200  -4111.5541     -4146.2755      34.721469      147.23493      311.25953      9558.6124      0.90134407     0.81775104   
     19300  -4111.7438     -4145.0507      33.306953      1359.261       298.57914      9529.2702      0.90411945     0.81775104   
     19400  -4111.0686     -4146.3464      35.277812      2363.3411      316.24685      9512.1255      0.90574905     0.81775104   
     19500  -4113.5556     -4146.4548      32.899265      1935.3094      294.92444      9508.5362      0.90609095     0.81775104   
     19600  -4114.2528     -4147.4394      33.186594     -882.72153      297.50019      9511.9846      0.90576246     0.81775104   
     19700  -4114.9139     -4146.2672      31.353329      2473.977       281.06595      9515.6131      0.90541707     0.81775104   
     19800  -4115.2824     -4147.1456      31.863154     -23.533392      285.63625      9519.8426      0.90501481     0.81775104   
     19900  -4114.6685     -4147.3015      32.633001     -274.87251      292.53752      9525.4275      0.90448419     0.81775104   
     20000  -4113.3623     -4146.5095      33.147177     -526.04642      297.14684      9534.6701      0.90360741     0.77718873   
     20100  -4113.3037     -4147.1997      33.895945     -741.28911      303.85914      9550.0324      0.90215386     0.77718873   
     20200  -4112.7247     -4145.3836      32.658966     -1635.9329      292.77029      9566.894       0.90056382     0.77718873   
     20300  -4112.0399     -4144.8746      32.834677     -2652.0739      294.34544      9583.5311      0.89900043     0.77718873   
     20400  -4112.6073     -4144.9598      32.352498      1369.2557      290.02296      9598.5179      0.89759676     0.77718873   
     20500  -4114.0502     -4146.3332      32.282993     -298.38901      289.39989      9609.9496      0.896529       0.77718873   
     20600  -4113.4596     -4147.148       33.688355      444.15929      301.99821      9616.6358      0.89590568     0.77718873   
     20700  -4113.0399     -4147.0368      33.996938     -118.09874      304.76449      9612.7003      0.89627247     0.77718873   
     20800  -4113.8875     -4146.605       32.717558      995.78591      293.29553      9599.0916      0.89754312     0.77718873   
     20900  -4114.084      -4146.6565      32.572575     -1340.3133      291.99583      9578.2316      0.89949784     0.77718873   
     21000  -4113.5496     -4146.1971      32.64754       925.65534      292.66786      9556.0594      0.90158487     0.79297493   
     21100  -4112.4999     -4146.0772      33.577269     -640.18967      301.00238      9533.2059      0.9037462      0.79297493   
     21200  -4111.0649     -4145.0292      33.964308     -1916.1976      304.47198      9512.0873      0.90575269     0.79297493   
     21300  -4111.9082     -4145.4445      33.536258     -2905.9657      300.63474      9498.9159      0.90700862     0.79297493   
     21400  -4113.0633     -4146.7657      33.702396      585.5487       302.12408      9495.0337      0.90737946     0.79297493   
     21500  -4113.4747     -4146.2722      32.79751       244.00352      294.01226      9501.4352      0.90676813     0.79297493   
     21600  -4113.8918     -4147.2656      33.373797     -1198.0174      299.17837      9518.1427      0.90517644     0.79297493   
     21700  -4113.7218     -4147.454       33.732269     -494.31076      302.39188      9542.1736      0.90289686     0.79297493   
     21800  -4113.425      -4146.5728      33.147791      1043.1632      297.15234      9566.9999      0.90055385     0.79297493   
     21900  -4113.4784     -4146.2022      32.723821      353.71416      293.35168      9589.7104      0.89842115     0.79297493   
     22000  -4113.206      -4145.721       32.514954      1011.228       291.47929      9606.661       0.89683591     0.78025845   
     22100  -4112.4777     -4146.5203      34.042582      36.075661      305.17367      9617.1915      0.89585391     0.78025845   
     22200  -4113.0558     -4146.278       33.222288     -665.59732      297.82017      9622.4241      0.89536675     0.78025845   
     22300  -4113.9022     -4146.0835      32.181302     -539.10085      288.48828      9612.3256      0.89630741     0.78025845   
     22400  -4113.6496     -4146.1216      32.471953      1126.098       291.09382      9583.8967      0.89896614     0.78025845   
     22500  -4112.1315     -4145.6619      33.530395      585.41561      300.58218      9544.0425      0.90272005     0.78025845   
     22600  -4112.2326     -4145.8887      33.656019      3814.0177      301.70834      9498.4414      0.90705393     0.78025845   
     22700  -4112.538      -4146.1798      33.641835      1127.0925      301.58119      9457.3067      0.91099918     0.78025845   
     22800  -4113.2552     -4147.1057      33.850522      588.2234       303.45195      9427.9414      0.91383667     0.78025845   
     22900  -4113.1495     -4146.9639      33.814403     -2422.2508      303.12817      9417.6747      0.9148329      0.78025845   
     23000  -4113.3011     -4144.6583      31.357202      617.73008      281.10066      9430.9361      0.91354649     0.77979702   
     23100  -4112.9646     -4145.7439      32.779333      1278.2481      293.84931      9470.1192      0.90976665     0.77979702   
     23200  -4114.1636     -4147.035       32.871361     -922.919        294.6743       9524.0424      0.90461573     0.77979702   
     23300  -4115.6569     -4147.3569      31.699983      144.93592      284.17351      9578.0819      0.89951189     0.77979702   
     23400  -4115.416      -4148.0791      32.663103     -2131.5444      292.80738      9625.3896      0.8950909      0.77979702   
     23500  -4114.3879     -4146.7465      32.358602      319.90195      290.07768      9652.7523      0.89255358     0.77979702   
     23600  -4115.4641     -4147.6522      32.188074     -1934.5062      288.54899      9658.6935      0.89200455     0.77979702   
     23700  -4116.0861     -4147.6407      31.554599     -1932.4621      282.87023      9639.6066      0.89377076     0.77979702   
     23800  -4115.0375     -4147.6705      32.633021      2553.6964      292.5377       9597.0785      0.89773139     0.77979702   
     23900  -4115.5963     -4146.9641      31.36778       2871.022       281.19549      9543.0035      0.90281835     0.77979702   
     24000  -4115.9026     -4147.8464      31.94387       1307.8347      286.35983      9489.9008      0.90787025     0.76093182   
     24100  -4115.5201     -4148.5133      32.993238      2061.3906      295.76686      9445.5268      0.91213532     0.76093182   
     24200  -4114.6469     -4146.2928      31.645868     -1372.9199      283.6884       9421.7714      0.91443511     0.76093182   
     24300  -4114.946      -4147.0924      32.146404     -889.85636      288.17544      9419.8308      0.9146235      0.76093182   
     24400  -4116.0287     -4147.1801      31.151374      1240.365       279.25552      9432.671       0.91337847     0.76093182   
     24500  -4115.1076     -4146.3528      31.245137     -1641.1947      280.09606      9457.7676      0.91095478     0.76093182   
     24600  -4115.3961     -4147.71        32.313876      2513.0828      289.67674      9496.2229      0.90726583     0.76093182   
     24700  -4116.3237     -4148.4898      32.166116     -279.96011      288.35215      9540.6         0.90304578     0.76093182   
     24800  -4116.1985     -4149.4258      33.227242      459.82901      297.86458      9585.9268      0.89877576     0.76093182   
     24900  -4115.3002     -4147.9019      32.601658      2649.1823      292.25655      9620.0793      0.89558499     0.76093182   
     25000  -4115.4618     -4148.3553      32.893533      1475.1313      294.87305      9636.289       0.89407848     0.80188632   
     25100  -4114.223      -4146.7399      32.516931     -1908.2928      291.49702      9630.1572      0.89464777     0.80188632   
     25200  -4114.6339     -4145.0478      30.41385       236.39417      272.64401      9604.6896      0.89701999     0.80188632   
     25300  -4114.3057     -4146.3666      32.060868     -1730.9028      287.40865      9566.2311      0.90062622     0.80188632   
     25400  -4114.2465     -4148.2215      33.975011     -1669.4262      304.56793      9527.1606      0.90431965     0.80188632   
     25500  -4113.6948     -4145.8401      32.145271      1758.6495      288.16528      9489.7357      0.90788604     0.80188632   
     25600  -4113.0372     -4145.7108      32.673581     -524.79134      292.9013       9460.8826      0.91065484     0.80188632   
     25700  -4114.3134     -4146.2398      31.926387     -2579.0598      286.2031       9449.2934      0.91177173     0.80188632   
     25800  -4115.4822     -4147.2378      31.75562       1391.8686      284.67227      9453.0264      0.91141167     0.80188632   
     25900  -4115.3323     -4149.039       33.706695      2143.0437      302.16262      9467.4914      0.91001916     0.80188632   
     26000  -4115.4252     -4146.6536      31.228449      961.65041      279.94646      9489.1397      0.90794307     0.78693011   
     26100  -4116.6078     -4148.8745      32.266669      833.05356      289.25355      9515.8364      0.90539582     0.78693011   
     26200  -4115.6987     -4148.0987      32.400001     -171.10012      290.4488       9539.2553      0.90317308     0.78693011   
     26300  -4115.705      -4146.5449      30.839906     -128.25442      276.46338      9555.8585      0.90160382     0.78693011   
     26400  -4115.0387     -4148.0706      33.031923     -455.19458      296.11365      9569.8482      0.90028581     0.78693011   
     26500  -4114.731      -4147.0798      32.348757      386.69646      289.98942      9577.8681      0.89953198     0.78693011   
     26600  -4115.9404     -4147.9845      32.044101     -4897.5858      287.25835      9582.2262      0.89912286     0.78693011   
     26700  -4114.7912     -4146.5688      31.777589      1859.0352      284.8692       9575.5916      0.89974583     0.78693011   
     26800  -4115.0384     -4147.5131      32.474709     -1892.0333      291.11852      9561.565       0.90106574     0.78693011   
     26900  -4115.6774     -4148.0351      32.357782     -259.91636      290.07033      9542.3261      0.90288243     0.78693011   
     27000  -4115.3771     -4147.7202      32.343166     -1077.8887      289.93931      9522.0492      0.90480509     0.80489346   
     27100  -4114.8598     -4146.6893      31.82943      -98.642891      285.33394      9504.931       0.90643463     0.80489346   
     27200  -4114.4042     -4145.9411      31.536903      973.91553      282.71159      9493.6101      0.90751553     0.80489346   
     27300  -4113.5797     -4146.0406      32.460963      1269.0822      290.9953       9489.907       0.90786965     0.80489346   
     27400  -4113.6609     -4146.5835      32.92252      -1635.813       295.1329       9496.1303      0.90727468     0.80489346   
     27500  -4113.6681     -4146.5282      32.860082      117.54775      294.57318      9506.4326      0.90629145     0.80489346   
     27600  -4112.7831     -4146.4222      33.639082      1228.3255      301.55651      9523.2391      0.90469204     0.80489346   
     27700  -4114.1365     -4147.0362      32.899722      462.58923      294.92853      9549.2727      0.90222563     0.80489346   
     27800  -4114.3879     -4146.3726      31.984729      499.97114      286.72611      9577.0277      0.89961091     0.80489346   
     27900  -4112.8163     -4145.5512      32.734925      892.13637      293.45122      9603.2334      0.89715601     0.80489346   
     28000  -4112.7851     -4146.4225      33.637371     -1342.5401      301.54117      9625.7715      0.89505538     0.93673196   
     28100  -4112.5362     -4146.1484      33.612134     -901.03094      301.31493      9634.0439      0.89428683     0.93673196   
     28200  -4111.8413     -4144.6542      32.812931      1818.51        294.1505       9630.6951      0.8945978      0.93673196   
     28300  -4112.0309     -4145.2846      33.253713      1128.1856      298.10187      9616.4573      0.8959223      0.93673196   
     28400  -4112.912      -4146.0618      33.149834     -426.86456      297.17066      9593.2609      0.89808863     0.93673196   
     28500  -4114.5631     -4147.6299      33.066749     -1701.3432      296.42585      9569.3002      0.90033737     0.93673196   
     28600  -4114.1886     -4146.6028      32.414225      2923.3675      290.57632      9545.3263      0.90259865     0.93673196   
     28700  -4115.0579     -4147.6868      32.628883     -1262.2497      292.5006       9520.88        0.90491621     0.93673196   
     28800  -4115.7288     -4146.9069      31.17816       2801.8566      279.49565      9495.7262      0.90731329     0.93673196   
     28900  -4115.7383     -4147.626       31.887695      183.36324      285.85625      9480.853       0.90873665     0.93673196   
     29000  -4115.5763     -4148.1778      32.601521     -1707.2018      292.25532      9479.5548      0.9088611      0.82442526   
     29100  -4115.367      -4147.5329      32.165962      1059.7111      288.35077      9490.0056      0.90786022     0.82442526   
     29200  -4114.2245     -4145.8564      31.631906      1172.0822      283.56324      9512.3223      0.9057303      0.82442526   
     29300  -4115.0439     -4147.8411      32.797205      2758.7125      294.00952      9542.3055      0.90288438     0.82442526   
     29400  -4113.211      -4146.5351      33.324135      1792.0286      298.73317      9573.4261      0.89994935     0.82442526   
     29500  -4111.9077     -4146.7385      34.830824     -1985.7455      312.23984      9607.7644      0.89673292     0.82442526   
     29600  -4111.3186     -4144.5559      33.23721       700.08987      297.95393      9633.5645      0.89433133     0.82442526   
     29700  -4111.2453     -4145.4282      34.18295       1315.8295      306.43199      9651.4639      0.89267273     0.82442526   
     29800  -4112.2821     -4146.8638      34.58169      -995.25273      310.00649      9659.9911      0.89188473     0.82442526   
     29900  -4112.6662     -4146.1005      33.434286     -1349.2145      299.72062      9659.4384      0.89193577     0.82442526   
     30000  -4112.2419     -4145.3778      33.135904     -1635.8984      297.04578      9649.3204      0.89287102     0.85956509   
     30100  -4113.3469     -4145.2092      31.862312      1609.4994      285.62871      9633.8126      0.8943083      0.85956509   
     30200  -4113.4811     -4146.1976      32.716582      878.14278      293.28678      9614.3191      0.89612156     0.85956509   
     30300  -4114.0669     -4145.93        31.863065     -2267.6206      285.63545      9585.0983      0.89885344     0.85956509   
     30400  -4114.6758     -4146.7285      32.052653      929.2066       287.33501      9549.9013      0.90216624     0.85956509   
     30500  -4113.1904     -4147.5488      34.358359      1056.2076      308.00444      9518.6442      0.90512875     0.85956509   
     30600  -4112.9686     -4147.2504      34.281842      74.879354      307.3185       9500.5898      0.90684882     0.85956509   
     30700  -4112.9735     -4145.5464      32.572895      845.91855      291.99871      9498.3538      0.90706229     0.85956509   
     30800  -4112.937      -4146.4539      33.516854      152.61798      300.4608       9508.3989      0.90610403     0.85956509   
     30900  -4113.0467     -4147.0747      34.027983      1033.4973      305.0428       9530.5994      0.90399336     0.85956509   
     31000  -4113.1489     -4146.9296      33.780627      833.38032      302.82538      9559.7516      0.90123666     0.80118399   
     31100  -4114.4491     -4146.8654      32.416306     -802.77473      290.59496      9588.7913      0.89850726     0.80118399   
     31200  -4114.1155     -4146.6905      32.574989     -383.99496      292.01748      9617.315       0.8958424      0.80118399   
     31300  -4113.3507     -4146.0104      32.659723     -409.58195      292.77707      9642.9707      0.89345896     0.80118399   
     31400  -4112.942      -4145.691       32.748998     -2892.6267      293.57737      9664.2658      0.89149024     0.80118399   
     31500  -4112.5568     -4144.4389      31.882152      10.212327      285.80656      9669.235       0.89103208     0.80118399   
     31600  -4112.3842     -4145.6074      33.223218      1488.9825      297.8285       9661.1883      0.89177421     0.80118399   
     31700  -4111.9887     -4145.37        33.381222     -147.55499      299.24493      9640.1242      0.89372278     0.80118399   
     31800  -4114.2714     -4146.7139      32.442506      1015.6741      290.82984      9615.624       0.89599994     0.80118399   
     31900  -4114.2762     -4146.7066      32.430364      471.36736      290.72099      9588.7089      0.89851498     0.80118399   
     32000  -4113.9844     -4145.9429      31.958473      392.5319       286.49074      9555.8009      0.90160926     0.84356497   
     32100  -4113.9359     -4146.3954      32.459441     -3288.4058      290.98165      9521.1692      0.90488872     0.84356497   
     32200  -4113.9991     -4146.4177      32.418562      1046.8534      290.61519      9490.2736      0.90783458     0.84356497   
     32300  -4112.4896     -4145.1896      32.699983      3702.3603      293.13798      9471.9744      0.90958846     0.84356497   
     32400  -4114.2578     -4146.6887      32.430941      1270.7792      290.72616      9472.2061      0.90956621     0.84356497   
     32500  -4114.0641     -4146.4466      32.382459     -315.68818      290.29155      9490.8076      0.9077835      0.84356497   
     32600  -4113.5801     -4146.3741      32.794028     -584.08718      293.98104      9523.2771      0.90468843     0.84356497   
     32700  -4113.6992     -4147.5007      33.801469      2716.4087      303.01222      9566.608       0.90059074     0.84356497   
     32800  -4112.8506     -4146.4135      33.562952     -627.34586      300.87404      9615.3371      0.89602668     0.84356497   
     32900  -4111.2907     -4144.8536      33.562965     -1296.9005      300.87415      9658.5432      0.89201844     0.84356497   
     33000  -4109.5138     -4143.2438      33.730002      1541.8162      302.37155      9686.4768      0.88944606     0.79837758   
     33100  -4111.0501     -4144.6117      33.561541     -1445.2036      300.86139      9695.6544      0.88860413     0.79837758   
     33200  -4111.657      -4144.2798      32.622798     -915.34793      292.44606      9684.7404      0.88960553     0.79837758   
     33300  -4111.1666     -4144.6066      33.440043     -115.02559      299.77223      9663.5038      0.89156053     0.79837758   
     33400  -4111.3647     -4145.1453      33.780567     -1517.1672      302.82484      9639.3564      0.89379397     0.79837758   
     33500  -4112.0893     -4145.6678      33.578529      1080.5903      301.01368      9617.0528      0.89586683     0.79837758   
     33600  -4113.1265     -4145.7987      32.672122     -1189.4384      292.88822      9600.2596      0.89743392     0.79837758   
     33700  -4112.8247     -4144.7782      31.953499     -739.38401      286.44614      9586.4739      0.89872446     0.79837758   
     33800  -4112.9603     -4146.7394      33.779081      729.67832      302.81152      9579.6669      0.89936307     0.79837758   
     33900  -4112.3658     -4145.4746      33.108802      2497.7374      296.80283      9576.7798      0.89963419     0.79837758   
     34000  -4112.1807     -4145.9204      33.739739      702.48746      302.45884      9581.7688      0.89916577     0.83156299   
     34100  -4111.1818     -4144.9051      33.723261     -1358.9719      302.31112      9592.4953      0.89816031     0.83156299   
     34200  -4110.7493     -4145.1084      34.359132     -251.81965      308.01137      9606.7299      0.89682948     0.83156299   
     34300  -4109.11       -4143.8032      34.693222     -323.83177      311.00631      9621.9183      0.89541382     0.83156299   
     34400  -4110.6846     -4145.1783      34.493731      1021.0661      309.21798      9635.2705      0.89417299     0.83156299   
     34500  -4112.0425     -4145.9445      33.902077     -955.04454      303.91412      9643.3204      0.89342656     0.83156299   
     34600  -4111.1097     -4145.3107      34.201024      2188.9869      306.59401      9647.8506      0.89300705     0.83156299   
     34700  -4111.506      -4146.5947      35.088755      897.82538      314.55205      9647.7039      0.89302062     0.83156299   
     34800  -4111.5153     -4145.9148      34.399441     -2843.11        308.37272      9644.6611      0.89330237     0.83156299   
     34900  -4111.5904     -4144.7825      33.192081      915.59044      297.54938      9636.3822      0.89406983     0.83156299   
     35000  -4114.4675     -4146.0992      31.631716     -960.20641      283.56153      9627.2023      0.89492235     0.82013857   
     35100  -4114.8515     -4147.2434      32.391985      838.20185      290.37694      9609.8681      0.89653661     0.82013857   
     35200  -4113.6549     -4146.2758      32.620897      583.38785      292.42902      9586.4822      0.89872368     0.82013857   
     35300  -4113.6198     -4147.0718      33.452079      1034.6667      299.88012      9564.0253      0.90083394     0.82013857   
     35400  -4115.9191     -4148.3907      32.471526      249.99764      291.08998      9543.8799      0.90273544     0.82013857   
     35500  -4114.465      -4147.1216      32.656623      751.56532      292.74928      9525.4349      0.90448348     0.82013857   
     35600  -4116.2788     -4147.4362      31.15746       1746.5553      279.31008      9512.3092      0.90573155     0.82013857   
     35700  -4116.4102     -4148.0013      31.591116      2422.5954      283.19758      9503.6028      0.90656131     0.82013857   
     35800  -4116.2485     -4147.481       31.232465      931.80937      279.98246      9503.4291      0.90657788     0.82013857   
     35900  -4115.0079     -4147.8039      32.795962      1000.0128      293.99838      9516.7429      0.90530959     0.82013857   
     36000  -4114.0269     -4148.3636      34.336721     -205.66224      307.81047      9540.0227      0.90310043     0.83211982   
     36100  -4113.2392     -4145.6287      32.389442     -2319.5257      290.35415      9568.5779      0.90040533     0.83211982   
     36200  -4113.8271     -4145.6533      31.826105      219.9402       285.30413      9600.4751      0.89741377     0.83211982   
     36300  -4114.5582     -4146.3158      31.757569      1631.7974      284.68974      9623.3563      0.89528002     0.83211982   
     36400  -4114.8265     -4147.6788      32.852299     -691.84124      294.50342      9632.5583      0.89442476     0.83211982   
     36500  -4116.398      -4148.3455      31.947552      485.21206      286.39284      9633.2705      0.89435863     0.83211982   
     36600  -4115.2203     -4147.4118      32.191515      2048.8908      288.57984      9623.5884      0.89525842     0.83211982   
     36700  -4115.9239     -4148.7685      32.844603     -1351.4503      294.43442      9607.4451      0.89676272     0.83211982   
     36800  -4114.0859     -4146.4982      32.412352      235.74421      290.55952      9584.4107      0.89891792     0.83211982   
     36900  -4113.4092     -4145.6644      32.255221      1909.4616      289.15093      9561.8306      0.90104071     0.83211982   
     37000  -4113.0119     -4145.3581      32.346121     -661.89582      289.96579      9540.2998      0.9030742      0.77823522   
     37100  -4112.3519     -4145.3369      32.985047      1798.5631      295.69343      9523.5649      0.90466109     0.77823522   
     37200  -4113.2135     -4147.1301      33.916571      1347.6687      304.04404      9517.6692      0.90522148     0.77823522   
     37300  -4113.7513     -4147.2852      33.533853      796.78729      300.61318      9525.4963      0.90447766     0.77823522   
     37400  -4114.2104     -4146.4272      32.216802      424.8556       288.80652      9546.7271      0.90246621     0.77823522   
     37500  -4115.183      -4147.9336      32.750632     -941.30397      293.59203      9576.5385      0.89965686     0.77823522   
     37600  -4115.0559     -4145.443       30.387105     -225.40303      272.40426      9606.5186      0.89684921     0.77823522   
     37700  -4114.5901     -4146.9102      32.320104     -1171.0279      289.73257      9631.5326      0.89452        0.77823522   
     37800  -4114.5398     -4147.4522      32.912451     -127.31073      295.04264      9647.9503      0.89299782     0.77823522   
     37900  -4112.3046     -4145.5546      33.250058      982.61162      298.06911      9655.4841      0.89230105     0.77823522   
     38000  -4113.6382     -4146.5966      32.958399     -185.03196      295.45454      9660.1656      0.89186863     0.870519     
     38100  -4114.4516     -4147.0235      32.571972     -2050.8397      291.99043      9657.4862      0.89211607     0.870519     
     38200  -4115.11       -4145.6628      30.552854     -3057.6497      273.89011      9644.0631      0.89335775     0.870519     
     38300  -4113.9077     -4146.6215      32.713815     -3081.9527      293.26198      9622.7657      0.89533497     0.870519     
     38400  -4114.9418     -4146.5063      31.56455      -142.42419      282.95943      9595.0415      0.89792198     0.870519     
     38500  -4114.6975     -4146.4716      31.774047     -873.33341      284.83746      9566.7554      0.90057687     0.870519     
     38600  -4115.3678     -4147.0196      31.651826     -120.75921      283.74181      9543.2582      0.90279424     0.870519     
     38700  -4116.2281     -4147.7029      31.474863      1528.3849      282.15543      9525.6716      0.90446101     0.870519     
     38800  -4115.5152     -4149.1381      33.622913     -1687.6008      301.41155      9521.5853      0.90484918     0.870519     
     38900  -4114.9286     -4147.0457      32.117124      1132.4134      287.91296      9529.9747      0.90405262     0.870519     
     39000  -4113.4245     -4144.6999      31.275393      801.71         280.36729      9550.6308      0.90209734     0.82852771   
     39100  -4112.3492     -4144.6002      32.251049      1532.5646      289.11353      9582.5272      0.89909461     0.82852771   
     39200  -4113.5277     -4146.6951      33.167416     -1060.3591      297.32827      9623.2942      0.89528579     0.82852771   
     39300  -4112.7786     -4146.1069      33.328263      1075.3425      298.77018      9668.6632      0.89108477     0.82852771   
     39400  -4112.4896     -4145.8099      33.320252     -175.0216       298.69837      9710.8921      0.88720979     0.82852771   
     39500  -4112.5805     -4145.1144      32.533882     -1155.2586      291.64898      9741.8822      0.88438747     0.82852771   
     39600  -4111.9759     -4144.842       32.866191     -602.63754      294.62795      9751.2443      0.88353838     0.82852771   
     39700  -4113.5669     -4145.8747      32.307776     -575.71739      289.62205      9741.6507      0.88440849     0.82852771   
     39800  -4113.3832     -4145.7128      32.329632     -2194.9318      289.81798      9710.1995      0.88727307     0.82852771   
     39900  -4114.2769     -4147.3967      33.119832     -2064.3984      296.9017       9665.2597      0.89139856     0.82852771   
     40000  -4114.294      -4147.0778      32.783791      387.39469      293.88928      9611.2069      0.89641172     0.84270774   
     40100  -4114.5344     -4146.8457      32.311305      472.18692      289.65369      9559.5984      0.9012511      0.84270774   
     40200  -4115.1407     -4146.9699      31.82929      -1237.0956      285.33268      9516.8557      0.90529886     0.84270774   
     40300  -4114.3596     -4146.1593      31.799737     -1289.1844      285.06775      9488.9587      0.90796038     0.84270774   
     40400  -4114.1604     -4146.4921      32.331679      1137.473       289.83633      9477.9248      0.90901741     0.84270774   
     40500  -4114.0935     -4147.6012      33.507639      1839.1785      300.37819      9488.7437      0.90798096     0.84270774   
     40600  -4114.1371     -4145.6682      31.531114      3092.9654      282.65969      9515.4525      0.90543236     0.84270774   
     40700  -4115.9402     -4148.3113      32.371099      2985.3447      290.18971      9554.5738      0.90172506     0.84270774   
     40800  -4116.3132     -4147.2396      30.926337      1079.8873      277.23818      9595.734       0.89785717     0.84270774   
     40900  -4115.3056     -4147.4742      32.168589     -486.66447      288.37432      9631.0393      0.89456583     0.84270774   
     41000  -4116.0683     -4147.245       31.176681      458.71333      279.48239      9656.6987      0.89218882     0.8395013    
     41100  -4114.2819     -4145.5119      31.230002      1807.1823      279.96038      9670.81        0.89088697     0.8395013    
     41200  -4113.6601     -4145.773       32.112915     -1902.7562      287.87523      9672.9391      0.89069087     0.8395013    
     41300  -4113.9373     -4146.3329      32.395696     -3120.8727      290.41021      9661.4418      0.89175082     0.8395013    
     41400  -4113.2496     -4147.1481      33.898536     -839.82866      303.88237      9637.8293      0.89393559     0.8395013    
     41500  -4114.3088     -4146.294       31.985245     -387.81298      286.73073      9608.7798      0.89663815     0.8395013    
     41600  -4114.398      -4145.9039      31.505804      8.3317451      282.4328       9580.5384      0.89928125     0.8395013    
     41700  -4114.5641     -4147.0835      32.519404      1482.1561      291.51918      9554.0894      0.90177077     0.8395013    
     41800  -4113.4244     -4146.4672      33.042827      242.77179      296.2114       9532.2888      0.90383315     0.8395013    
     41900  -4112.6387     -4145.225       32.586357     -1627.3228      292.11939      9522.0812      0.90480205     0.8395013    
     42000  -4112.1981     -4146.7293      34.531241      1871.3449      309.55424      9519.7434      0.90502424     0.83742141   
     42100  -4113.1221     -4145.414       32.29183       202.44911      289.4791       9526.7684      0.90435689     0.83742141   
     42200  -4112.6423     -4145.9471      33.3048        2184.8357      298.55984      9546.2073      0.90251535     0.83742141   
     42300  -4111.9495     -4145.7003      33.750758      547.73431      302.55762      9576.7443      0.89963753     0.83742141   
     42400  -4113.1431     -4146.0607      32.917572     -275.85552      295.08855      9611.0115      0.89642995     0.83742141   
     42500  -4112.5315     -4145.708       33.176432     -830.15696      297.4091       9641.1173      0.89363072     0.83742141   
     42600  -4112.5805     -4145.9856      33.40507      -2013.3329      299.45871      9660.7042      0.8918189      0.83742141   
     42700  -4112.9424     -4145.1775      32.235135     -1326.8113      288.97086      9668.3484      0.89111379     0.83742141   
     42800  -4113.1969     -4145.0989      31.902024     -164.95459      285.9847       9663.9329      0.89152095     0.83742141   
     42900  -4113.4684     -4146.0477      32.579367      558.38128      292.05673      9650.7182      0.8927417      0.83742141   
     43000  -4113.9847     -4147.0425      33.057745     -181.17955      296.34513      9632.5819      0.89442256     0.89388683   
     43100  -4115.6068     -4147.4143      31.807446      870.91397      285.13686      9610.2617      0.89649989     0.89388683   
     43200  -4115.884      -4147.3576      31.473512     -453.60327      282.14332      9584.1287      0.89894437     0.89388683   
     43300  -4114.9186     -4147.778       32.859428     -65.851707      294.56732      9556.8036      0.90151466     0.89388683   
     43400  -4114.6246     -4146.9092      32.284652     -1062.8016      289.41476      9530.2958      0.90402216     0.89388683   
     43500  -4115.4391     -4147.5162      32.077133      777.25641      287.55446      9506.7014      0.90626582     0.89388683   
     43600  -4115.4395     -4147.3015      31.861963      1346.5692      285.62558      9494.2835      0.90745116     0.89388683   
     43700  -4115.4643     -4148.7735      33.309182     -32.803131      298.59913      9494.8955      0.90739267     0.89388683   
     43800  -4115.2487     -4146.9436      31.694934     -1782.9106      284.12825      9511.7264      0.90578705     0.89388683   
     43900  -4115.0307     -4147.7535      32.722779      1314.4472      293.34233      9541.1053      0.90299796     0.89388683   
     44000  -4116.0435     -4147.5589      31.515393      314.33548      282.51876      9574.2088      0.89987578     0.80708891   
     44100  -4114.6327     -4146.9151      32.282419      1427.6944      289.39474      9605.0617      0.89698524     0.80708891   
     44200  -4113.8558     -4146.6456      32.789888     -298.10015      293.94393      9634.7806      0.89421845     0.80708891   
     44300  -4113.8082     -4145.6153      31.807115      476.34571      285.1339       9658.1366      0.89205599     0.80708891   
     44400  -4114.3059     -4146.8789      32.572995     -538.74834      291.9996       9674.7078      0.89052804     0.80708891   
     44500  -4112.1465     -4145.7099      33.56343      -2298.806       300.87832      9672.788       0.89070478     0.80708891   
     44600  -4113.4772     -4145.5542      32.076958     -1025.6784      287.55289      9654.6542      0.89237775     0.80708891   
     44700  -4113.2768     -4145.9145      32.637693     -1841.5099      292.57958      9626.656       0.89497314     0.80708891   
     44800  -4111.9266     -4146.086       34.159369      81.151767      306.2206       9593.5068      0.89806561     0.80708891   
     44900  -4113.4171     -4146.7768      33.359711      2597.5737      299.05209      9563.0947      0.9009216      0.80708891   
     45000  -4112.8343     -4145.4802      32.645904      918.77581      292.65319      9536.1786      0.90346447     0.77297555   
     45100  -4112.0095     -4145.3793      33.369764     -838.53932      299.14221      9520.4336      0.90495864     0.77297555   
     45200  -4113.6878     -4146.3255      32.637641     -122.96418      292.57912      9512.7938      0.90568542     0.77297555   
     45300  -4114.0279     -4146.1177      32.089779      1353.1678      287.66783      9511.6163      0.90579754     0.77297555   
     45400  -4114.3591     -4147.2707      32.911667      295.37203      295.03562      9519.381       0.9050587      0.77297555   
     45500  -4111.7573     -4146.6091      34.851879      3071.6404      312.42859      9536.4799      0.90343593     0.77297555   
     45600  -4113.0723     -4146.5139      33.441531     -1364.4391      299.78557      9566.2476      0.90062467     0.77297555   
     45700  -4112.617      -4145.8479      33.230943     -714.01172      297.89775      9604.4918      0.89703847     0.77297555   
     45800  -4113.9323     -4146.4844      32.552101     -2133.7149      291.81229      9641.2223      0.89362099     0.77297555   
     45900  -4114.6012     -4146.6294      32.028218      396.91025      287.11596      9669.1128      0.89104334     0.77297555   
     46000  -4114.8656     -4146.6853      31.819653     -971.79335      285.24629      9682.0853      0.88984948     0.82683891   
     46100  -4116.8459     -4146.8023      29.956428      718.52963      268.54347      9680.1562      0.89002682     0.82683891   
     46200  -4115.4633     -4147.3434      31.880115     -1072.5862      285.7883       9663.4758      0.89156311     0.82683891   
     46300  -4115.2756     -4146.8224      31.54683      -335.92389      282.80057      9635.4294      0.89415824     0.82683891   
     46400  -4114.5296     -4146.798       32.268362     -2564.1421      289.26873      9595.9423      0.89783768     0.82683891   
     46500  -4112.8434     -4145.8218      32.978424     -423.13385      295.63406      9551.2598      0.90203792     0.82683891   
     46600  -4112.781      -4145.2631      32.482092      5324.2969      291.1847       9510.8781      0.90586784     0.82683891   
     46700  -4111.453      -4144.6777      33.224699      2772.673       297.84179      9484.2157      0.90841445     0.82683891   
     46800  -4111.2761     -4144.3818      33.105744      3003.1921      296.77541      9478.9584      0.90891829     0.82683891   
     46900  -4112.3564     -4146.3721      34.015653      1769.0428      304.93226      9493.3008      0.90754509     0.82683891   
     47000  -4111.57       -4145.1562      33.586262      2617.2324      301.083        9525.6568      0.90446242     0.80992548   
     47100  -4112.2914     -4146.1973      33.905924     -2052.2088      303.9486       9573.0236      0.89998719     0.80992548   
     47200  -4112.76       -4146.1097      33.349746     -1751.5295      298.96276      9623.0499      0.89530853     0.80992548   
     47300  -4113.0283     -4147.6056      34.577352     -1433.0157      309.96759      9666.5174      0.89128258     0.80992548   
     47400  -4112.9498     -4145.9135      32.963699      2834.2488      295.50205      9697.4159      0.88844273     0.80992548   
     47500  -4112.3254     -4145.5541      33.228728      350.74231      297.8779       9707.9839      0.88747558     0.80992548   
     47600  -4111.6581     -4144.3568      32.698614      890.36114      293.12571      9702.7708      0.8879524      0.80992548   
     47700  -4112.3489     -4144.8016      32.452693     -1378.2703      290.92116      9682.2417      0.88983511     0.80992548   
     47800  -4111.5686     -4145.1363      33.567713     -3177.866       300.91672      9645.4052      0.89323345     0.80992548   
     47900  -4110.81       -4144.9219      34.111893      2966.7796      305.795        9602.1061      0.89726134     0.80992548   
     48000  -4111.4017     -4144.6393      33.237584      2543.7024      297.95728      9565.9824      0.90064964     0.91237607   
     48100  -4111.2266     -4145.0526      33.825997     -1647.1416      303.2321       9537.4915      0.9033401      0.91237607   
     48200  -4111.3288     -4145.7876      34.458785     -690.73418      308.90471      9515.4913      0.90542867     0.91237607   
     48300  -4110.4391     -4144.9516      34.512498      3107.6832      309.38622      9503.1858      0.90660109     0.91237607   
     48400  -4109.1953     -4144.1714      34.97606       628.4966       313.5418       9507.0886      0.90622892     0.91237607   
     48500  -4109.9617     -4144.2162      34.254496      2703.1537      307.07336      9525.2324      0.90450272     0.91237607   
     48600  -4110.7247     -4145.0077      34.283063      2601.0992      307.32945      9554.7406      0.90170931     0.91237607   
     48700  -4111.4658     -4145.3998      33.934002      2514.3093      304.20031      9588.5506      0.89852981     0.91237607   
     48800  -4112.1542     -4145.783       33.628847     -593.05844      301.46475      9626.9019      0.89495028     0.91237607   
     48900  -4111.1542     -4144.5172      33.362963     -2910.7335      299.08125      9663.0212      0.89160506     0.91237607   
     49000  -4111.5273     -4143.9153      32.388011      1220.7719      290.34132      9687.5911      0.88934374     0.87943912   
     49100  -4110.5334     -4143.6394      33.106014     -112.45463      296.77784      9697.4275      0.88844166     0.87943912   
     49200  -4110.6286     -4145.2013      34.572723     -1615.887       309.9261       9694.4358      0.88871583     0.87943912   
     49300  -4109.1594     -4143.9618      34.802387      1238.5949      311.98491      9678.3379      0.89019403     0.87943912   
     49400  -4108.7675     -4144.3064      35.538869     -301.13522      318.58709      9651.7769      0.89264378     0.87943912   
     49500  -4110.4733     -4144.4914      34.018069      497.34836      304.95392      9618.2637      0.89575404     0.87943912   
     49600  -4110.9467     -4144.532       33.585215     -266.17522      301.07362      9579.5619      0.89937292     0.87943912   
     49700  -4111.7117     -4146.3694      34.65771       1084.8718      310.68796      9543.1118      0.9028081      0.87943912   
     49800  -4113.0121     -4146.4462      33.434174      577.30643      299.71961      9512.5071      0.90571271     0.87943912   
     49900  -4114.2463     -4145.7364      31.490198      1153.1612      282.2929       9488.8432      0.90797144     0.87943912   
     50000  -4112.29       -4144.4479      32.157848      1593.3469      288.27803      9471.2565      0.9096574      0.79415694   
     50100  -4114.9574     -4147.8536      32.896171      109.81671      294.8967       9463.1939      0.91043243     0.79415694   
     50200  -4114.1287     -4146.9149      32.786154     -1575.5409      293.91046      9465.6094      0.9102001      0.79415694   
     50300  -4113.3        -4146.7334      33.433374     -150.41695      299.71244      9484.6857      0.90836944     0.79415694   
     50400  -4113.7546     -4145.3762      31.621574     -311.64032      283.47062      9515.8         0.90539929     0.79415694   
     50500  -4112.9963     -4146.884       33.887744     -391.0652       303.78563      9554.1131      0.90176854     0.79415694   
     50600  -4110.9846     -4144.8898      33.905254     -967.25042      303.94259      9593.7208      0.89804558     0.79415694   
     50700  -4110.9576     -4144.4715      33.513853      1021.3155      300.43389      9628.5863      0.89479373     0.79415694   
     50800  -4111.9409     -4145.1753      33.234402     -804.69377      297.92876      9653.972       0.89244081     0.79415694   
     50900  -4111.1755     -4144.9509      33.775413      1084.0336      302.77864      9662.7746      0.89162782     0.79415694   
     51000  -4110.9528     -4144.012       33.059237     -156.85919      296.3585       9653.3668      0.89249676     0.83676858   
     51100  -4110.1095     -4144.0621      33.95259      -1611.1545      304.36694      9633.5526      0.89433244     0.83676858   
     51200  -4110.9373     -4146.0228      35.08551       200.56996      314.52297      9606.8937      0.89681419     0.83676858   
     51300  -4111.497      -4145.0115      33.514496      1654.527       300.43966      9571.5509      0.90012566     0.83676858   
     51400  -4111.7957     -4144.8893      33.093523      156.65117      296.66585      9534.5703      0.90361688     0.83676858   
     51500  -4111.4404     -4144.6937      33.25327      -724.15923      298.0979       9500.6637      0.90684176     0.83676858   
     51600  -4112.7415     -4146.8798      34.13828       2666.4888      306.03155      9477.6189      0.90904674     0.83676858   
     51700  -4114.5649     -4146.266       31.701018      3038.6962      284.18279      9464.4394      0.91031262     0.83676858   
     51800  -4114.9952     -4146.891       31.89575      -381.4356       285.92846      9465.0762      0.91025137     0.83676858   
     51900  -4115.0982     -4146.67        31.571852      1457.6728      283.02489      9481.1212      0.90871094     0.83676858   
     52000  -4113.2617     -4145.8287      32.56695      -2349.5503      291.94541      9508.7405      0.90607149     0.83650197   
     52100  -4113.2826     -4144.9033      31.620679      1058.7715      283.46259      9545.5682      0.90257577     0.83650197   
     52200  -4111.4055     -4144.5615      33.15595       1842.0654      297.22549      9593.6401      0.89805314     0.83650197   
     52300  -4111.8973     -4145.2882      33.390888     -684.874        299.33158      9646.5658      0.89312599     0.83650197   
     52400  -4111.2093     -4143.8749      32.665631      1406.6813      292.83004      9694.4081      0.88871837     0.83650197   
     52500  -4111.4172     -4143.9857      32.568493     -602.96944      291.95924      9728.8323      0.88557376     0.83650197   
     52600  -4110.8687     -4144.43        33.561283     -4733.5807      300.85908      9749.8678      0.88366312     0.83650197   
     52700  -4110.8395     -4144.4866      33.647114      693.65076      301.62851      9752.5509      0.88342        0.83650197   
     52800  -4110.0216     -4143.2658      33.244213     -72.353632      298.01671      9738.3731      0.88470615     0.83650197   
     52900  -4111.1835     -4144.6391      33.455618     -2437.8377      299.91184      9706.8467      0.88757954     0.83650197   
     53000  -4111.3953     -4144.1015      32.706199     -4096.7307      293.1937       9656.8098      0.89217855     0.89415938   
     53100  -4111.4908     -4145.46        33.969188      1615.2227      304.51573      9597.5951      0.89768306     0.89415938   
     53200  -4111.9051     -4146.4748      34.56971       1403.756       309.89909      9544.5367      0.90267332     0.89415938   
     53300  -4111.9478     -4146.3438      34.396022     -160.61468      308.34207      9502.119       0.90670287     0.89415938   
     53400  -4113.7101     -4146.8579      33.147733      1267.0114      297.15183      9474.7902      0.90931814     0.89415938   
     53500  -4113.7442     -4147.0463      33.302054     -863.37755      298.53523      9467.0286      0.91006365     0.89415938   
     53600  -4112.582      -4145.7533      33.171317      3780.4883      297.36324      9479.0542      0.9089091      0.89415938   
     53700  -4112.1968     -4144.8834      32.68661      -683.17155      293.0181       9512.3916      0.90572371     0.89415938   
     53800  -4111.4121     -4145.1413      33.729247     -702.02446      302.36479      9561.5827      0.90106406     0.89415938   
     53900  -4111.5881     -4145.349       33.760932      693.016        302.64883      9622.9716      0.89531581     0.89415938   
     54000  -4112.5682     -4146.3398      33.771549     -608.93773      302.744        9691.7693      0.88896034     0.87764615   
     54100  -4112.2006     -4145.4304      33.229822     -52.638986      297.8877       9750.1528      0.88363729     0.87764615   
     54200  -4112.7219     -4145.7954      33.073563     -313.69295      296.48693      9780.9323      0.88085658     0.87764615   
     54300  -4112.1407     -4144.6639      32.523201     -2386.4997      291.55322      9781.325       0.88082122     0.87764615   
     54400  -4111.9468     -4145.4781      33.531321      214.59485      300.59049      9757.6126      0.88296174     0.87764615   
     54500  -4113.0111     -4146.4015      33.390456     -1749.2233      299.32771      9718           0.88656088     0.87764615   
     54600  -4112.7937     -4146.1111      33.317394      1033.6698      298.67275      9668.3896      0.89110999     0.87764615   
     54700  -4114.2836     -4146.3086      32.024932     -869.36839      287.08651      9615.0376      0.89605459     0.87764615   
     54800  -4113.2841     -4145.5008      32.216768      512.39727      288.80622      9560.3231      0.90118278     0.87764615   
     54900  -4113.3991     -4147.2112      33.812136      1644.3448      303.10784      9520.8422      0.9049198      0.87764615   
     55000  -4113.0153     -4147.1238      34.10849      -744.78615      305.7645       9500.4501      0.90686215     0.82108357   
     55100  -4111.8487     -4145.0135      33.164838      1329.5747      297.30516      9498.7055      0.90702871     0.82108357   
     55200  -4111.7799     -4144.9263      33.14634       1443.0215      297.13934      9514.4326      0.90552942     0.82108357   
     55300  -4111.621      -4145.2013      33.580293      1702.7923      301.02949      9550.5855      0.90210161     0.82108357   
     55400  -4111.8881     -4145.8781      33.990016      2013.736       304.70244      9600.0742      0.89745125     0.82108357   
     55500  -4111.6263     -4145.7119      34.085583     -1490.8548      305.55915      9647.5222      0.89303745     0.82108357   
     55600  -4111.8612     -4145.4963      33.635083      2501.9057      301.52066      9686.4131      0.88945191     0.82108357   
     55700  -4113.2157     -4145.9405      32.724843      1726.4617      293.36084      9711.9068      0.8871171      0.82108357   
[...]
    386100  -4112.0305     -4145.6524      33.621906     -1013.9755      301.40253      9665.6051      0.89136671     0.81996867   
    386200  -4113.0707     -4146.3036      33.232908      111.76477      297.91537      9639.9401      0.89373985     0.81996867   
    386300  -4111.449      -4145.3339      33.884877      1376.763       303.75993      9608.9         0.89662694     0.81996867   
    386400  -4110.926      -4143.7462      32.820171      1402.956       294.21541      9582.8617      0.89906323     0.81996867   
    386500  -4112.6413     -4144.1711      31.529762     -1099.8824      282.64757      9567.4136      0.90051491     0.81996867   
    386600  -4112.2516     -4144.8037      32.55215      -1730.8804      291.81273      9560.25        0.90118967     0.81996867   
    386700  -4112.1352     -4145.4404      33.305226      1829.8546      298.56366      9562.5065      0.90097702     0.81996867   
    386800  -4112.0255     -4145.4716      33.446129     -909.36066      299.82678      9573.7252      0.89992123     0.81996867   
    386900  -4110.9126     -4144.716       33.803409     -69.140963      303.02961      9590.3659      0.89835974     0.81996867   
    387000  -4111.6182     -4144.7415      33.123322      1327.3523      296.93299      9616.3491      0.89593238     0.87893122   
    387100  -4113.0625     -4145.7629      32.700416      1571.3615      293.14186      9642.4013      0.89351173     0.87893122   
    387200  -4112.6802     -4146.2467      33.566473      2013.8395      300.9056       9659.9157      0.89189169     0.87893122   
    387300  -4112.7981     -4146.3562      33.558121      1655.176       300.83073      9670.1716      0.89094578     0.87893122   
    387400  -4114.4521     -4146.2148      31.762723      2115.2825      284.73595      9669.5801      0.89100028     0.87893122   
    387500  -4113.9743     -4147.652       33.677645     -139.5478       301.9022       9658.2998      0.89204092     0.87893122   
    387600  -4114.3592     -4146.2704      31.911264      75.545018      286.06753      9638.8556      0.89384041     0.87893122   
    387700  -4114.6656     -4146.683       32.017424     -1530.0821      287.0192       9614.9542      0.89606236     0.87893122   
    387800  -4114.5935     -4146.4849      31.891398     -120.59354      285.88945      9585.703       0.89879674     0.87893122   
    387900  -4114.4862     -4147.1139      32.627731      2656.7979      292.49028      9558.0717      0.90139505     0.87893122   
    388000  -4113.3417     -4145.4582      32.116515      1213.4088      287.9075       9542.5717      0.90285919     0.80379304   
    388100  -4112.1714     -4145.2087      33.0373        167.53263      296.16185      9542.1         0.90290382     0.80379304   
    388200  -4112.3483     -4144.5587      32.210373     -1069.3092      288.74889      9555.3496      0.90165184     0.80379304   
    388300  -4113.3457     -4144.806       31.460287     -1339.0577      282.02477      9576.3893      0.89967088     0.80379304   
    388400  -4112.9892     -4145.6031      32.613929      639.45335      292.36656      9595.5732      0.89787222     0.80379304   
    388500  -4113.4537     -4146.0681      32.614458      77.194872      292.37129      9609.487       0.89657217     0.80379304   
    388600  -4114.8145     -4147.1896      32.375096     -1490.2194      290.22554      9615.936       0.89597087     0.80379304   
    388700  -4115.3844     -4147.3777      31.993294     -1509.6958      286.80289      9613.6592      0.89618306     0.80379304   
    388800  -4115.4286     -4146.7674      31.33885      -2657.8391      280.93615      9605.6266      0.89693249     0.80379304   
    388900  -4115.756      -4147.4094      31.653459     -316.4407       283.75645      9598.9976      0.8975519      0.80379304   
    389000  -4115.4883     -4146.911       31.42273       1222.5827      281.68808      9590.3744      0.89835894     0.79856657   
    389100  -4115.8502     -4146.3855      30.535304      1270.5457      273.73279      9578.6719      0.89945648     0.79856657   
    389200  -4114.5679     -4146.5701      32.002187     -988.68291      286.88261      9566.541       0.90059705     0.79856657   
    389300  -4112.6755     -4146.1349      33.459434     -943.06504      299.94605      9558.8878      0.9013181      0.79856657   
    389400  -4113.6101     -4146.2537      32.643511     -303.72761      292.63174      9556.3228      0.90156002     0.79856657   
    389500  -4111.872      -4144.4996      32.627638      273.53882      292.48945      9556.259       0.90156604     0.79856657   
    389600  -4112.3691     -4144.9662      32.597098     -159.65667      292.21567      9560.4186      0.90117378     0.79856657   
    389700  -4113.6443     -4147.04        33.395717      1136.0552      299.37487      9568.4331      0.90041896     0.79856657   
    389800  -4113.1004     -4146.947       33.846628      1411.1517      303.41704      9581.2037      0.89921881     0.79856657   
    389900  -4112.3956     -4145.7672      33.371601      320.92146      299.15868      9594.5616      0.89796689     0.79856657   
    390000  -4111.845      -4144.6338      32.788819      2187.7974      293.93435      9608.9287      0.89662426     0.82370979   
    390100  -4113.577      -4145.7961      32.219091      2145.1262      288.82704      9626.6382      0.8949748      0.82370979   
    390200  -4113.454      -4146.5336      33.079526     -234.00969      296.54038      9637.4575      0.89397007     0.82370979   
    390300  -4113.0041     -4147.8344      34.830224     -282.49028      312.23446      9636.8149      0.89402969     0.82370979   
    390400  -4112.9604     -4146.0414      33.080941      2745.7203      296.55307      9626.5823      0.89498        0.82370979   
    390500  -4114.3871     -4147.5111      33.124013     -1208.7128      296.93919      9611.0481      0.89642654     0.82370979   
    390600  -4115.2728     -4145.4391      30.166274     -3407.4038      270.42463      9588.706       0.89851526     0.82370979   
    390700  -4116.671      -4148.0709      31.399984      146.53292      281.48418      9561.108       0.90110881     0.82370979   
    390800  -4116.0071     -4148.9684      32.96127       517.59091      295.48028      9528.1206      0.90422854     0.82370979   
    390900  -4115.4354     -4147.541       32.105647      2178.7978      287.81007      9493.1308      0.90756135     0.82370979   
    391000  -4114.7797     -4147.1306      32.350869      3183.4174      290.00836      9466.832       0.91008255     0.87161466   
    391100  -4114.7814     -4147.8962      33.114872     -1701.7042      296.85724      9456.3592      0.91109046     0.87161466   
    391200  -4114.5826     -4147.4711      32.888584      1247.3826      294.82869      9462.0358      0.91054386     0.87161466   
    391300  -4113.9724     -4145.9921      32.019692     -536.62514      287.03953      9489.704       0.90788907     0.87161466   
    391400  -4113.273      -4146.189       32.916065      59.767685      295.07504      9534.2348      0.90364866     0.87161466   
    391500  -4115.1003     -4146.9951      31.894799      1022.3322      285.91993      9586.51        0.89872107     0.87161466   
    391600  -4113.8272     -4146.61        32.782783      1449.3659      293.88024      9638.9705      0.89382975     0.87161466   
    391700  -4114.8474     -4145.5961      30.748728     -620.88827      275.64602      9690.3508      0.88909047     0.87161466   
    391800  -4113.9033     -4146.9502      33.0469       -1813.1046      296.24791      9728.6961      0.88558615     0.87161466   
    391900  -4114.3681     -4148.1931      33.82499      -1153.4664      303.22307      9749.9527      0.88365543     0.87161466   
    392000  -4114.5989     -4145.8081      31.209229      2409.8895      279.77417      9745.9986      0.88401394     0.81927656   
    392100  -4112.5814     -4144.2747      31.693311     -1280.9768      284.1137       9720.4638      0.88633617     0.81927656   
    392200  -4114.4676     -4146.5076      32.039992      213.02936      287.22151      9678.8735      0.89014476     0.81927656   
    392300  -4115.1632     -4146.755       31.591823     -3776.7802      283.20391      9622.7773      0.89533389     0.81927656   
    392400  -4116.3584     -4148.7429      32.384483     -2079.0026      290.30969      9560.7094      0.90114637     0.81927656   
    392500  -4116.5936     -4148.8031      32.209545      973.20366      288.74146      9501.5132      0.90676068     0.81927656   
    392600  -4115.1798     -4146.2593      31.079489      1120.6933      278.61111      9456.6345      0.91106393     0.81927656   
    392700  -4114.1556     -4146.7081      32.552571      132.32417      291.81651      9432.9542      0.91335104     0.81927656   
    392800  -4113.5482     -4146.2878      32.739563     -160.15006      293.4928       9432.3532      0.91340925     0.81927656   
    392900  -4113.8899     -4146.7993      32.909377      1725.5174      295.01509      9455.0006      0.91122137     0.81927656   
    393000  -4114.0292     -4147.387       33.357813      705.32202      299.03507      9500.1453      0.90689124     0.83826472   
    393100  -4113.1726     -4147.3787      34.206119      1673.7802      306.63969      9559.6701      0.90124435     0.83826472   
    393200  -4112.9681     -4144.8481      31.880087     -2294.7937      285.78805      9621.7356      0.89543082     0.83826472   
    393300  -4113.5555     -4145.8337      32.278194     -2109.4139      289.35687      9668.6968      0.89108168     0.83826472   
    393400  -4113.3926     -4146.1672      32.77464      -698.21904      293.80724      9697.2568      0.8884573      0.83826472   
    393500  -4113.716      -4146.4254      32.709452     -1993.6601      293.22286      9709.3541      0.88735033     0.83826472   
    393600  -4113.9171     -4146.2956      32.378549     -439.73141      290.2565       9704.7645      0.88776998     0.83826472   
    393700  -4113.4194     -4146.9856      33.56625      -1093.2095      300.9036       9683.586       0.88971157     0.83826472   
    393800  -4113.4277     -4146.2392      32.811524     -726.81453      294.13788      9647.5858      0.89303156     0.83826472   
    393900  -4113.9837     -4146.2885      32.304783      727.64873      289.59522      9603.9545      0.89708865     0.83826472   
    394000  -4113.9114     -4145.6537      31.742319     -2040.582       284.55304      9563.0009      0.90093044     0.85727665   
    394100  -4113.2363     -4145.8874      32.651032      864.26589      292.69916      9526.4999      0.90438238     0.85727665   
    394200  -4113.4776     -4145.6975      32.219898      2636.34        288.83427      9502.3291      0.90668282     0.85727665   
    394300  -4112.9522     -4146.4822      33.529928      1492.6768      300.57799      9494.3979      0.90744023     0.85727665   
    394400  -4112.8488     -4145.3287      32.479872      562.01748      291.1648       9506.4335      0.90629136     0.85727665   
    394500  -4112.5005     -4145.8921      33.391572     -44.416579      299.33771      9536.5251      0.90343165     0.85727665   
    394600  -4113.4624     -4144.6181      31.155649      3808.8204      279.29385      9573.0688      0.89998294     0.85727665   
    394700  -4113.6216     -4145.9934      32.371859      1884.9567      290.19653      9613.0388      0.8962409      0.85727665   
    394800  -4112.131      -4144.2454      32.114403     -1909.9567      287.88857      9652.4863      0.89257817     0.85727665   
    394900  -4111.7929     -4144.0383      32.245347     -1170.9882      289.06241      9686.9778      0.88940005     0.85727665   
    395000  -4111.7617     -4144.3907      32.629021      800.96426      292.50185      9707.0524      0.88756074     0.89881275   
    395100  -4111.4504     -4145.1892      33.738859     -433.76149      302.45095      9709.2841      0.88735673     0.89881275   
    395200  -4111.4285     -4145.3804      33.951888     -2443.0902      304.36065      9695.9035      0.8885813      0.89881275   
    395300  -4111.2461     -4144.9086      33.662458      2795.8097      301.76606      9668.5136      0.89109856     0.89881275   
    395400  -4110.2766     -4143.9555      33.678876      1379.1838      301.91324      9633.6937      0.89431934     0.89881275   
    395500  -4110.2676     -4145.0963      34.828636     -733.13126      312.22023      9598.6742      0.89758215     0.89881275   
    395600  -4111.7009     -4145.1536      33.452683      1026.0776      299.88554      9568.3761      0.90042432     0.89881275   
    395700  -4111.5872     -4145.1999      33.612777      2308.1302      301.32069      9547.1582      0.90242545     0.89881275   
    395800  -4111.1253     -4144.9966      33.87128      -32.97466       303.63803      9537.6067      0.9033292      0.89881275   
    395900  -4110.7362     -4145.0779      34.341714     -226.97244      307.85523      9542.0104      0.9029123      0.89881275   
    396000  -4111.2123     -4145.096       33.883626      2739.4044      303.74871      9558.245       0.90137872     0.81272884   
    396100  -4111.2192     -4145.0999      33.880681      2167.4625      303.72232      9584.2685      0.89893127     0.81272884   
    396200  -4111.3505     -4146.3153      34.964793     -790.14182      313.4408       9613.2693      0.89621941     0.81272884   
    396300  -4112.125      -4144.207       32.082073      559.53627      287.59874      9637.8249      0.893936       0.81272884   
    396400  -4112.6664     -4146.7668      34.100411     -1900.2532      305.69208      9653.0322      0.8925277      0.81272884   
    396500  -4112.4285     -4146.4585      34.03002      -112.11585      305.06106      9656.817       0.89217789     0.81272884   
    396600  -4111.9985     -4145.2573      33.258762      1155.4444      298.14714      9648.6735      0.89293089     0.81272884   
    396700  -4113.0555     -4147.2385      34.183015      942.1033       306.43257      9632.6548      0.8944158      0.81272884   
    396800  -4112.692      -4147.6435      34.951479     -3270.1157      313.32145      9609.9349      0.89653038     0.81272884   
    396900  -4111.497      -4145.6154      34.118412     -3454.6356      305.85344      9589.1855      0.89847032     0.81272884   
    397000  -4112.6007     -4145.512       32.911232      440.81327      295.03172      9577.781       0.89954015     0.80881321   
    397100  -4112.3084     -4145.2382      32.929878      2334.7937      295.19887      9575.6761      0.89973788     0.80881321   
    397200  -4112.1257     -4145.8595      33.73378      -262.8976       302.40542      9579.0222      0.8994236      0.80881321   
    397300  -4114.665      -4146.8385      32.173569     -796.17114      288.41896      9584.4723      0.89891215     0.80881321   
    397400  -4115.2578     -4147.0029      31.745137      562.70508      284.57829      9587.2488      0.89865182     0.80881321   
    397500  -4114.4657     -4147.0012      32.535506     -3336.0439      291.66353      9585.3868      0.89882639     0.80881321   
    397600  -4114.5942     -4146.7901      32.195898     -2271.4762      288.61913      9580.5991      0.89927556     0.80881321   
    397700  -4114.0344     -4147.3857      33.351362     -1921.825       298.97724      9572.5156      0.90003495     0.80881321   
    397800  -4113.3664     -4146.4536      33.087205      1232.6324      296.60922      9560.1711      0.90119711     0.80881321   
    397900  -4112.878      -4145.9097      33.031719      749.44337      296.11182      9553.1787      0.90185674     0.80881321   
    398000  -4113.5075     -4146.5011      32.99362       300.44528      295.77029      9548.6213      0.90228718     0.79515016   
    398100  -4113.7829     -4146.9323      33.149327      1901.9124      297.16611      9540.4054      0.9030642      0.79515016   
    398200  -4113.7218     -4146.5158      32.79397      -53.782695      293.98052      9532.7733      0.90378721     0.79515016   
    398300  -4113.5417     -4147.8704      34.328743      1857.4862      307.73895      9524.7345      0.90455        0.79515016   
    398400  -4112.7267     -4146.2157      33.489006      1239.1664      300.21116      9523.9672      0.90462287     0.79515016   
    398500  -4111.9426     -4145.1653      33.222671      499.20149      297.8236       9535.5235      0.90352655     0.79515016   
    398600  -4112.1059     -4145.5766      33.47069       407.85938      300.04696      9558.6453      0.90134096     0.79515016   
    398700  -4112.3214     -4145.9815      33.660092      1217.7015      301.74485      9588.487       0.89853578     0.79515016   
    398800  -4112.6711     -4145.0029      32.3318       -445.02235      289.83742      9618.5862      0.89572401     0.79515016   
    398900  -4112.8775     -4145.2091      32.331657     -954.60516      289.83613      9642.6048      0.89349287     0.79515016   
    399000  -4113.2044     -4146.7327      33.528343      532.47485      300.56379      9662.5804      0.89164573     0.78212472   
    399100  -4112.1821     -4145.2456      33.063447      1061.2042      296.39625      9672.7631      0.89070708     0.78212472   
    399200  -4112.5283     -4145.9037      33.375357     -4023.7515      299.19235      9673.8785      0.89060439     0.78212472   
    399300  -4112.4118     -4146.308       33.896136      419.15183      303.86086      9665.3686      0.89138851     0.78212472   
    399400  -4112.655      -4145.5068      32.851844     -419.92216      294.49933      9643.4815      0.89341164     0.78212472   
    399500  -4112.1235     -4144.4334      32.309887      2329.0431      289.64098      9609.1176      0.89660664     0.78212472   
    399600  -4112.8286     -4146.3083      33.479697     -955.27278      300.1277       9572.8149      0.90000681     0.78212472   
    399700  -4112.459      -4144.8049      32.345843      244.64692      289.96331      9535.2505      0.90355242     0.78212472   
    399800  -4112.2904     -4145.8092      33.518883     -2497.5709      300.47899      9507.7045      0.90617021     0.78212472   
    399900  -4112.4596     -4146.1232      33.663543      1336.83        301.77578      9496.5048      0.9072389      0.78212472   
    400000  -4112.7864     -4146.7853      33.998889      3310.017       304.78198      9502.8226      0.90663574     0.92960052   
    400100  -4112.598      -4146.3652      33.767203      3524.2738      302.70504      9527.3346      0.90430314     0.92960052   
    400174  -4112.67       -4145.3934      32.723352      1038.1618      293.34747      9552.2058      0.90194859     0.92960052   
Loop time of 500.601 on 2 procs for 200000 steps with 864 atoms

Performance: 17.259 ns/day, 1.391 hours/ns, 399.519 timesteps/s, 345.185 katom-step/s
99.7% CPU use with 2 MPI tasks x 1 OpenMP threads

MPI task timing breakdown:
Section |  min time  |  avg time  |  max time  |%varavg| %total
---------------------------------------------------------------
Pair    | 261.6      | 263.3      | 265        |  10.5 | 52.60
Neigh   | 7.4521     | 7.4688     | 7.4854     |   0.6 |  1.49
Comm    | 38.78      | 41.149     | 43.518     |  36.9 |  8.22
Output  | 0.29047    | 0.29332    | 0.29617    |   0.5 |  0.06
Modify  | 185.64     | 186.34     | 187.03     |   5.1 | 37.22
Other   |            | 2.051      |            |       |  0.41

Nlocal:            432 ave         433 max         431 min
Histogram: 1 0 0 0 0 0 0 0 0 1
Nghost:         2190.5 ave        2194 max        2187 min
Histogram: 1 0 0 0 0 0 0 0 0 1
Neighs:              0 ave           0 max           0 min
Histogram: 2 0 0 0 0 0 0 0 0 0
FullNghs:        44822 ave       44877 max       44767 min
Histogram: 1 0 0 0 0 0 0 0 0 1

Total # of neighbors = 89644
Ave neighs/atom = 103.75463
Neighbor list builds = 19891
Dangerous builds = 19346

unfix		3
unfix		4
Total wall time: 0:16:42
