LAMMPS (27 Jun 2024)
KOKKOS mode with Kokkos version 4.3.1 is enabled (src/KOKKOS/kokkos.cpp:72)
  will use up to 1 GPU(s) per node
WARNING: When using a single thread, the Kokkos Serial backend (i.e. Makefile.kokkos_mpi_only) gives better performance than the OpenMP backend (src/KOKKOS/kokkos.cpp:202)
  using 1 OpenMP thread(s) per MPI task
package kokkos
package kokkos newton on neigh half

units		metal						## E in [eV], t in [ps], P in [10000 Pa], l in [A]
atom_style	atomic						## mass x y z vx vy vz

neighbor	0.5 bin						## neighbor list, skin = 0.5 Angstrom
neigh_modify	every 2 delay 10 check yes			## update of neighbor list

############################## main variables
variable        seed equal 70843

variable	temperature equal 465
variable	tempDamp equal 0.1

variable        pressure equal 30000
variable        pressureDamp equal 1.0 				# This is 1 ps

##############################

read_data water.dat
Reading data file ...
  orthogonal box = (0 0 0) to (19.665067 19.665067 19.640133)
  1 by 1 by 1 MPI processor grid
  reading atoms ...
  1296 atoms
  read_data CPU = 0.014 seconds

mass		1 1.008    # H
mass		2 15.9994  # O


pair_style	pace/extrapolation
ACE/AL version: 2023.11.25
pair_coeff	* * /pc2/users/a/acepdw01/work/phase_diagram/pot_dir/interim_potential_ladder_step_1.yaml /pc2/users/a/acepdw01/work/phase_diagram/pot_dir/interim_potential_ladder_step_1.asi H O
Loading /pc2/users/a/acepdw01/work/phase_diagram/pot_dir/interim_potential_ladder_step_1.yaml
Total number of basis functions
	H: 23 (r=1) 664 (r>1)
	O: 23 (r=1) 664 (r>1)
Mapping LAMMPS atom type #1(H) -> ACE species type #0
Mapping LAMMPS atom type #2(O) -> ACE species type #1
Loading ASI /pc2/users/a/acepdw01/work/phase_diagram/pot_dir/interim_potential_ladder_step_1.asi
LINEAR ASI is loaded

fix pace_gamma all pair 1000 pace/extrapolation gamma 1
compute max_pace_gamma all reduce max f_pace_gamma
variable dump_skip equal "c_max_pace_gamma < 10"

dump pace_dump all custom 1000 extrapolative_structures.dump id type x y z f_pace_gamma
dump_modify pace_dump skip v_dump_skip
dump_modify pace_dump element H O

variable max_pace_gamma equal c_max_pace_gamma

timestep	0.0005						## timestep = 0.0005*ps = 0.5 fs

thermo		100
thermo_style custom step etotal pe ke press temp vol density c_max_pace_gamma


min_style cg
minimize 0.0 5.0e-4 10000 100000

CITE-CITE-CITE-CITE-CITE-CITE-CITE-CITE-CITE-CITE-CITE-CITE-CITE

Your simulation uses code contributions which should be cited:

- Type Label Framework: https://doi.org/10.1021/acs.jpcb.3c08419

@Article{Gissinger24,
 author = {Jacob R. Gissinger, Ilia Nikiforov, Yaser Afshar, Brendon Waters, Moon-ki Choi, Daniel S. Karls, Alexander Stukowski, Wonpil Im, Hendrik Heinz, Axel Kohlmeyer, and Ellad B. Tadmor},
 title = {Type Label Framework for Bonded Force Fields in LAMMPS},
 journal = {J. Phys. Chem. B},
 year =    2024,
 volume =  128,
 number =  13,
 pages =   {3282–-3297}
}

CITE-CITE-CITE-CITE-CITE-CITE-CITE-CITE-CITE-CITE-CITE-CITE-CITE

Switching to 'neigh_modify every 1 delay 0 check yes' setting during minimization
Neighbor list info ...
  update: every = 1 steps, delay = 0 steps, check = yes
  max neighbors/atom: 2000, page size: 100000
  master list distance cutoff = 6.5
  ghost atom cutoff = 6.5
  binsize = 6.5, bins = 4 4 4
  1 neighbor lists, perpetual/occasional/extra = 1 0 0
  (1) pair pace/extrapolation/kk, perpetual
      attributes: full, newton on, kokkos_device
      pair build: full/bin/kk/device
      stencil: full/bin/3d
      bin: kk/device
WARNING: Fix with atom-based arrays not compatible with sending data in Kokkos communication, switching to classic exchange/border communication (src/KOKKOS/comm_kokkos.cpp:754)
WARNING: Fix with atom-based arrays not compatible with Kokkos sorting on device, switching to classic host sorting (src/KOKKOS/atom_kokkos.cpp:216)
Per MPI rank memory allocation (min/avg/max) = 1123 | 1123 | 1123 Mbytes
   Step         TotEng         PotEng         KinEng         Press           Temp          Volume        Density     c_max_pace_gamma
         0  -6250.4972     -6250.4972      0              21939.986      0              7595.1311      1.7015372      0.62320149   
        33  -6250.6452     -6250.6452      0              22350.057      0              7595.1311      1.7015372      0.62320149   
Loop time of 0.254672 on 1 procs for 33 steps with 1296 atoms

99.4% CPU use with 1 MPI tasks x 1 OpenMP threads

Minimization stats:
  Stopping criterion = force tolerance
  Energy initial, next-to-last, final = 
     -6250.49717465847  -6250.64523648354  -6250.64523648875
  Force two-norm initial, final = 0.82052426 0.0003006328
  Force max component initial, final = 0.040662504 1.1270972e-05
  Final line search alpha, max atom move = 1 1.1270972e-05
  Iterations, force evaluations = 33 66

MPI task timing breakdown:
Section |  min time  |  avg time  |  max time  |%varavg| %total
---------------------------------------------------------------
Pair    | 0.22892    | 0.22892    | 0.22892    |   0.0 | 89.89
Neigh   | 0          | 0          | 0          |   0.0 |  0.00
Comm    | 0.0016481  | 0.0016481  | 0.0016481  |   0.0 |  0.65
Output  | 0          | 0          | 0          |   0.0 |  0.00
Modify  | 0.014262   | 0.014262   | 0.014262   |   0.0 |  5.60
Other   |            | 0.009839   |            |       |  3.86

Nlocal:           1296 ave        1296 max        1296 min
Histogram: 1 0 0 0 0 0 0 0 0 0
Nghost:           4514 ave        4514 max        4514 min
Histogram: 1 0 0 0 0 0 0 0 0 0
Neighs:              0 ave           0 max           0 min
Histogram: 1 0 0 0 0 0 0 0 0 0
FullNghs:       251424 ave      251424 max      251424 min
Histogram: 1 0 0 0 0 0 0 0 0 0

Total # of neighbors = 251424
Ave neighs/atom = 194
Neighbor list builds = 0
Dangerous builds = 0

################## equilibration of main calculation

fix             3 all nph aniso ${pressure} ${pressure} ${pressureDamp}
fix             3 all nph aniso 30000 ${pressure} ${pressureDamp}
fix             3 all nph aniso 30000 30000 ${pressureDamp}
fix             3 all nph aniso 30000 30000 1
fix             4 all temp/csvr ${temperature} ${temperature} ${tempDamp} ${seed}
fix             4 all temp/csvr 465 ${temperature} ${tempDamp} ${seed}
fix             4 all temp/csvr 465 465 ${tempDamp} ${seed}
fix             4 all temp/csvr 465 465 0.1 ${seed}
fix             4 all temp/csvr 465 465 0.1 70843
velocity 	all create ${temperature} ${seed} dist gaussian
velocity 	all create 465 ${seed} dist gaussian
velocity 	all create 465 70843 dist gaussian

run 20000
WARNING: Fix with atom-based arrays not compatible with Kokkos sorting on device, switching to classic host sorting (src/KOKKOS/atom_kokkos.cpp:216)
Per MPI rank memory allocation (min/avg/max) = 1123 | 1123 | 1123 Mbytes
   Step         TotEng         PotEng         KinEng         Press           Temp          Volume        Density     c_max_pace_gamma
        33  -6172.808      -6250.6452      77.837228      33296.453      465            7595.1311      1.7015372      0.62320149   
       100  -6160.5452     -6192.8972      32.352022      38968.141      193.27115      7601.007       1.7002218      0.62320149   
       200  -6147.2405     -6198.2218      50.98131       35150.065      304.56261      7662.6215      1.6865505      0.62320149   
       300  -6137.9404     -6195.0706      57.130174      40545.61       341.29595      7779.2155      1.6612726      0.62320149   
       400  -6133.5419     -6191.4439      57.901956      39756.212      345.90658      7922.743       1.6311772      0.62320149   
       500  -6125.6556     -6190.9457      65.290073      33905.275      390.04323      8056.2025      1.6041551      0.62320149   
       600  -6120.7285     -6187.0625      66.334014      30100.434      396.27974      8154.7437      1.5847706      0.62320149   
       700  -6117.7487     -6184.565       66.816301      21300.803      399.16093      8216.7387      1.5728135      0.62320149   
       800  -6113.7819     -6180.956       67.174099      22969.622      401.29841      8247.3521      1.5669754      0.62320149   
       900  -6109.4908     -6179.2968      69.805946      22068.021      417.02108      8255.3874      1.5654502      0.62320149   
      1000  -6108.5035     -6177.2913      68.787761      22513.496      410.93844      8248.8342      1.5666939      0.82280227   
      1100  -6106.1134     -6179.1513      73.037923      27218.313      436.32893      8231.9569      1.5699059      0.82280227   
      1200  -6104.8734     -6179.2589      74.385487      32381.426      444.37928      8207.6443      1.5745563      0.82280227   
      1300  -6102.38       -6173.9036      71.523625      32990.638      427.2825       8181.5047      1.5795869      0.82280227   
      1400  -6101.7702     -6177.3371      75.566805      40254.513      451.43648      8162.9883      1.58317        0.82280227   
      1500  -6098.4281     -6172.5383      74.110225      40581.399      442.73486      8153.4359      1.5850248      0.82280227   
      1600  -6097.8662     -6174.3297      76.463484      34839.218      456.79325      8160.0824      1.5837338      0.82280227   
      1700  -6098.1243     -6172.96        74.83565       27204.683      447.06856      8177.7372      1.5803146      0.82280227   
      1800  -6096.2274     -6174.2999      78.072483      29987.998      466.40541      8202.7576      1.5754943      0.82280227   
      1900  -6093.653      -6172.1677      78.514722      31775.677      469.04736      8234.5645      1.5694088      0.82280227   
      2000  -6096.1046     -6173.8014      77.69679       33477.265      464.16103      8268.0012      1.5630619      0.80065264   
      2100  -6095.4162     -6171.3863      75.970097      29648.028      453.84575      8297.7344      1.557461       0.80065264   
      2200  -6094.829      -6172.6311      77.802169      27369.485      464.79056      8322.1027      1.5529005      0.80065264   
      2300  -6096.362      -6171.4655      75.103554      23623.557      448.66902      8335.2455      1.550452       0.80065264   
      2400  -6094.9465     -6175.094       80.147496      26438.469      478.80156      8330.7302      1.5512923      0.80065264   
      2500  -6093.7051     -6170.6384      76.933315      28514.941      459.60002      8313.2355      1.5545569      0.80065264   
      2600  -6092.4836     -6171.7111      79.2275        25971.892      473.30549      8288.7583      1.5591476      0.80065264   
      2700  -6092.4878     -6171.0591      78.571336      28768.428      469.38556      8262.2692      1.5641463      0.80065264   
      2800  -6091.5888     -6170.6576      79.068823      31346.353      472.35756      8242.4027      1.5679163      0.80065264   
      2900  -6092.176      -6170.2698      78.093764      30735.187      466.53255      8232.1973      1.5698601      0.80065264   
      3000  -6094.5185     -6172.5886      78.070107      27020.697      466.39122      8230.4569      1.570192       0.82982347   
      3100  -6093.8736     -6172.2628      78.389128      32103.318      468.29705      8239.1639      1.5685327      0.82982347   
      3200  -6093.7698     -6172.5163      78.746477      27794.623      470.43186      8258.8164      1.5648002      0.82982347   
      3300  -6092.9774     -6170.4056      77.428144      29711.578      462.55613      8287.1199      1.5594559      0.82982347   
      3400  -6089.8169     -6168.4049      78.587946      24255.123      469.48479      8320.5966      1.5531816      0.82982347   
      3500  -6092.1207     -6171.8014      79.680669      29783.171      476.01272      8354.9173      1.5468014      0.82982347   
      3600  -6093.3254     -6172.6092      79.283712      33480.048      473.6413       8381.5035      1.5418949      0.82982347   
      3700  -6092.7465     -6169.1422      76.395714      29352.032      456.38839      8397.0071      1.5390481      0.82982347   
      3800  -6095.8752     -6172.596       76.720786      23187.513      458.33037      8401.124       1.5382939      0.82982347   
      3900  -6097.7511     -6174.5501      76.798976      23226.706      458.79748      8385.7637      1.5411116      0.82982347   
      4000  -6094.5772     -6171.588       77.010831      26210.322      460.0631       8350.5         1.5476196      0.86626445   
      4100  -6090.9767     -6167.0719      76.095214      27177.611      454.5932       8305.9371      1.5559229      0.86626445   
      4200  -6091.12       -6171.5537      80.43369       28793.474      480.51128      8263.9906      1.5638205      0.86626445   
      4300  -6091.4358     -6170.0774      78.641564      30115.321      469.80511      8232.6503      1.5697737      0.86626445   
      4400  -6090.8302     -6169.9562      79.126024      36334.29       472.69927      8221.3595      1.5719295      0.86626445   
      4500  -6092.6456     -6171.9262      79.280668      35911.371      473.62312      8232.2818      1.569844       0.86626445   
      4600  -6095.8773     -6173.2769      77.39963       30053.43       462.38579      8261.0996      1.5643678      0.86626445   
      4700  -6098.8437     -6173.9771      75.133437      28546.941      448.84754      8296.6299      1.5576684      0.86626445   
      4800  -6097.5328     -6174.9615      77.428634      27241.005      462.55906      8330.368       1.5513598      0.86626445   
      4900  -6097.3021     -6172.0432      74.741086      28888.964      446.50363      8356.8367      1.5464462      0.86626445   
      5000  -6095.6998     -6170.8423      75.142498      29040.778      448.90167      8371.8053      1.5436811      0.7709665    
      5100  -6095.414      -6172.343       76.928925      34730.355      459.5738       8373.2215      1.54342        0.7709665    
      5200  -6096.7966     -6174.5436      77.747038      29982.218      464.4612       8361.4042      1.5456014      0.7709665    
      5300  -6095.7041     -6173.2915      77.587343      26495.445      463.50719      8336.6848      1.5501843      0.7709665    
      5400  -6095.1805     -6171.7096      76.529181      30885.215      457.18572      8304.4705      1.5561977      0.7709665    
      5500  -6094.4317     -6172.6283      78.196663      30321.446      467.14727      8274.5419      1.5618264      0.7709665    
      5600  -6091.4434     -6170.1977      78.754252      30540.835      470.47831      8250.6751      1.5663443      0.7709665    
      5700  -6092.3604     -6170.4787      78.118301      33918.878      466.67913      8237.7721      1.5687977      0.7709665    
      5800  -6092.934      -6172.0923      79.158301      28807.274      472.8921       8240.1759      1.5683401      0.7709665    
      5900  -6094.3202     -6170.6891      76.368889      32009.716      456.22814      8256.9933      1.5651457      0.7709665    
      6000  -6095.4865     -6176.669       81.18246       30094.239      484.98443      8284.9335      1.5598674      0.82899795   
      6100  -6096.8093     -6173.3832      76.573909      33409.229      457.45293      8315.8399      1.5540701      0.82899795   
      6200  -6092.9644     -6172.5745      79.610145      37170.247      475.59142      8342.5203      1.5491         0.82899795   
      6300  -6094.1853     -6172.0786      77.893211      32811.83       465.33445      8363.7063      1.545176       0.82899795   
      6400  -6094.1275     -6174.146       80.018536      30042.506      478.03115      8377.1369      1.5426987      0.82899795   
      6500  -6094.2643     -6173.6827      79.418393      34825.094      474.44589      8378.3642      1.5424727      0.82899795   
      6600  -6095.6157     -6172.8118      77.196102      32756.429      461.16991      8366.7225      1.5446189      0.82899795   
      6700  -6095.4468     -6172.0957      76.648958      30044.319      457.90127      8342.9896      1.5490128      0.82899795   
      6800  -6094.0325     -6172.1484      78.115922      29290.341      466.66492      8311.7051      1.5548432      0.82899795   
      6900  -6090.4144     -6170.8958      80.481428      31660.189      480.79646      8279.558       1.5608802      0.82899795   
      7000  -6093.8396     -6170.6245      76.784931      32655.159      458.71357      8252.8753      1.5659267      0.71010466   
      7100  -6091.9148     -6172.8201      80.905337      29735.579      483.3289       8237.9241      1.5687687      0.71010466   
      7200  -6093.2209     -6171.9289      78.707954      33471.36       470.20172      8235.8303      1.5691676      0.71010466   
      7300  -6094.1716     -6171.3533      77.181633      29417.844      461.08347      8245.2608      1.5673728      0.71010466   
      7400  -6095.4394     -6171.4549      76.015524      28573.204      454.11713      8267.2358      1.5632066      0.71010466   
      7500  -6094.8265     -6173.2046      78.378099      30078.423      468.23116      8291.5856      1.558616       0.71010466   
      7600  -6093.7682     -6170.8704      77.102164      27798.032      460.60872      8316.0636      1.5540283      0.71010466   
      7700  -6093.2122     -6172.8584      79.646185      29266.863      475.80672      8338.5655      1.5498347      0.71010466   
      7800  -6095.1105     -6171.9817      76.871189      30799.991      459.22888      8357.1031      1.5463968      0.71010466   
      7900  -6096.1736     -6174.0291      77.855441      26089.403      465.1088       8370.2613      1.5439659      0.71010466   
      8000  -6095.6803     -6171.2113      75.531073      29299.195      451.22302      8369.4259      1.54412        0.8489345    
      8100  -6094.4738     -6173.0477      78.573886      28462.354      469.4008       8361.5621      1.5455722      0.8489345    
      8200  -6095.7994     -6174.0448      78.245461      25706.416      467.43879      8349.19        1.5478625      0.8489345    
      8300  -6092.515      -6170.9164      78.401373      28350.404      468.37021      8331.7308      1.551106       0.8489345    
      8400  -6093.1474     -6170.665       77.517622      29209.881      463.09067      8316.3562      1.5539736      0.8489345    
      8500  -6094.2204     -6171.3409      77.12055       36936.24       460.71857      8307.6905      1.5555945      0.8489345    
      8600  -6096.6723     -6172.3013      75.628996      31891.826      451.80801      8304.0885      1.5562693      0.8489345    
      8700  -6096.3908     -6172.0225      75.631696      29518.937      451.82414      8303.3355      1.5564104      0.8489345    
      8800  -6094.1229     -6170.4249      76.302         28910.491      455.82854      8304.0862      1.5562697      0.8489345    
      8900  -6091.2581     -6167.7248      76.46665       33872.02       456.81216      8309.5677      1.5552431      0.8489345    
      9000  -6091.9387     -6169.8714      77.932703      34093.893      465.57037      8325.8643      1.552199       0.78266953   
      9100  -6093.249      -6174.0813      80.832343      29916.02       482.89284      8348.1661      1.5480523      0.78266953   
      9200  -6091.74       -6170.905       79.164915      28933.928      472.93161      8369.8778      1.5440366      0.78266953   
      9300  -6093.7408     -6173.5726      79.831757      28181.29       476.91533      8388.195       1.5406649      0.78266953   
      9400  -6093.4008     -6171.2917      77.890848      28014.21       465.32033      8396.0792      1.5392182      0.78266953   
      9500  -6092.7851     -6171.1145      78.329332      28261.462      467.93984      8392.6651      1.5398444      0.78266953   
      9600  -6089.6995     -6167.2766      77.577025      28119.168      463.44555      8380.9672      1.5419936      0.78266953   
      9700  -6090.9175     -6168.7364      77.81884       26746.25       464.89015      8365.282       1.5448849      0.78266953   
      9800  -6090.3949     -6168.2852      77.8903        28131.462      465.31705      8348.0853      1.5480673      0.78266953   
      9900  -6087.407      -6165.8608      78.453807      35887.847      468.68345      8333.9052      1.5507013      0.78266953   
     10000  -6085.1436     -6167.7108      82.567231      33769.502      493.25706      8328.2708      1.5517504      0.82219132   
     10100  -6086.5825     -6167.6212      81.038704      28525.575      484.12564      8332.3366      1.5509933      0.82219132   
     10200  -6086.4628     -6166.1217      79.658904      26886.853      475.8827       8343.0547      1.5490007      0.82219132   
     10300  -6088.7705     -6167.7902      79.019744      32333.785      472.06436      8356.5685      1.5464958      0.82219132   
     10400  -6089.226      -6168.7975      79.571502      35499.609      475.36056      8371.2857      1.543777       0.82219132   
     10500  -6092.1941     -6170.4363      78.242161      27327.847      467.41907      8384.4879      1.5413461      0.82219132   
     10600  -6090.2173     -6170.1745      79.957249      30958.519      477.66502      8389.7655      1.5403765      0.82219132   
     10700  -6089.207      -6168.4181      79.211101      29467.857      473.20753      8388.0582      1.5406901      0.82219132   
     10800  -6089.2556     -6170.6295      81.373859      30322.837      486.12785      8380.2744      1.5421211      0.82219132   
     10900  -6090.2232     -6170.2426      80.019346      28739.962      478.03598      8366.6305      1.5446359      0.82219132   
     11000  -6091.5536     -6170.5062      78.95264       28590.032      471.66348      8350.498       1.54762        0.8405318    
     11100  -6093.5465     -6169.4908      75.9443        28305.738      453.69164      8332.3038      1.5509994      0.8405318    
     11200  -6093.2308     -6169.7039      76.473049      29843.574      456.85039      8311.8562      1.5548149      0.8405318    
     11300  -6092.8888     -6171.6548      78.766007      32236.851      470.54853      8293.5047      1.5582553      0.8405318    
     11400  -6093.7287     -6172.5595      78.830855      30811.956      470.93593      8281.2911      1.5605535      0.8405318    
     11500  -6094.7272     -6171.79        77.062813      32848.315      460.37364      8276.3831      1.5614789      0.8405318    
     11600  -6094.4626     -6171.816       77.353467      34075.575      462.11001      8283.1464      1.560204       0.8405318    
     11700  -6094.4937     -6172.3827      77.888962      30345.2        465.30906      8299.4548      1.5571382      0.8405318    
     11800  -6093.2426     -6171.1391      77.896449      28336.193      465.35379      8323.9936      1.5525478      0.8405318    
     11900  -6093.3308     -6172.7855      79.454714      26198.524      474.66287      8355.0669      1.5467737      0.8405318    
     12000  -6091.5053     -6172.2936      80.788336      23684.484      482.62993      8385.4267      1.5411735      0.75744658   
     12100  -6090.3568     -6168.7041      78.3473        28813.509      468.04718      8412.3555      1.5362401      0.75744658   
     12200  -6091.341      -6168.545       77.204031      30102.047      461.21728      8429.9957      1.5330254      0.75744658   
     12300  -6088.4043     -6170.9117      82.507438      31460.396      492.89986      8432.279       1.5326103      0.75744658   
     12400  -6085.7909     -6169.2822      83.491303      30140.099      498.77747      8419.9501      1.5348545      0.75744658   
     12500  -6087.6895     -6167.2674      79.577861      29483.259      475.39855      8394.515       1.539505       0.75744658   
     12600  -6089.451      -6169.97        80.51899       30050.201      481.02086      8361.1329      1.5456515      0.75744658   
     12700  -6091.6922     -6171.9742      80.281974      33195.371      479.60492      8321.7569      1.5529651      0.75744658   
     12800  -6092.5096     -6172.131       79.621457      32785.783      475.659        8281.1733      1.5605757      0.75744658   
     12900  -6092.1292     -6170.5898      78.46068       30106.994      468.72451      8248.0044      1.5668515      0.75744658   
     13000  -6090.0339     -6170.3886      80.354702      33091.96       480.0394       8229.7361      1.5703296      0.83745963   
     13100  -6088.4796     -6170.6776      82.197959      35067.404      491.05103      8229.4052      1.5703927      0.83745963   
     13200  -6090.2437     -6168.5478      78.304099      40979.065      467.78909      8248.7781      1.5667045      0.83745963   
     13300  -6093.3274     -6172.9132      79.585739      34153.232      475.44561      8286.0069      1.5596654      0.83745963   
     13400  -6093.9826     -6170.7882      76.80559       29268.595      458.83699      8323.4275      1.5526534      0.83745963   
     13500  -6091.4494     -6171.8219      80.37256       31062.563      480.14609      8356.3788      1.5465309      0.83745963   
     13600  -6093.5336     -6169.6063      76.072662      32088.627      454.45848      8379.5785      1.5422492      0.83745963   
     13700  -6095.0981     -6172.2949      77.196859      28733.444      461.17444      8390.5466      1.5402331      0.83745963   
     13800  -6092.6317     -6171.3842      78.752553      28528.419      470.46815      8384.5425      1.5413361      0.83745963   
     13900  -6093.7405     -6170.7308      76.990276      32493.126      459.94031      8364.7463      1.5449838      0.83745963   
     14000  -6088.7245     -6171.5444      82.819882      32746.88       494.7664       8340.5778      1.5494607      0.83877976   
     14100  -6090.0151     -6167.7379      77.722827      33673.152      464.31657      8315.0176      1.5542238      0.83877976   
     14200  -6090.908      -6171.1373      80.229261      30389.713      479.29002      8294.0707      1.558149       0.83877976   
     14300  -6091.2549     -6170.9662      79.711297      33901.727      476.1957       8280.0173      1.5607936      0.83877976   
     14400  -6091.9215     -6171.1499      79.228357      28539.058      473.31061      8273.2472      1.5620708      0.83877976   
     14500  -6093.831      -6171.7653      77.934262      29084.164      465.57968      8270.1113      1.5626631      0.83877976   
     14600  -6094.7806     -6174.1125      79.331963      29501.104      473.92956      8272.6206      1.5621891      0.83877976   
     14700  -6095.7811     -6171.5291      75.748001      25796.627      452.51895      8280.048       1.5607878      0.83877976   
     14800  -6095.3562     -6174.5002      79.143986      28082.567      472.80658      8291.4572      1.5586401      0.83877976   
     14900  -6094.2745     -6172.4357      78.161247      29754.496      466.93569      8300.2424      1.5569904      0.83877976   
     15000  -6090.7408     -6170.5984      79.857665      31496.759      477.0701       8307.2332      1.5556802      0.79793443   
     15100  -6091.2346     -6173.1707      81.936159      32539.606      489.48703      8315.0782      1.5542124      0.79793443   
     15200  -6092.2686     -6170.5873      78.318706      30331.114      467.87635      8323.2369      1.5526889      0.79793443   
     15300  -6092.1942     -6172.2228      80.02859       29522.554      478.09121      8328.039       1.5517936      0.79793443   
     15400  -6092.0981     -6172.3641      80.265994      32995.717      479.50946      8328.8421      1.551644       0.79793443   
     15500  -6089.9367     -6170.3163      80.379596      31315.143      480.18812      8327.3501      1.551922       0.79793443   
     15600  -6089.2642     -6171.6394      82.375258      32055.529      492.11022      8327.7725      1.5518433      0.79793443   
     15700  -6087.746      -6167.921       80.174952      30019.636      478.96557      8329.4179      1.5515367      0.79793443   
     15800  -6089.6606     -6169.4349      79.774286      33262.082      476.572        8338.4098      1.5498636      0.79793443   
     15900  -6091.4819     -6172.0612      80.579245      32487.605      481.38083      8348.2285      1.5480408      0.79793443   
     16000  -6088.9897     -6167.7634      78.773692      27108.836      470.59444      8351.3449      1.5474631      0.89403536   
     16100  -6084.7325     -6165.8453      81.112763      32775.85       484.56806      8351.8663      1.5473665      0.89403536   
     16200  -6087.3261     -6169.4468      82.120708      29343.34       490.58953      8354.5405      1.5468712      0.89403536   
     16300  -6089.0952     -6170.9086      81.813403      33023.017      488.75369      8353.9399      1.5469824      0.89403536   
     16400  -6090.9517     -6170.2389      79.287213      30795.624      473.66222      8349.2326      1.5478546      0.89403536   
     16500  -6088.5829     -6168.3285      79.745618      27678.79       476.40073      8339.3632      1.5496864      0.89403536   
     16600  -6089.4995     -6170.8158      81.316266      26368.872      485.78379      8329.8164      1.5514625      0.89403536   
     16700  -6089.6934     -6172.7377      83.044259      27269.115      496.10683      8320.3859      1.553221       0.89403536   
     16800  -6093.3978     -6172.5547      79.156874      29551.13       472.88358      8312.6553      1.5546654      0.89403536   
     16900  -6094.144      -6170.9003      76.756318      30800.732      458.54264      8309.1177      1.5553273      0.89403536   
     17000  -6095.8554     -6174.6964      78.841039      27309.829      470.99677      8305.709       1.5559656      0.81856837   
     17100  -6096.1251     -6173.5325      77.407358      29655.451      462.43196      8299.5007      1.5571296      0.81856837   
     17200  -6095.6653     -6175.0921      79.426797      35184.372      474.49609      8292.8992      1.5583691      0.81856837   
     17300  -6096.9461     -6172.8253      75.879197      34073.584      453.30272      8287.8906      1.5593109      0.81856837   
     17400  -6096.6939     -6175.4658      78.77195       32789.388      470.58403      8283.7934      1.5600821      0.81856837   
     17500  -6096.4407     -6173.3842      76.943538      31051.3        459.66109      8280.4285      1.5607161      0.81856837   
     17600  -6095.3373     -6172.9078      77.570437      30462.089      463.40619      8282.1794      1.5603861      0.81856837   
     17700  -6097.0943     -6174.9484      77.854148      28949.466      465.10108      8288.4008      1.5592149      0.81856837   
     17800  -6096.0321     -6173.0473      77.015262      31438.279      460.08957      8293.8336      1.5581935      0.81856837   
     17900  -6096.5025     -6171.786       75.283511      33004.597      449.74408      8301.0158      1.5568453      0.81856837   
     18000  -6095.3345     -6173.5945      78.259937      30942.84       467.52527      8309.5367      1.5552489      0.80345309   
     18100  -6093.8275     -6170.4815      76.653972      35236.737      457.93123      8317.2425      1.553808       0.80345309   
     18200  -6092.385      -6170.5356      78.150581      34195.448      466.87197      8324.3067      1.5524894      0.80345309   
     18300  -6092.529      -6171.9857      79.456693      29385.102      474.67469      8332.0345      1.5510495      0.80345309   
     18400  -6093.3158     -6170.6222      77.30637       28005.268      461.82865      8339.9972      1.5495686      0.80345309   
     18500  -6094.7258     -6170.7226      75.996767      26347.947      454.00508      8343.4606      1.5489254      0.80345309   
     18600  -6096.9867     -6171.4555      74.468765      28136.217      444.87678      8342.1998      1.5491595      0.80345309   
     18700  -6094.9485     -6174.3519      79.403362      28197.315      474.35609      8335.9793      1.5503155      0.80345309   
     18800  -6095.5904     -6171.7638      76.17333       26791.519      455.05986      8324.7352      1.5524095      0.80345309   
     18900  -6097.7014     -6174.0876      76.38619       29140.352      456.33149      8310.2156      1.5551218      0.80345309   
     19000  -6098.5988     -6174.7869      76.188159      28659.488      455.14846      8291.7474      1.5585856      0.80559682   
     19100  -6097.4807     -6176.0776      78.596835      32205.897      469.5379       8271.4658      1.5624072      0.80559682   
     19200  -6096.1085     -6174.3284      78.219896      35763.141      467.28606      8254.9447      1.5655342      0.80559682   
     19300  -6093.5823     -6172.536       78.953725      32731.979      471.66996      8247.6871      1.5669118      0.80559682   
     19400  -6094.2532     -6172.0135      77.760288      32908.687      464.54036      8255.5434      1.5654206      0.80559682   
     19500  -6095.4171     -6170.5291      75.112063      33606.405      448.71985      8273.7528      1.5619753      0.80559682   
     19600  -6092.6231     -6167.945       75.321916      31054.707      449.97351      8299.1716      1.5571913      0.80559682   
     19700  -6092.0415     -6170.0325      77.991029      29626.394      465.91881      8331.6557      1.55112        0.80559682   
     19800  -6093.2465     -6171.1183      77.871758      23099.44       465.20628      8365.5978      1.5448266      0.80559682   
     19900  -6092.8548     -6169.4764      76.621677      31242.483      457.73829      8387.7898      1.5407394      0.80559682   
     20000  -6095.0513     -6173.395       78.343681      33589.871      468.02556      8398.914       1.5386987      0.83170598   
     20033  -6096.3716     -6174.7177      78.3461        22602.304      468.04         8399.6561      1.5385627      0.83170598   
Loop time of 85.6007 on 1 procs for 20000 steps with 1296 atoms

Performance: 10.093 ns/day, 2.378 hours/ns, 233.643 timesteps/s, 302.801 katom-step/s
99.8% CPU use with 1 MPI tasks x 1 OpenMP threads

MPI task timing breakdown:
Section |  min time  |  avg time  |  max time  |%varavg| %total
---------------------------------------------------------------
Pair    | 65.618     | 65.618     | 65.618     |   0.0 | 76.66
Neigh   | 0.86486    | 0.86486    | 0.86486    |   0.0 |  1.01
Comm    | 0.84895    | 0.84895    | 0.84895    |   0.0 |  0.99
Output  | 0.025227   | 0.025227   | 0.025227   |   0.0 |  0.03
Modify  | 17.799     | 17.799     | 17.799     |   0.0 | 20.79
Other   |            | 0.4442     |            |       |  0.52

Nlocal:           1296 ave        1296 max        1296 min
Histogram: 1 0 0 0 0 0 0 0 0 0
Nghost:           4433 ave        4433 max        4433 min
Histogram: 1 0 0 0 0 0 0 0 0 0
Neighs:              0 ave           0 max           0 min
Histogram: 1 0 0 0 0 0 0 0 0 0
FullNghs:       229742 ave      229742 max      229742 min
Histogram: 1 0 0 0 0 0 0 0 0 0

Total # of neighbors = 229742
Ave neighs/atom = 177.27006
Neighbor list builds = 1999
Dangerous builds = 1996

unfix 3
unfix 4

################## main calculation

dump 		3 all custom 1000 traj.lammpstrj id type element x y z
dump_modify     3 element H O

fix             3 all nph aniso ${pressure} ${pressure} ${pressureDamp}
fix             3 all nph aniso 30000 ${pressure} ${pressureDamp}
fix             3 all nph aniso 30000 30000 ${pressureDamp}
fix             3 all nph aniso 30000 30000 1
fix             4 all temp/csvr ${temperature} ${temperature} ${tempDamp} ${seed}
fix             4 all temp/csvr 465 ${temperature} ${tempDamp} ${seed}
fix             4 all temp/csvr 465 465 ${tempDamp} ${seed}
fix             4 all temp/csvr 465 465 0.1 ${seed}
fix             4 all temp/csvr 465 465 0.1 70843
velocity 	all create ${temperature} ${seed} dist gaussian
velocity 	all create 465 ${seed} dist gaussian
velocity 	all create 465 70843 dist gaussian

run             2000000
WARNING: Fix with atom-based arrays not compatible with Kokkos sorting on device, switching to classic host sorting (src/KOKKOS/atom_kokkos.cpp:216)
Per MPI rank memory allocation (min/avg/max) = 1140 | 1140 | 1140 Mbytes
   Step         TotEng         PotEng         KinEng         Press           Temp          Volume        Density     c_max_pace_gamma
     20033  -6096.8804     -6174.7177      77.837228      22537.594      465            8399.6561      1.5385627      0.83170598   
     20100  -6095.5911     -6173.2595      77.668419      26184.545      463.99154      8394.1308      1.5395755      0.83170598   
     20200  -6095.909      -6171.2746      75.365667      27092.591      450.23489      8370.5665      1.5439096      0.83170598   
     20300  -6094.6278     -6170.3867      75.758983      26108.497      452.58455      8333.5074      1.5507753      0.83170598   
     20400  -6096.3474     -6172.563       76.215526      29058.249      455.31195      8291.3176      1.5586664      0.83170598   
     20500  -6092.6942     -6170.6006      77.906425      34211.787      465.41339      8252.6077      1.5659775      0.83170598   
     20600  -6092.834      -6171.2821      78.448125      33780.171      468.6495       8226.1329      1.5710174      0.83170598   
     20700  -6094.2743     -6173.8121      79.53776       38614.925      475.15899      8216.876       1.5727873      0.83170598   
     20800  -6095.1562     -6172.7084      77.552197      34924.254      463.29722      8223.527       1.5715152      0.83170598   
     20900  -6095.3416     -6173.0286      77.68706       31927.632      464.1029       8240.72        1.5682365      0.83170598   
     21000  -6097.9799     -6174.7686      76.788765      31620.027      458.73648      8266.3502      1.5633741      0.797188     
     21100  -6097.957      -6172.4863      74.529328      35800.739      445.23859      8295.9345      1.5577989      0.797188     
     21200  -6098.7524     -6175.744       76.99154       32317.273      459.94786      8321.9325      1.5529323      0.797188     
     21300  -6098.7067     -6175.102       76.395294      28417.42       456.38588      8336.0302      1.550306       0.797188     
     21400  -6098.6588     -6174.0711      75.412274      26878.492      450.51332      8336.3596      1.5502448      0.797188     
     21500  -6095.9428     -6173.0925      77.149666      28335.991      460.8925       8325.6133      1.5522458      0.797188     
     21600  -6096.2193     -6174.7506      78.531313      28940.674      469.14647      8306.985       1.5557266      0.797188     
     21700  -6094.8286     -6172.3149      77.486298      32706.924      462.90355      8286.8039      1.5595153      0.797188     
     21800  -6093.0077     -6171.8097      78.801974      33963.543      470.7634       8272.4328      1.5622246      0.797188     
     21900  -6090.4735     -6170.9815      80.507976      28907.393      480.95506      8266.2104      1.5634005      0.797188     
     22000  -6092.7759     -6171.8869      79.111044      32512.528      472.60978      8270.1057      1.5626642      0.78176683   
     22100  -6092.8187     -6171.0143      78.195625      27538.11       467.14107      8283.6398      1.560111       0.78176683   
     22200  -6092.4716     -6167.8146      75.342959      33148.353      450.09922      8303.9634      1.5562927      0.78176683   
     22300  -6094.0759     -6173.4996      79.423661      32739.997      474.47736      8332.2445      1.5510104      0.78176683   
     22400  -6093.3288     -6171.7234      78.394564      31096.688      468.32953      8357.6942      1.5462875      0.78176683   
     22500  -6093.1296     -6174.3263      81.196656      29228.967      485.06924      8374.307       1.54322        0.78176683   
     22600  -6092.097      -6170.8139      78.716969      32907.384      470.25558      8381.2822      1.5419356      0.78176683   
     22700  -6092.6327     -6170.7597      78.127047      29350.106      466.73138      8378.1506      1.542512       0.78176683   
     22800  -6092.0305     -6169.5633      77.532822      30547.715      463.18148      8367.5803      1.5444606      0.78176683   
     22900  -6092.1017     -6171.1227      79.021046      32073.441      472.07214      8352.1455      1.5473147      0.78176683   
     23000  -6093.7124     -6172.93        79.217582      31257.82       473.24624      8332.6811      1.5509291      0.81971113   
     23100  -6092.483      -6171.972       79.488922      35451.348      474.86723      8313.9132      1.5544302      0.81971113   
     23200  -6092.0216     -6171.4954      79.473786      33129.207      474.77681      8301.0499      1.556839       0.81971113   
     23300  -6091.0487     -6169.4045      78.355739      28843.491      468.09759      8297.485       1.5575078      0.81971113   
     23400  -6087.7679     -6169.3484      81.580481      30562.351      487.36221      8302.6024      1.5565478      0.81971113   
     23500  -6090.2897     -6171.1581      80.868443      33347.538      483.1085       8317.9696      1.5536722      0.81971113   
     23600  -6090.7546     -6170.5524      79.797837      31293.68       476.71269      8340.0096      1.5495663      0.81971113   
     23700  -6091.0368     -6170.2329      79.196105      31007.26       473.11794      8368.6159      1.5442694      0.81971113   
     23800  -6095.2648     -6173.347       78.082237      29869.657      466.46369      8392.3107      1.5399094      0.81971113   
     23900  -6097.1714     -6172.6077      75.436366      29234.512      450.65724      8402.7289      1.5380001      0.81971113   
     24000  -6094.6162     -6174.3943      79.778066      29648.994      476.59458      8398.9141      1.5386987      0.77102329   
     24100  -6091.4985     -6169.5746      78.076146      33383.144      466.4273       8382.6255      1.5416886      0.77102329   
     24200  -6091.0727     -6170.5491      79.476409      30228.029      474.79248      8362.4226      1.5454131      0.77102329   
     24300  -6092.1884     -6170.7276      78.539121      27902.648      469.19311      8339.4454      1.5496711      0.77102329   
     24400  -6091.6355     -6170.6         78.964499      33600.896      471.73433      8313.1547      1.554572       0.77102329   
     24500  -6092.1724     -6168.8091      76.63664       31721.171      457.82768      8291.1695      1.5586942      0.77102329   
     24600  -6095.1337     -6172.4404      77.306721      34308.774      461.83075      8276.4902      1.5614587      0.77102329   
     24700  -6097.4509     -6171.6812      74.23033       33699.926      443.45237      8267.7466      1.5631101      0.77102329   
     24800  -6095.7864     -6172.8259      77.039489      34735.648      460.2343       8266.3564      1.5633729      0.77102329   
     24900  -6095.7531     -6172.1223      76.369149      35733.583      456.22969      8270.4913      1.5625913      0.77102329   
     25000  -6094.3975     -6174.0469      79.649394      29255.193      475.82589      8284.3739      1.5599728      0.88450882   
     25100  -6095.0555     -6170.2558      75.200315      30148.336      449.24707      8303.4242      1.5563938      0.88450882   
     25200  -6096.5831     -6171.2582      74.67512       28721.471      446.10955      8325.5579      1.5522561      0.88450882   
     25300  -6096.0834     -6173.8888      77.805439      27232.944      464.8101       8345.6208      1.5485245      0.88450882   
     25400  -6096.6047     -6173.8485      77.243829      28921.55       461.45503      8360.4451      1.5457787      0.88450882   
     25500  -6095.9324     -6173.3088      77.376335      28408.214      462.24663      8368.7941      1.5442366      0.88450882   
     25600  -6093.1416     -6171.0162      77.874616      28669.438      465.22336      8370.9841      1.5438326      0.88450882   
     25700  -6093.8339     -6172.9585      79.124622      29345.712      472.6909       8367.8246      1.5444155      0.88450882   
     25800  -6093.803      -6172.6026      78.79964       29683.296      470.74945      8358.0141      1.5462283      0.88450882   
     25900  -6094.6959     -6170.5991      75.903152      31266.531      453.44582      8342.5221      1.5490996      0.88450882   
     26000  -6095.1714     -6171.7246      76.553178      30236.46       457.32908      8321.9425      1.5529305      0.90002027   
     26100  -6095.4817     -6171.2604      75.778712      29395.695      452.70242      8296.7664      1.5576427      0.90002027   
     26200  -6091.0035     -6169.1278      78.124352      33086.381      466.71528      8274.9186      1.5617553      0.90002027   
     26300  -6092.3575     -6173.837       81.479494      30781.323      486.75892      8264.5496      1.5637147      0.90002027   
     26400  -6092.6299     -6170.9338      78.303923      33886.984      467.78804      8264.0495      1.5638093      0.90002027   
     26500  -6092.8625     -6171.4873      78.624727      29814.005      469.70452      8276.393       1.5614771      0.90002027   
     26600  -6095.3043     -6173.54        78.235741      27440.653      467.38072      8296.4586      1.5577005      0.90002027   
     26700  -6095.728      -6173.3683      77.64028       30567.35       463.82343      8317.6329      1.5537351      0.90002027   
     26800  -6094.7744     -6171.8146      77.040208      33510.269      460.2386       8337.8088      1.5499753      0.90002027   
     26900  -6091.8017     -6173.7592      81.957514      29191.652      489.61461      8355.1819      1.5467524      0.90002027   
     27000  -6095.3812     -6172.5858      77.204653      30171.054      461.221        8364.3592      1.5450553      0.80219298   
     27100  -6093.5995     -6169.8229      76.223354      32611.982      455.35871      8363.313       1.5452486      0.80219298   
     27200  -6093.9851     -6171.3847      77.399583      31332.522      462.3855       8356.3896      1.5465289      0.80219298   
     27300  -6094.3601     -6169.5215      75.161406      32286.658      449.01463      8342.357       1.5491303      0.80219298   
     27400  -6094.9506     -6172.2263      77.275726      29612.947      461.64559      8324.5908      1.5524364      0.80219298   
     27500  -6093.5331     -6170.5519      77.018853      25269.659      460.11102      8305.6073      1.5559847      0.80219298   
     27600  -6092.125      -6170.2024      78.077386      28969.549      466.43471      8290.1345      1.5588888      0.80219298   
     27700  -6091.7186     -6171.719       80.000431      32895.233      477.92299      8281.0687      1.5605954      0.80219298   
     27800  -6093.6955     -6171.6139      77.918388      32509.746      465.48485      8280.4728      1.5607077      0.80219298   
     27900  -6095.1686     -6173.4184      78.249771      29430.695      467.46454      8287.7178      1.5593434      0.80219298   
     28000  -6094.9297     -6172.8576      77.927843      28468.299      465.54134      8298.1596      1.5573812      0.81402163   
     28100  -6094.7588     -6172.2626      77.503755      25722.882      463.00783      8312.5869      1.5546782      0.81402163   
     28200  -6096.8974     -6172.6434      75.745957      33310.466      452.50674      8328.7293      1.551665       0.81402163   
     28300  -6093.8811     -6172.701       78.819881      29480.108      470.87037      8342.2257      1.5491547      0.81402163   
     28400  -6095.3063     -6174.547       79.240699      27497.694      473.38435      8351.4335      1.5474467      0.81402163   
     28500  -6096.3623     -6173.8091      77.446766      27709.295      462.66738      8352.3551      1.5472759      0.81402163   
     28600  -6098.2764     -6174.1853      75.908902      31103.019      453.48017      8342.46        1.5491112      0.81402163   
     28700  -6097.8571     -6174.5463      76.689198      32850.634      458.14166      8322.4597      1.5528339      0.81402163   
     28800  -6094.9188     -6171.7569      76.838113      33477.413      459.03128      8294.098       1.5581439      0.81402163   
     28900  -6091.3096     -6170.8188      79.509154      32874.766      474.9881       8267.1001      1.5632323      0.81402163   
     29000  -6091.9117     -6171.8816      79.969883      29648.55       477.74049      8250.2057      1.5664334      0.79763438   
     29100  -6092.9744     -6171.2919      78.317546      29929.305      467.86942      8243.9726      1.5676178      0.79763438   
     29200  -6091.3866     -6169.7463      78.359701      28870.625      468.12126      8252.6326      1.5659728      0.79763438   
     29300  -6094.1128     -6172.0995      77.986663      30079.905      465.89272      8276.3775      1.56148        0.79763438   
     29400  -6094.0951     -6171.1331      77.037976      30020.389      460.22526      8306.1238      1.5558879      0.79763438   
     29500  -6094.4811     -6174.6003      80.119247      26564.389      478.63279      8340.5782      1.5494607      0.79763438   
     29600  -6092.2684     -6169.6871      77.418678      26761.776      462.49958      8369.3722      1.5441299      0.79763438   
     29700  -6093.5589     -6171.5787      78.019757      30305.472      466.09043      8392.9097      1.5397995      0.79763438   
     29800  -6093.2906     -6170.3802      77.08956       26230.178      460.53343      8405.2314      1.5375422      0.79763438   
     29900  -6090.2929     -6170.713       80.420129      27608.207      480.43027      8401.8218      1.5381662      0.79763438   
     30000  -6087.306      -6167.2861      79.980139      32080.189      477.80176      8386.9401      1.5408955      0.90008985   
     30100  -6087.9734     -6168.0741      80.100743      29428.84       478.52225      8368.1548      1.5443545      0.90008985   
     30200  -6087.0481     -6168.1587      81.110597      31021.031      484.55513      8348.2471      1.5480373      0.90008985   
     30300  -6088.8412     -6170.5109      81.669687      31586.818      487.89513      8328.6815      1.5516739      0.90008985   
     30400  -6088.7366     -6167.9346      79.19801       35099.934      473.12932      8311.8951      1.5548076      0.90008985   
     30500  -6091.4807     -6168.3467      76.865975      36164.165      459.19773      8303.5882      1.5563631      0.90008985   
     30600  -6089.3102     -6169.3394      80.029166      33547.165      478.09465      8302.5675      1.5565544      0.90008985   
     30700  -6088.9644     -6167.6839      78.719548      31419.334      470.27099      8309.3384      1.555286       0.90008985   
     30800  -6089.1496     -6169.7058      80.556127      28876.263      481.24272      8325.0152      1.5523573      0.90008985   
     30900  -6090.8147     -6168.8695      78.054751      29442.456      466.29948      8346.6523      1.5483331      0.90008985   
     31000  -6092.6702     -6169.802       77.131768      27841.248      460.78558      8371.2388      1.5437856      0.92133233   
     31100  -6095.0004     -6170.4905      75.490039      23530.814      450.97788      8393.1661      1.5397524      0.92133233   
     31200  -6094.6704     -6171.2585      76.58815       26943.543      457.538        8404.2477      1.5377222      0.92133233   
     31300  -6094.645      -6169.8031      75.158122      22283.586      448.99501      8401.2384      1.538273       0.92133233   
     31400  -6094.4538     -6171.7746      77.32078       25394.136      461.91474      8385.9788      1.5410721      0.92133233   
     31500  -6094.9526     -6170.9074      75.954831      30354.541      453.75455      8359.1979      1.5460093      0.92133233   
     31600  -6094.0323     -6171.4582      77.425919      31438.994      462.54284      8324.6576      1.552424       0.92133233   
     31700  -6092.733      -6169.2125      76.479506      34069.957      456.88896      8289.5697      1.558995       0.92133233   
     31800  -6091.092      -6170.5621      79.470131      31958.651      474.75497      8262.8121      1.5640435      0.92133233   
     31900  -6090.9226     -6172.4247      81.502124      29643.307      486.89411      8249.2649      1.5666121      0.92133233   
     32000  -6089.2647     -6168.048       78.783338      37115.389      470.65207      8248.7719      1.5667057      0.80925853   
     32100  -6088.633      -6167.6315      78.998505      35016.721      471.93748      8268.9454      1.5628834      0.80925853   
     32200  -6090.1651     -6171.043       80.877948      34150.039      483.16528      8305.0822      1.5560831      0.80925853   
     32300  -6088.3978     -6165.2317      76.833872      30853.014      459.00595      8350.4453      1.5476298      0.80925853   
     32400  -6086.5758     -6167.7612      81.185435      33675.48       485.00221      8397.1822      1.539016       0.80925853   
     32500  -6089.25       -6168.4953      79.24525       26016.443      473.41153      8437.3516      1.5316889      0.80925853   
     32600  -6091.9396     -6171.1398      79.200166      26294.35       473.1422       8461.4639      1.5273241      0.80925853   
     32700  -6093.7726     -6170.6415      76.868925      26067.119      459.21535      8463.2574      1.5270004      0.80925853   
     32800  -6093.9927     -6171.5631      77.57035       23351.713      463.40567      8444.0523      1.5304734      0.80925853   
     32900  -6093.5193     -6171.6868      78.167489      30473.819      466.97298      8406.9134      1.5372346      0.80925853   
     33000  -6090.3635     -6171.9414      81.577871      28916.753      487.34662      8359.4183      1.5459686      0.83132998   
     33100  -6088.1019     -6168.0103      79.908392      33222.921      477.37315      8311.9985      1.5547883      0.83132998   
     33200  -6088.7853     -6170.2497      81.464416      29741.79       486.66884      8275.8042      1.5615882      0.83132998   
     33300  -6091.1077     -6170.6035      79.495762      30394.637      474.90809      8255.6323      1.5654038      0.83132998   
     33400  -6091.4668     -6172.3666      80.899844      29534.542      483.29609      8251.4397      1.5661992      0.83132998   
     33500  -6089.04       -6169.0772      80.037259      31554.867      478.143        8260.0802      1.5645608      0.83132998   
     33600  -6091.4306     -6170.01        78.579375      31029.376      469.43359      8284.6762      1.5599159      0.83132998   
     33700  -6094.1389     -6171.6452      77.506307      33139.424      463.02308      8315.5355      1.554127       0.83132998   
     33800  -6092.0973     -6170.0366      77.93938       31750.077      465.61026      8342.0528      1.5491868      0.83132998   
     33900  -6094.2617     -6171.0103      76.748531      26026.834      458.49612      8362.1102      1.5454709      0.83132998   
     34000  -6089.4588     -6170.0793      80.62054       30879.327      481.62752      8372.7167      1.5435131      0.81288006   
     34100  -6091.2392     -6170.2887      79.049446      34143.597      472.2418       8373.5876      1.5433526      0.81288006   
     34200  -6091.476      -6172.6361      81.160136      31283.31       484.85107      8367.9992      1.5443833      0.81288006   
     34300  -6092.3243     -6170.7114      78.387085      29622.138      468.28485      8355.8531      1.5466282      0.81288006   
     34400  -6092.4531     -6170.4415      77.988414      28628.879      465.90319      8337.3762      1.5500557      0.81288006   
     34500  -6093.2201     -6168.879       75.658903      32882.448      451.98667      8317.3255      1.5537925      0.81288006   
     34600  -6093.869      -6170.5123      76.643319      32558.296      457.86758      8303.9251      1.5562999      0.81288006   
     34700  -6095.2012     -6170.2251      75.023854      34346.922      448.19289      8293.7316      1.5582127      0.81288006   
     34800  -6094.4169     -6171.3339      76.916968      34144.123      459.50236      8285.6797      1.5597269      0.81288006   
     34900  -6093.5968     -6173.1227      79.525896      29217.26       475.08811      8280.2022      1.5607587      0.81288006   
     35000  -6089.7598     -6168.9381      79.178287      31102.177      473.01149      8280.9883      1.5606106      0.80177591   
     35100  -6090.5373     -6171.0267      80.489398      30582.755      480.84408      8292.3824      1.5584662      0.80177591   
     35200  -6091.858      -6168.2567      76.398784      26062.004      456.40673      8309.8544      1.5551895      0.80177591   
     35300  -6091.9414     -6170.7329      78.791479      31700.476      470.7007       8330.6237      1.5513122      0.80177591   
     35400  -6092.2539     -6169.473       77.219131      30046.363      461.30749      8349.085       1.5478819      0.80177591   
     35500  -6090.3312     -6169.5781      79.246944      30104.087      473.42165      8363.4373      1.5452257      0.80177591   
     35600  -6089.3763     -6167.3003      77.924081      28079.17       465.51886      8371.7689      1.5436878      0.80177591   
     35700  -6087.9008     -6170.0435      82.142741      26447.131      490.72116      8377.1432      1.5426975      0.80177591   
     35800  -6090.507      -6169.8037      79.296705      26732.096      473.71892      8375.8838      1.5429295      0.80177591   
     35900  -6091.2933     -6168.9079      77.6146        28261.095      463.67002      8368.5883      1.5442746      0.80177591   
     36000  -6088.3303     -6169.3516      81.021329      31719.371      484.02184      8356.8451      1.5464446      0.86395912   
     36100  -6084.2564     -6168.2302      83.973873      31846.108      501.66035      8343.8522      1.5488527      0.86395912   
     36200  -6086.613      -6166.2434      79.630339      28650.974      475.71205      8332.7791      1.5509109      0.86395912   
     36300  -6088.141      -6167.6219      79.480882      29295.987      474.8192       8328.0996      1.5517823      0.86395912   
     36400  -6090.4341     -6171.0931      80.659009      35766.663      481.85733      8329.2598      1.5515662      0.86395912   
     36500  -6088.1968     -6170.3057      82.108909      34686.354      490.51905      8331.92        1.5510708      0.86395912   
     36600  -6089.782      -6168.5959      78.813852      30969.79       470.83436      8337.7393      1.5499882      0.86395912   
     36700  -6089.7763     -6170.1997      80.4234        33092.927      480.44981      8345.3248      1.5485794      0.86395912   
     36800  -6093.9879     -6171.7034      77.715522      29335.452      464.27293      8352.932       1.547169       0.86395912   
     36900  -6094.9569     -6171.7103      76.753484      30804.104      458.52571      8354.3675      1.5469032      0.86395912   
     37000  -6095.9582     -6174.6237      78.665468      29157.358      469.94791      8347.5941      1.5481584      0.89579609   
     37100  -6096.0872     -6173.2853      77.198131      26939.069      461.18203      8332.9455      1.5508799      0.89579609   
     37200  -6095.428      -6174.4981      79.07007       32120.283      472.36501      8312.6468      1.554667       0.89579609   
     37300  -6096.7812     -6173.598       76.816739      30865.731      458.9036       8290.5726      1.5588064      0.89579609   
     37400  -6095.6508     -6172.9066      77.255776      31871.18       461.5264       8269.2466      1.5628265      0.89579609   
     37500  -6094.9086     -6172.3546      77.446034      35795.358      462.66301      8252.6733      1.565965       0.89579609   
     37600  -6094.3293     -6169.7052      75.375912      31986.064      450.29608      8245.059       1.5674112      0.89579609   
     37700  -6096.0129     -6172.5699      76.557007      33481.503      457.35196      8246.9026      1.5670608      0.89579609   
     37800  -6095.0819     -6171.9343      76.852375      31664.032      459.11648      8260.391       1.564502       0.89579609   
     37900  -6096.3283     -6173.4446      77.116317      31420.271      460.69328      8282.2094      1.5603805      0.89579609   
     38000  -6095.5026     -6175.4107      79.908069      27089.539      477.37122      8309.4357      1.5552678      0.83109055   
     38100  -6094.3593     -6170.853       76.493631      29897.047      456.97334      8335.3597      1.5504307      0.83109055   
     38200  -6092.4966     -6172.3296      79.832959      30443.879      476.92251      8358.3509      1.546166       0.83109055   
     38300  -6093.5013     -6172.5041      79.002784      28516.122      471.96304      8372.9449      1.543471       0.83109055   
     38400  -6093.286      -6172.2318      78.945831      28254.884      471.6228       8378.1793      1.5425067      0.83109055   
     38500  -6094.5763     -6172.4509      77.874577      31525.735      465.22312      8374.9999      1.5430923      0.83109055   
     38600  -6096.6017     -6172.5278      75.926186      26992.067      453.58342      8360.3317      1.5457997      0.83109055   
     38700  -6094.1738     -6170.3858      76.211941      30041.677      455.29053      8335.6314      1.5503802      0.83109055   
     38800  -6095.0374     -6172.943       77.90552       33709.168      465.40798      8307.7287      1.5555874      0.83109055   
     38900  -6096.8538     -6171.0605      74.20678       36585.605      443.31169      8280.2389      1.5607518      0.83109055   
     39000  -6097.7011     -6174.7074      77.006272      35178.809      460.03586      8258.2581      1.564906       0.79290511   
     39100  -6096.8687     -6173.2066      76.337913      37979.949      456.04308      8243.0682      1.5677897      0.79290511   
     39200  -6095.8004     -6172.0678      76.267405      34177.171      455.62187      8238.8948      1.5685839      0.79290511   
     39300  -6093.7725     -6173.9094      80.136914      30002.623      478.73834      8246.0174      1.567229       0.79290511   
     39400  -6094.5621     -6170.0087      75.446642      30991.639      450.71863      8268.1939      1.5630255      0.79290511   
     39500  -6095.5825     -6174.475       78.8925        29302.652      471.3042       8300.9328      1.5568609      0.79290511   
     39600  -6093.0697     -6170.6679      77.598122      31678.433      463.57158      8338.3372      1.5498771      0.79290511   
     39700  -6092.6452     -6170.7332      78.088059      28053.633      466.49847      8373.5464      1.5433602      0.79290511   
     39800  -6093.111      -6171.03        77.918966      33092.95       465.4883       8402.3887      1.5380624      0.79290511   
     39900  -6092.6561     -6169.9305      77.27432       31302.779      461.63719      8420.4168      1.5347694      0.79290511   
     40000  -6094.9382     -6172.859       77.920824      34266.169      465.49941      8424.1666      1.5340862      0.80643307   
     40100  -6095.4586     -6172.1426      76.683949      25156.192      458.11031      8412.8786      1.5361446      0.80643307   
     40200  -6092.7895     -6171.3722      78.582711      29008.942      469.45352      8386.3086      1.5410115      0.80643307   
     40300  -6092.4294     -6169.3747      76.945217      31878.977      459.67113      8350.6254      1.5475964      0.80643307   
     40400  -6092.0527     -6171.0317      78.979049      26972.815      471.82125      8313.8622      1.5544397      0.80643307   
     40500  -6091.6878     -6172.2366      80.548801      29599.373      481.19895      8279.8932      1.560817       0.80643307   
     40600  -6091.7818     -6171.6278      79.845924      32013.746      476.99996      8255.5832      1.5654131      0.80643307   
     40700  -6091.2888     -6168.6692      77.380451      35790.707      462.27122      8248.7208      1.5667154      0.80643307   
     40800  -6093.7699     -6172.6317      78.861714      32540.335      471.12029      8261.7831      1.5642383      0.80643307   
     40900  -6092.493      -6172.2822      79.789273      29131.54       476.66153      8286.3743      1.5595962      0.80643307   
     41000  -6095.1773     -6172.546       77.368716      27170.811      462.20111      8317.7738      1.5537087      0.82474716   
     41100  -6095.3927     -6171.1288      75.736037      28152.514      452.44748      8347.9793      1.548087       0.82474716   
     41200  -6094.0184     -6170.6644      76.645982      24976.433      457.88349      8372.0643      1.5436334      0.82474716   
     41300  -6095.1624     -6173.126       77.963659      25321.788      465.7553       8386.0086      1.5410666      0.82474716   
     41400  -6093.6518     -6171.1397      77.487874      27993.383      462.91296      8387.0228      1.5408803      0.82474716   
     41500  -6094.4242     -6172.3527      77.928568      30101.053      465.54567      8377.6998      1.542595       0.82474716   
     41600  -6095.2809     -6171.7296      76.448757      30764.074      456.70527      8357.6101      1.546303       0.82474716   
     41700  -6093.2728     -6173.008       79.735232      32739.209      476.33869      8329.1054      1.551595       0.82474716   
     41800  -6089.8795     -6168.4001      78.520652      34201.923      469.08278      8298.4807      1.557321       0.82474716   
     41900  -6091.0059     -6170.0969      79.090951      32090.307      472.48975      8278.6259      1.5610559      0.82474716   
     42000  -6088.9792     -6170.1358      81.156545      31372.961      484.82962      8270.6037      1.5625701      0.81914372   
     42100  -6089.3495     -6171.7752      82.425673      30643.518      492.41139      8274.8192      1.561774       0.81914372   
     42200  -6086.3851     -6167.339       80.953938      33457.064      483.61924      8291.5128      1.5586297      0.81914372   
     42300  -6090.7683     -6169.6175      78.849194      30276.039      471.04549      8321.2777      1.5530545      0.81914372   
     42400  -6091.5722     -6171.9459      80.373632      29156.006      480.15249      8356.9865      1.5464184      0.81914372   
     42500  -6095.4139     -6170.8554      75.441459      26167.612      450.68766      8384.8328      1.5412827      0.81914372   
     42600  -6098.4682     -6172.3898      73.921598      24895.716      441.608        8395.7411      1.5392802      0.81914372   
     42700  -6097.8473     -6174.315       76.467637      26508.907      456.81806      8390.9016      1.540168       0.81914372   
     42800  -6094.2043     -6172.5885      78.384172      28500.117      468.26745      8368.6675      1.5442599      0.81914372   
     42900  -6094.0198     -6170.9668      76.946918      29674.782      459.68128      8334.1033      1.5506645      0.81914372   
     43000  -6095.3143     -6171.9898      76.675433      33515.813      458.05943      8300.6342      1.5569169      0.85304696   
     43100  -6094.4834     -6172.9003      78.416874      30403.451      468.46281      8273.0377      1.5621104      0.85304696   
     43200  -6093.5111     -6168.1185      74.607438      35801.693      445.70522      8253.7377      1.5657631      0.85304696   
     43300  -6093.0452     -6170.0822      77.037         33582.091      460.21944      8252.5867      1.5659815      0.85304696   
     43400  -6091.3156     -6168.6932      77.377553      32950.597      462.2539       8269.0297      1.5628675      0.85304696   
     43500  -6093.037      -6169.9572      76.920186      32990.146      459.52159      8297.8622      1.557437       0.85304696   
     43600  -6095.3484     -6172.4355      77.087069      33120.918      460.51855      8331.1175      1.5512202      0.85304696   
     43700  -6094.5269     -6172.6432      78.116336      32645.283      466.6674       8360.258       1.5458133      0.85304696   
     43800  -6091.5752     -6172.7967      81.221429      28770.115      485.21724      8380.3884      1.5421001      0.85304696   
     43900  -6091.6045     -6169.9179      78.313391      31539.853      467.8446       8390.323       1.5402742      0.85304696   
     44000  -6090.7665     -6170.1822      79.415717      30238.078      474.4299       8392.7532      1.5398282      0.82223667   
     44100  -6090.7404     -6172.1128      81.372406      29012.691      486.11918      8385.7909      1.5411066      0.82223667   
     44200  -6090.4089     -6171.0224      80.613577      23943.27       481.58592      8372.8478      1.5434889      0.82223667   
     44300  -6090.2712     -6169.6938      79.422646      31368.336      474.4713       8358.3427      1.5461675      0.82223667   
     44400  -6088.2353     -6167.7906      79.555304      28596.966      475.2638       8346.2197      1.5484133      0.82223667   
     44500  -6088.5585     -6169.924       81.36551       34886.045      486.07798      8341.2793      1.5493304      0.82223667   
     44600  -6090.3099     -6172.1111      81.801233      29617.802      488.68099      8341.4623      1.5492964      0.82223667   
     44700  -6092.094      -6169.6939      77.599963      25414.268      463.58258      8341.1685      1.549351       0.82223667   
     44800  -6092.8218     -6170.9367      78.114832      30386.829      466.65841      8344.8274      1.5486717      0.82223667   
     44900  -6091.67       -6169.9592      78.289124      30210.773      467.69963      8347.6173      1.5481541      0.82223667   
     45000  -6091.7871     -6170.1691      78.381912      29040.786      468.25395      8350.0794      1.5476976      0.83631797   
     45100  -6092.6242     -6170.3925      77.76836       26546.862      464.58858      8349.8943      1.5477319      0.83631797   
     45200  -6091.5814     -6169.7287      78.147228      27225.107      466.85194      8347.6673      1.5481448      0.83631797   
     45300  -6089.157      -6167.1027      77.945613      32136.779      465.6475       8346.3566      1.5483879      0.83631797   
     45400  -6090.8972     -6169.0906      78.193436      30822.524      467.12799      8347.3237      1.5482085      0.83631797   
     45500  -6091.6873     -6169.5084      77.821141      23923.214      464.90389      8347.9114      1.5480995      0.83631797   
     45600  -6092.6662     -6170.756       78.089823      25222.844      466.50901      8348.4977      1.5479908      0.83631797   
     45700  -6094.118      -6172.6753      78.557306      26275.914      469.30175      8347.8171      1.548117       0.83631797   
     45800  -6091.4465     -6168.1898      76.74332       30797.625      458.46499      8342.9986      1.5490112      0.83631797   
     45900  -6093.0845     -6169.4583      76.373759      30740.193      456.25723      8341.9793      1.5492004      0.83631797   
     46000  -6094.0037     -6172.0272      78.023473      33553.039      466.11263      8340.9245      1.5493963      0.82219497   
     46100  -6091.5304     -6169.9254      78.394996      34984.117      468.33211      8336.5691      1.5502058      0.82219497   
     46200  -6091.8121     -6169.0773      77.265212      32563.43       461.58277      8332.9725      1.5508749      0.82219497   
     46300  -6090.6395     -6170.9032      80.263645      30600.196      479.49543      8332.49        1.5509647      0.82219497   
     46400  -6094.114      -6172.2797      78.165691      30567.941      466.96224      8333.1818      1.5508359      0.82219497   
     46500  -6092.8329     -6171.1628      78.329958      27636.173      467.94357      8337.5139      1.5500302      0.82219497   
     46600  -6091.2398     -6169.7125      78.47264       31994.218      468.79596      8346.6764      1.5483286      0.82219497   
     46700  -6093.7081     -6171.8406      78.132541      33004.53       466.7642       8357.9749      1.5462355      0.82219497   
     46800  -6095.9624     -6171.9845      76.022145      27276.107      454.15668      8364.4197      1.5450442      0.82219497   
     46900  -6095.933      -6171.7081      75.775118      26362.806      452.68095      8361.2884      1.5456228      0.82219497   
     47000  -6093.8596     -6169.9315      76.071981      25677.048      454.45441      8348.7133      1.5479508      0.80007537   
     47100  -6093.4017     -6169.7059      76.304182      25945.384      455.84158      8330.7442      1.5512897      0.80007537   
     47200  -6091.2703     -6169.4214      78.151066      30573.07       466.87487      8312.7134      1.5546546      0.80007537   
     47300  -6090.9981     -6169.5984      78.600351      30776.437      469.5589       8296.97        1.5576045      0.80007537   
     47400  -6089.9498     -6169.5016      79.551775      30246.114      475.24272      8288.7054      1.5591576      0.80007537   
     47500  -6089.8063     -6168.4893      78.683021      32368.579      470.05277      8290.5733      1.5588063      0.80007537   
     47600  -6090.1859     -6167.9947      77.808875      33102.298      464.83062      8304.0556      1.5562755      0.80007537   
     47700  -6090.6808     -6167.3805      76.699698      30622.986      458.20439      8328.4503      1.551717       0.80007537   
     47800  -6089.615      -6169.063       79.448007      26984.491      474.6228       8358.3972      1.5461574      0.80007537   
     47900  -6088.8675     -6167.2197      78.352222      27942.302      468.07658      8384.3764      1.5413666      0.80007537   
     48000  -6089.5956     -6166.8536      77.257965      28727.479      461.53948      8402.7754      1.5379916      0.78116901   
     48100  -6088.5353     -6170.0311      81.495815      24907.961      486.85642      8409.6019      1.5367431      0.78116901   
     48200  -6087.8537     -6164.6949      76.841245      29891.863      459.04999      8404.8266      1.5376162      0.78116901   
     48300  -6088.3725     -6169.8145      81.441974      30361.041      486.53477      8392.7018      1.5398376      0.78116901   
     48400  -6087.5066     -6169.8147      82.308085      30137.528      491.70893      8374.3664      1.543209       0.78116901   
     48500  -6087.4195     -6169.3535      81.933933      29238.759      489.47374      8352.2716      1.5472914      0.78116901   
     48600  -6090.5633     -6169.9127      79.349448      28008.301      474.03401      8331.4646      1.5511556      0.78116901   
     48700  -6091.4568     -6168.2494      76.792545      30744.939      458.75906      8315.034       1.5542207      0.78116901   
     48800  -6092.1565     -6169.7523      77.595796      31200.063      463.55768      8307.2293      1.5556809      0.78116901   
     48900  -6090.8633     -6170.8329      79.969633      29836.15       477.739        8307.6409      1.5556038      0.78116901   
     49000  -6089.8188     -6171.1557      81.336848      31130.227      485.90675      8315.1801      1.5541934      0.8371302    
     49100  -6087.7084     -6166.1174      78.409027      35543.168      468.41593      8329.4331      1.5515339      0.8371302    
     49200  -6090.5535     -6170.1347      79.581202      29633.857      475.41851      8352.3462      1.5472776      0.8371302    
     49300  -6091.547      -6169.8064      78.259382      28779.448      467.52195      8380.3537      1.5421065      0.8371302    
     49400  -6092.4824     -6169.919       77.436577      34238.162      462.60651      8401.9029      1.5381513      0.8371302    
     49500  -6092.928      -6170.8799      77.951969      33112.337      465.68546      8414.0629      1.5359284      0.8371302    
     49600  -6091.9481     -6170.3884      78.44023       32783.817      468.60234      8412.7149      1.5361745      0.8371302    
     49700  -6092.4481     -6168.1039      75.655843      33803.312      451.96839      8401.9324      1.5381459      0.8371302    
     49800  -6091.3427     -6169.7317      78.38897       32008.72       468.29611      8386.0305      1.5410626      0.8371302    
     49900  -6089.2836     -6166.0682      76.784529      30592.781      458.71117      8369.3567      1.5441328      0.8371302    
     50000  -6089.1926     -6165.5087      76.316083      31121.935      455.91267      8354.7579      1.5468309      0.79928708   
     50100  -6091.1224     -6167.6948      76.572397      31785.788      457.44389      8346.4041      1.5483791      0.79928708   
     50200  -6090.5374     -6169.4336      78.896233      33289.629      471.3265       8340.886       1.5494035      0.79928708   
     50300  -6090.3936     -6166.9891      76.595505      33383.655      457.58194      8337.3383      1.5500628      0.79928708   
     50400  -6089.8333     -6170.9632      81.129906      27247.212      484.67048      8339.9853      1.5495708      0.79928708   
     50500  -6090.7609     -6167.3261      76.565184      30268.3        457.4008       8345.7578      1.548499       0.79928708   
     50600  -6090.3182     -6169.254       78.935862      29459.819      471.56325      8356.0927      1.5465838      0.79928708   
     50700  -6090.9568     -6168.9113      77.954564      27565.172      465.70097      8370.5736      1.5439083      0.79928708   
     50800  -6090.1742     -6170.1069      79.93271       28732.185      477.51842      8389.8901      1.5403537      0.79928708   
     50900  -6091.6075     -6171.151       79.543502      27756.059      475.19329      8405.8142      1.5374356      0.79928708   
     51000  -6089.7213     -6170.1051      80.383816      34417.03       480.21333      8413.0444      1.5361143      0.7613788    
     51100  -6089.759      -6167.5452      77.786167      28563.671      464.69496      8416.3939      1.535503       0.7613788    
     51200  -6092.9559     -6170.2639      77.307936      25684.394      461.83801      8418.2935      1.5351565      0.7613788    
     51300  -6093.4742     -6171.4873      78.013071      27646.703      466.05049      8412.8816      1.536144       0.7613788    
     51400  -6093.4594     -6170.5104      77.051015      33010.087      460.30316      8397.4604      1.538965       0.7613788    
     51500  -6090.4815     -6172.4969      82.015331      34080.922      489.96001      8373.8303      1.5433078      0.7613788    
     51600  -6092.4861     -6169.2213      76.735204      32643.746      458.4165       8348.8132      1.5479323      0.7613788    
     51700  -6089.0814     -6168.852       79.77062       33093.776      476.55009      8327.6137      1.5518729      0.7613788    
     51800  -6088.8409     -6167.4141      78.573186      31063.943      469.39662      8312.5427      1.5546865      0.7613788    
     51900  -6087.8825     -6167.7538      79.87134       31902.44       477.1518       8309.6576      1.5552263      0.7613788    
     52000  -6092.4169     -6171.7974      79.380451      30889.87       474.21923      8318.225       1.5536245      0.83439089   
     52100  -6090.336      -6169.4683      79.132347      35156.777      472.73705      8330.5322      1.5513292      0.83439089   
     52200  -6090.0788     -6169.5638      79.485005      31952.634      474.84383      8347.7538      1.5481288      0.83439089   
     52300  -6092.3324     -6169.3389      77.00652       30894.674      460.03735      8370.1045      1.5439948      0.83439089   
     52400  -6091.289      -6172.8192      81.530188      26598.462      487.06176      8391.5887      1.5400419      0.83439089   
     52500  -6093.3722     -6171.7261      78.353813      28131.132      468.08608      8406.8555      1.5372452      0.83439089   
     52600  -6090.9502     -6168.2089      77.258677      30556.256      461.54373      8414.0232      1.5359356      0.83439089   
     52700  -6090.5238     -6168.2357      77.711938      27382.918      464.25152      8414.4167      1.5358638      0.83439089   
     52800  -6091.0707     -6171.0357      79.965009      30507.897      477.71138      8409.6425      1.5367357      0.83439089   
     52900  -6092.2812     -6169.4197      77.138431      29340.234      460.82538      8397.5073      1.5389564      0.83439089   
     53000  -6090.479      -6168.189       77.709971      25398.882      464.23977      8377.473       1.5426368      0.77710556   
     53100  -6089.8061     -6168.4685      78.662418      29483.143      469.92969      8356.4672      1.5465145      0.77710556   
[...]
   2006100  -6099.1453     -6177.4185      78.273174      30749.857      467.60434      8324.2998      1.5524907      0.81233396   
   2006200  -6095.8215     -6172.4963      76.674767      28918.17       458.05545      8305.1889      1.5560631      0.81233396   
   2006300  -6095.2612     -6175.834       80.57272       26678.461      481.34184      8291.7577      1.5585836      0.81233396   
   2006400  -6097.8368     -6176.5818      78.74505       26064.287      470.42333      8284.6677      1.5599175      0.81233396   
   2006500  -6096.2394     -6174.3301      78.090729      27531.027      466.51442      8283.7621      1.560088       0.81233396   
   2006600  -6096.9296     -6174.6852      77.755616      30914.093      464.51245      8288.2391      1.5592453      0.81233396   
   2006700  -6097.4072     -6170.6503      73.243058      34632.029      437.5544       8300.0326      1.5570298      0.81233396   
   2006800  -6097.3449     -6176.5361      79.191258      31223.344      473.08898      8318.2085      1.5536275      0.81233396   
   2006900  -6098.6804     -6175.5652      76.884729      27685.268      459.30977      8335.631       1.5503803      0.81233396   
   2007000  -6100.7893     -6178.2539      77.464626      25192.483      462.77407      8347.0631      1.5482569      0.8303323    
   2007100  -6102.1417     -6176.2574      74.115683      26642.573      442.76747      8347.3554      1.5482027      0.8303323    
   2007200  -6100.4868     -6175.5972      75.110402      27638.846      448.70993      8334.5328      1.5505846      0.8303323    
   2007300  -6097.8773     -6174.2195      76.342231      27083.034      456.06888      8312.8418      1.5546306      0.8303323    
   2007400  -6097.6615     -6175.196       77.534577      31140.314      463.19196      8288.4352      1.5592084      0.8303323    
   2007500  -6096.5968     -6174.7628      78.166024      33391.714      466.96423      8264.9998      1.5636296      0.8303323    
   2007600  -6097.2516     -6176.2037      78.952082      31138.993      471.66014      8249.8543      1.5665001      0.8303323    
   2007700  -6097.9038     -6178.8864      80.982582      33385.716      483.79036      8246.5461      1.5671286      0.8303323    
   2007800  -6098.2951     -6175.7919      77.496804      30866.534      462.96631      8252.7469      1.5659511      0.8303323    
   2007900  -6098.0831     -6173.981       75.897914      32289.087      453.41453      8269.724       1.5627363      0.8303323    
   2008000  -6098.3829     -6176.523       78.14018       31277.514      466.80984      8299.0233      1.5572191      0.90828828   
   2008100  -6099.7627     -6174.5716      74.808933      28378.481      446.90895      8328.7218      1.5516664      0.90828828   
   2008200  -6099.2427     -6173.2772      74.034484      25886.537      442.28239      8352.386       1.5472702      0.90828828   
   2008300  -6098.3777     -6175.5954      77.217647      29153.65       461.29862      8369.7349      1.544063       0.90828828   
   2008400  -6099.1673     -6175.9087      76.741395      26463.701      458.45349      8376.2285      1.542866       0.90828828   
   2008500  -6101.3498     -6175.9152      74.565424      29722.993      445.45423      8367.0808      1.5445528      0.90828828   
   2008600  -6098.7326     -6176.5337      77.801136      26977.949      464.78439      8343.9401      1.5488364      0.90828828   
   2008700  -6099.8888     -6174.5655      74.676742      26896.591      446.11924      8310.0861      1.5551461      0.90828828   
   2008800  -6101.8849     -6178.1742      76.289368      29332.75       455.75308      8275.3561      1.5616727      0.90828828   
   2008900  -6101.2844     -6176.3736      75.089157      32207.755      448.58301      8239.0438      1.5685556      0.90828828   
   2009000  -6100.8547     -6176.2809      75.426172      31487.118      450.59634      8207.6964      1.5745463      0.8237534    
   2009100  -6100.3603     -6178.398       78.0377        37372.471      466.19762      8189.662       1.5780136      0.8237534    
   2009200  -6098.5846     -6175.33        76.745322      39499.906      458.47695      8188.6567      1.5782073      0.8237534    
   2009300  -6099.0518     -6173.5528      74.501027      32812.117      445.06952      8207.115       1.5746578      0.8237534    
   2009400  -6099.8549     -6178.3323      78.477466      31088.645      468.82479      8241.7141      1.5680473      0.8237534    
   2009500  -6101.408      -6178.1247      76.716643      27177.324      458.30562      8283.3803      1.5601599      0.8237534    
   2009600  -6103.0362     -6178.0101      74.973901      28861.899      447.89447      8324.3937      1.5524732      0.8237534    
   2009700  -6101.3052     -6177.3002      75.994993      27313.68       453.99448      8356.4444      1.5465187      0.8237534    
   2009800  -6099.5594     -6174.605       75.045598      28072.866      448.32279      8375.0943      1.5430749      0.8237534    
   2009900  -6099.1991     -6176.6073      77.408209      24663.817      462.43704      8381.2028      1.5419503      0.8237534    
   2010000  -6100.8565     -6178.3079      77.451383      29695.685      462.69496      8372.2943      1.543591       0.76719623   
   2010100  -6100.5774     -6175.283       74.705547      28548.261      446.29132      8346.982       1.5482719      0.76719623   
   2010200  -6097.4954     -6175.293       77.797633      30691.352      464.76346      8310.8611      1.5550011      0.76719623   
   2010300  -6097.2859     -6175.2209      77.935022      30556.662      465.58423      8274.7168      1.5617934      0.76719623   
   2010400  -6092.5194     -6171.4451      78.925709      32767.541      471.50259      8244.2074      1.5675731      0.76719623   
   2010500  -6092.3785     -6173.7801      81.401547      33209.711      486.29326      8230.6738      1.5701507      0.76719623   
   2010600  -6094.7109     -6171.1192      76.40828       32595.921      456.46346      8235.8179      1.5691699      0.76719623   
   2010700  -6097.9633     -6174.9229      76.959596      26162.57       459.75702      8257.7315      1.5650058      0.76719623   
   2010800  -6099.6322     -6176.6084      76.976205      23918.794      459.85624      8285.9373      1.5596785      0.76719623   
   2010900  -6101.9649     -6179.5903      77.625449      25933.25       463.73483      8314.4224      1.554335       0.76719623   
   2011000  -6099.2385     -6175.4835      76.245002      30225.289      455.48804      8335.5263      1.5503997      0.79633798   
   2011100  -6099.8057     -6175.2782      75.472511      30823.358      450.87317      8348.5727      1.5479769      0.79633798   
   2011200  -6099.0226     -6177.2947      78.272137      31045.783      467.59815      8353.1814      1.5471229      0.79633798   
   2011300  -6097.019      -6172.6593      75.640273      31975.665      451.87538      8348.9753      1.5479023      0.79633798   
   2011400  -6095.9372     -6174.7967      78.859578      26527.206      471.10753      8335.5734      1.550391       0.79633798   
   2011500  -6097.2435     -6173.7094      76.465934      29434.5        456.80788      8315.8797      1.5540626      0.79633798   
   2011600  -6098.6295     -6176.5776      77.948048      26126.697      465.66204      8297.5643      1.5574929      0.79633798   
   2011700  -6099.7996     -6177.6482      77.848594      28179.183      465.0679       8276.8287      1.5613949      0.79633798   
   2011800  -6098.8357     -6174.8043      75.968565      30552.172      453.8366       8255.1713      1.5654912      0.79633798   
   2011900  -6100.1895     -6179.2831      79.093581      30554.722      472.50546      8241.2667      1.5681325      0.79633798   
   2012000  -6100.9496     -6176.9313      75.981765      30158.104      453.91546      8236.2908      1.5690798      0.89567062   
   2012100  -6100.4797     -6177.5376      77.057931      31828.201      460.34447      8239.9919      1.5683751      0.89567062   
   2012200  -6101.1941     -6174.2154      73.02122       28967.949      436.22914      8249.1774      1.5666287      0.89567062   
   2012300  -6101.6054     -6176.8764      75.270981      29125.992      449.66923      8267.3656      1.5631821      0.89567062   
   2012400  -6102.2176     -6180.0975      77.879852      26322.176      465.25464      8290.7264      1.5587775      0.89567062   
   2012500  -6099.9727     -6175.7068      75.73404       31929.507      452.43555      8310.254       1.5551147      0.89567062   
   2012600  -6100.2962     -6177.1472      76.851029      27892.536      459.10844      8324.6591      1.5524237      0.89567062   
   2012700  -6098.4685     -6172.754       74.285462      27903.316      443.78173      8330.7011      1.5512977      0.89567062   
   2012800  -6099.606      -6178.5517      78.945727      31425.73       471.62218      8331.5629      1.5511373      0.89567062   
   2012900  -6100.6835     -6180.1594      79.475924      32788.018      474.78958      8324.8228      1.5523931      0.89567062   
   2013000  -6100.0687     -6175.734       75.665311      31216.08       452.02496      8312.1354      1.5547627      0.82596266   
   2013100  -6099.1865     -6173.4509      74.264408      26842.627      443.65596      8295.3297      1.5579125      0.82596266   
   2013200  -6097.1448     -6175.428       78.283268      29021.255      467.66465      8278.9398      1.5609967      0.82596266   
   2013300  -6095.6152     -6173.8321      78.216969      31639.404      467.26858      8266.9933      1.5632525      0.82596266   
   2013400  -6096.3786     -6173.7981      77.419509      32569.797      462.50454      8259.6762      1.5646373      0.82596266   
   2013500  -6098.177      -6175.3997      77.222745      33450.187      461.32907      8263.4279      1.563927       0.82596266   
   2013600  -6099.6218     -6175.7078      76.085975      28378.931      454.53801      8278.4381      1.5610913      0.82596266   
   2013700  -6099.6956     -6175.0719      75.376237      29759.496      450.29803      8297.1455      1.5575716      0.82596266   
   2013800  -6097.3097     -6176.2555      78.945808      29936.369      471.62266      8319.1393      1.5534537      0.82596266   
   2013900  -6095.5004     -6174.9424      79.442094      30008.043      474.58748      8342.3695      1.549128       0.82596266   
   2014000  -6094.7887     -6174.7635      79.974841      29670.059      477.77011      8366.727       1.5446181      0.89240691   
   2014100  -6097.959      -6173.1607      75.201754      29745.644      449.25567      8387.0379      1.5408775      0.89240691   
   2014200  -6095.9908     -6175.3482      79.357391      28639.608      474.08146      8399.1056      1.5386636      0.89240691   
   2014300  -6095.3712     -6174.0456      78.67438       27468.149      470.00115      8398.9461      1.5386928      0.89240691   
   2014400  -6094.3578     -6173.0186      78.66077       28356.195      469.91985      8389.3632      1.5404504      0.89240691   
   2014500  -6095.5698     -6172.738       77.168247      27709.296      461.0035       8371.9883      1.5436474      0.89240691   
   2014600  -6096.7788     -6172.346       75.567214      27148.466      451.43892      8344.9158      1.5486553      0.89240691   
   2014700  -6095.9901     -6174.3316      78.341518      28541.172      468.01263      8314.6995      1.5542832      0.89240691   
   2014800  -6097.7948     -6174.0953      76.30048       31487.182      455.81946      8287.8096      1.5593261      0.89240691   
   2014900  -6096.1427     -6174.2765      78.133808      37994.333      466.77177      8269.7639      1.5627288      0.89240691   
   2015000  -6094.0384     -6175.6552      81.616845      34295.346      487.57945      8262.6154      1.5640808      0.87985301   
   2015100  -6093.9471     -6174.4222      80.475136      31305.683      480.75888      8268.634       1.5629423      0.87985301   
   2015200  -6095.1871     -6172.5203      77.333153      29961.895      461.98866      8288.1735      1.5592576      0.87985301   
   2015300  -6096.5743     -6174.7728      78.198507      30131.675      467.15828      8320.2166      1.5532526      0.87985301   
   2015400  -6098.004      -6177.539       79.535063      31471.151      475.14287      8360.481       1.545772       0.87985301   
   2015500  -6099.1597     -6175.7974      76.637698      30390.992      457.834        8398.3232      1.5388069      0.87985301   
   2015600  -6099.8831     -6175.1935      75.310349      24976.532      449.90441      8423.1198      1.5342769      0.87985301   
   2015700  -6099.845      -6178.488       78.642993      27480.712      469.81365      8431.0756      1.5328291      0.87985301   
   2015800  -6099.1103     -6176.0957      76.985459      23842.667      459.91153      8418.0755      1.5351962      0.87985301   
   2015900  -6099.9059     -6176.5474      76.641493      24318.367      457.85668      8386.2513      1.541022       0.87985301   
   2016000  -6097.6887     -6174.8842      77.195485      29483.014      461.16622      8341.2695      1.5493322      0.81759473   
   2016100  -6098.648      -6175.6618      77.013781      30182.786      460.08073      8293.3466      1.558285       0.81759473   
   2016200  -6099.9064     -6179.0736      79.167204      31314.611      472.94529      8250.8875      1.566304       0.81759473   
   2016300  -6098.4598     -6177.2081      78.748356      31298.816      470.44309      8222.4244      1.571726       0.81759473   
   2016400  -6097.3522     -6173.1849      75.832684      32828.327      453.02485      8212.3257      1.5736587      0.81759473   
   2016500  -6096.1393     -6173.6083      77.469013      31765.326      462.80028      8222.2731      1.5717549      0.81759473   
   2016600  -6094.5461     -6174.9917      80.445569      35450.776      480.58224      8252.3575      1.566025       0.81759473   
   2016700  -6101.2092     -6177.6516      76.442393      32261.819      456.66725      8297.2393      1.557554       0.81759473   
   2016800  -6098.8129     -6174.1321      75.31923       32737.384      449.95747      8346.4475      1.5483711      0.81759473   
   2016900  -6096.1614     -6173.7031      77.54171       31527.45       463.23458      8390.7338      1.5401988      0.81759473   
   2017000  -6097.1777     -6173.6991      76.521395      31948.823      457.13921      8420.9406      1.5346739      0.91707424   
   2017100  -6095.8989     -6173.7632      77.864298      28686.68       465.16172      8435.8023      1.5319702      0.91707424   
   2017200  -6096.7872     -6175.8388      79.0516        23600.982      472.25467      8433.624       1.5323659      0.91707424   
   2017300  -6097.4383     -6174.1385      76.700196      26617.671      458.20737      8411.6041      1.5363773      0.91707424   
   2017400  -6096.3419     -6171.7612      75.419303      30410.629      450.55531      8376.9963      1.5427245      0.91707424   
   2017500  -6096.5817     -6175.0818      78.500068      27856.033      468.95981      8338.2381      1.5498955      0.91707424   
   2017600  -6095.5641     -6175.6498      80.085773      29967.068      478.43282      8302.2106      1.5566213      0.91707424   
   2017700  -6091.4443     -6171.693       80.248688      33019.748      479.40608      8276.1505      1.5615228      0.91707424   
   2017800  -6093.8603     -6173.8901      80.029799      32603.714      478.09843      8266.9472      1.5632612      0.91707424   
   2017900  -6093.9231     -6172.6392      78.716043      32205.5        470.25005      8273.891       1.5619492      0.91707424   
   2018000  -6096.1723     -6175.4761      79.303831      30672.564      473.76149      8292.823       1.5583834      0.90960928   
   2018100  -6097.9336     -6175.1329      77.199294      34479.48       461.18898      8318.7409      1.5535281      0.90960928   
   2018200  -6099.774      -6176.6321      76.858147      31444.414      459.15096      8344.3652      1.5487575      0.90960928   
   2018300  -6100.103      -6177.1812      77.078235      32478.604      460.46577      8363.4671      1.5452201      0.90960928   
   2018400  -6095.7037     -6173.2038      77.500097      34365.747      462.98598      8374.2557      1.5432294      0.90960928   
   2018500  -6093.0725     -6172.0771      79.004569      35285.157      471.9737       8378.1822      1.5425062      0.90960928   
   2018600  -6096.242      -6174.1319      77.889902      31438.027      465.31468      8380.7708      1.5420297      0.90960928   
   2018700  -6093.988      -6173.8679      79.879894      24810.103      477.2029       8378.3773      1.5424703      0.90960928   
   2018800  -6098.2562     -6174.2356      75.979428      29065.592      453.9015       8370.417       1.5439372      0.90960928   
   2018900  -6100.7441     -6176.7522      76.008079      25844.858      454.07265      8355.9796      1.5466048      0.90960928   
   2019000  -6098.3126     -6178.1027      79.790053      26006.548      476.66619      8337.3075      1.5500685      0.81363719   
   2019100  -6097.5636     -6173.3294      75.765848      33876.496      452.62557      8318.9071      1.5534971      0.81363719   
   2019200  -6096.151      -6174.729       78.577947      28185.912      469.42506      8306.6595      1.5557876      0.81363719   
   2019300  -6093.3592     -6171.097       77.737793      31542.052      464.40597      8302.4255      1.556581       0.81363719   
   2019400  -6095.8403     -6172.7386      76.898277      29870.773      459.3907       8310.2623      1.5551131      0.81363719   
   2019500  -6098.168      -6173.5798      75.411728      29250.75       450.51005      8323.3638      1.5526653      0.81363719   
   2019600  -6096.5706     -6174.9648      78.394194      27921.613      468.32732      8338.1608      1.5499099      0.81363719   
   2019700  -6095.936      -6173.3075      77.371405      29201.161      462.21717      8352.5232      1.5472448      0.81363719   
   2019800  -6100.1648     -6177.7782      77.613468      29348.108      463.66326      8362.761       1.5453506      0.81363719   
   2019900  -6100.0932     -6176.7218      76.628613      29450.783      457.77973      8362.8152      1.5453406      0.81363719   
   2020000  -6098.8727     -6175.7058      76.833095      29785.362      459.00131      8354.9778      1.5467902      0.83989123   
   2020033  -6098.5308     -6177.1469      78.616112      24929.059      469.65306      8350.6726      1.5475877      0.83989123   
Loop time of 8565.61 on 1 procs for 2000000 steps with 1296 atoms

Performance: 10.087 ns/day, 2.379 hours/ns, 233.492 timesteps/s, 302.605 katom-step/s
99.8% CPU use with 1 MPI tasks x 1 OpenMP threads

MPI task timing breakdown:
Section |  min time  |  avg time  |  max time  |%varavg| %total
---------------------------------------------------------------
Pair    | 6584.6     | 6584.6     | 6584.6     |   0.0 | 76.87
Neigh   | 86.186     | 86.186     | 86.186     |   0.0 |  1.01
Comm    | 83.82      | 83.82      | 83.82      |   0.0 |  0.98
Output  | 5.2157     | 5.2157     | 5.2157     |   0.0 |  0.06
Modify  | 1762       | 1762       | 1762       |   0.0 | 20.57
Other   |            | 43.73      |            |       |  0.51

Nlocal:           1296 ave        1296 max        1296 min
Histogram: 1 0 0 0 0 0 0 0 0 0
Nghost:           4393 ave        4393 max        4393 min
Histogram: 1 0 0 0 0 0 0 0 0 0
Neighs:              0 ave           0 max           0 min
Histogram: 1 0 0 0 0 0 0 0 0 0
FullNghs:       231570 ave      231570 max      231570 min
Histogram: 1 0 0 0 0 0 0 0 0 0

Total # of neighbors = 231570
Ave neighs/atom = 178.68056
Neighbor list builds = 200000
Dangerous builds = 200000

unfix		3
unfix		4
Total wall time: 2:24:12
