LAMMPS (29 Aug 2024 - Update 1)
OMP_NUM_THREADS environment is not set. Defaulting to 1 thread. (src/comm.cpp:98)
  using 1 OpenMP thread(s) per MPI task

units		metal						## E in [eV], t in [ps], P in [10000 Pa], l in [A]
atom_style	atomic						## mass x y z vx vy vz

neighbor	0.5 bin						## neighbor list, skin = 0.5 Angstrom
neigh_modify	every 2 delay 10 check yes			## update of neighbor list

############################## main variables
variable        seed equal 76282

variable	temperature equal 285
variable	tempDamp equal 0.1

variable        pressure equal 5000
variable        pressureDamp equal 1.0 				# This is 1 ps

##############################

read_data water.dat
Reading data file ...
  triclinic box = (0 0 0) to (18.047441 22.912981 19.549222) with tilt (-0.10697296 -6.2467562 -0.022549581)
  2 by 7 by 2 MPI processor grid
  reading atoms ...
  1008 atoms
  read_data CPU = 0.022 seconds

mass		1 1.008    # H
mass		2 15.9994  # O


pair_style	pace/extrapolation
ACE/AL version: 2023.11.25
pair_coeff	* * /home/users/saadie5f/phase_diagram/pot_dir/interim_potential_ladder_step_1.yaml /home/users/saadie5f/phase_diagram/pot_dir/interim_potential_ladder_step_1.asi H O
Loading /home/users/saadie5f/phase_diagram/pot_dir/interim_potential_ladder_step_1.yaml
Total number of basis functions
	H: 23 (r=1) 664 (r>1)
	O: 23 (r=1) 664 (r>1)
Mapping LAMMPS atom type #1(H) -> ACE species type #0
Mapping LAMMPS atom type #2(O) -> ACE species type #1
Loading ASI /home/users/saadie5f/phase_diagram/pot_dir/interim_potential_ladder_step_1.asi
LINEAR ASI is loaded

fix pace_gamma all pair 1000 pace/extrapolation gamma 1
compute max_pace_gamma all reduce max f_pace_gamma
variable dump_skip equal "c_max_pace_gamma < 10"

dump pace_dump all custom 1000 extrapolative_structures.dump id type x y z f_pace_gamma
dump_modify pace_dump skip v_dump_skip
dump_modify pace_dump element H O

variable max_pace_gamma equal c_max_pace_gamma

timestep	0.0005						## timestep = 0.0005*ps = 0.5 fs

thermo		100
thermo_style custom step etotal pe ke press temp vol density c_max_pace_gamma


min_style cg
minimize 0.0 5.0e-4 10000 100000

CITE-CITE-CITE-CITE-CITE-CITE-CITE-CITE-CITE-CITE-CITE-CITE-CITE

Your simulation uses code contributions which should be cited:

- Type Label Framework: https://doi.org/10.1021/acs.jpcb.3c08419

@Article{Gissinger24,
 author = {Jacob R. Gissinger, Ilia Nikiforov, Yaser Afshar, Brendon Waters, Moon-ki Choi, Daniel S. Karls, Alexander Stukowski, Wonpil Im, Hendrik Heinz, Axel Kohlmeyer, and Ellad B. Tadmor},
 title = {Type Label Framework for Bonded Force Fields in LAMMPS},
 journal = {J. Phys. Chem. B},
 year =    2024,
 volume =  128,
 number =  13,
 pages =   {3282–-3297}
}

CITE-CITE-CITE-CITE-CITE-CITE-CITE-CITE-CITE-CITE-CITE-CITE-CITE

Switching to 'neigh_modify every 1 delay 0 check yes' setting during minimization
Neighbor list info ...
  update: every = 1 steps, delay = 0 steps, check = yes
  max neighbors/atom: 2000, page size: 100000
  master list distance cutoff = 6.5
  ghost atom cutoff = 6.5
  binsize = 3.25, bins = 8 8 7
  1 neighbor lists, perpetual/occasional/extra = 1 0 0
  (1) pair pace/extrapolation, perpetual
      attributes: full, newton on
      pair build: full/bin/atomonly
      stencil: full/bin/3d
      bin: standard
Per MPI rank memory allocation (min/avg/max) = 4.348 | 4.35 | 4.351 Mbytes
   Step         TotEng         PotEng         KinEng         Press           Temp          Volume        Density     c_max_pace_gamma
         0  -4859.3795     -4859.3795      0             -15249.985      0              8084.0073      1.2433848      0.6550148    
       100  -4870.181      -4870.181       0             -8271.4786      0              8084.0073      1.2433848      0.6550148    
       200  -4870.1941     -4870.1941      0             -8252.9859      0              8084.0073      1.2433848      0.6550148    
       300  -4870.1942     -4870.1942      0             -8253.5114      0              8084.0073      1.2433848      0.6550148    
       340  -4870.1942     -4870.1942      0             -8253.6325      0              8084.0073      1.2433848      0.6550148    
Loop time of 6.62261 on 28 procs for 340 steps with 1008 atoms

99.6% CPU use with 28 MPI tasks x 1 OpenMP threads

Minimization stats:
  Stopping criterion = force tolerance
  Energy initial, next-to-last, final = 
     -4859.37950969087  -4870.19417354635  -4870.19417355022
  Force two-norm initial, final = 9.3928037 0.00045185036
  Force max component initial, final = 0.67588365 4.4621563e-05
  Final line search alpha, max atom move = 1 4.4621563e-05
  Iterations, force evaluations = 340 680

MPI task timing breakdown:
Section |  min time  |  avg time  |  max time  |%varavg| %total
---------------------------------------------------------------
Pair    | 5.4845     | 5.9554     | 6.4925     |  11.8 | 89.92
Neigh   | 0.00071226 | 0.00077271 | 0.00085426 |   0.0 |  0.01
Comm    | 0.10072    | 0.62498    | 1.1133     |  37.7 |  9.44
Output  | 0.0002254  | 0.00022971 | 0.00030641 |   0.0 |  0.00
Modify  | 0.00079164 | 0.00098533 | 0.0011898  |   0.0 |  0.01
Other   |            | 0.04028    |            |       |  0.61

Nlocal:             36 ave          40 max          33 min
Histogram: 2 3 9 0 4 4 0 2 3 1
Nghost:           1014 ave        1031 max        1000 min
Histogram: 4 5 4 1 3 1 0 4 4 2
Neighs:              0 ave           0 max           0 min
Histogram: 28 0 0 0 0 0 0 0 0 0
FullNghs:      5234.93 ave        5831 max        4785 min
Histogram: 2 3 6 3 4 3 1 2 3 1

Total # of neighbors = 146578
Ave neighs/atom = 145.41468
Neighbor list builds = 5
Dangerous builds = 0

################## equilibration of main calculation
# Equilibrate to specified number of ice

fix             3 all nph tri ${pressure} ${pressure} ${pressureDamp}
fix             3 all nph tri 5000 ${pressure} ${pressureDamp}
fix             3 all nph tri 5000 5000 ${pressureDamp}
fix             3 all nph tri 5000 5000 1
fix             4 all temp/csvr ${temperature} ${temperature} ${tempDamp} ${seed}
fix             4 all temp/csvr 285 ${temperature} ${tempDamp} ${seed}
fix             4 all temp/csvr 285 285 ${tempDamp} ${seed}
fix             4 all temp/csvr 285 285 0.1 ${seed}
fix             4 all temp/csvr 285 285 0.1 76282
velocity 	all create ${temperature} ${seed} dist gaussian
velocity 	all create 285 ${seed} dist gaussian
velocity 	all create 285 76282 dist gaussian

run 200000
Per MPI rank memory allocation (min/avg/max) = 3.489 | 3.491 | 3.492 Mbytes
   Step         TotEng         PotEng         KinEng         Press           Temp          Volume        Density     c_max_pace_gamma
       340  -4833.0972     -4870.1942      37.097015     -3352.1059      285            8084.0073      1.2433848      0.6550148    
       400  -4829.9893     -4852.7032      22.713879      6323.7392      174.50071      8063.1479      1.2466014      0.6550148    
       500  -4822.1279     -4843.9126      21.784704      4924.8433      167.36227      7964.1144      1.2621029      0.6550148    
       600  -4814.8289     -4840.6689      25.839976      7684.1179      198.51714      7819.3949      1.2854616      0.6550148    
       700  -4810.0267     -4839.9612      29.934478      7163.134       229.97339      7693.6147      1.3064771      0.6550148    
       800  -4805.4137     -4838.3622      32.948479      10547.383      253.12863      7617.8416      1.3194724      0.6550148    
       900  -4803.6024     -4837.2755      33.673035      8602.1889      258.69507      7607.3883      1.3212855      0.6550148    
      1000  -4802.6349     -4837.5564      34.921449      8637.1232      268.28609      7657.5988      1.3126219      0.7950782    
      1100  -4800.7323     -4835.8132      35.080884      9389.5581      269.51095      7744.8944      1.2978268      0.7950782    
      1200  -4800.628      -4834.0516      33.423573      6570.4517      256.77856      7846.5058      1.2810201      0.7950782    
      1300  -4801.9422     -4834.9282      32.98601       901.17541      253.41696      7937.8965      1.2662715      0.7950782    
      1400  -4799.8761     -4833.7229      33.846768      3034.8976      260.02978      7998.3077      1.2567073      0.7950782    
      1500  -4799.6764     -4835.3927      35.716317      2758.8977      274.39271      8026.9654      1.2522206      0.7950782    
      1600  -4798.7279     -4832.2286      33.500711      4435.9467      257.37118      8024.1642      1.2526578      0.7950782    
      1700  -4797.7449     -4832.8907      35.145783      2279.8085      270.00954      8000.3877      1.2563806      0.7950782    
      1800  -4796.6131     -4831.9917      35.378662      3339.0664      271.79865      7959.9272      1.2627668      0.7950782    
      1900  -4796.3693     -4833.093       36.723739      2598.6283      282.13228      7914.9677      1.2699397      0.7950782    
      2000  -4795.4075     -4831.3253      35.917739      5751.082       275.94014      7874.8436      1.2764103      0.73944998   
      2100  -4794.6917     -4831.734       37.042229      8490.5614      284.5791       7850.6387      1.2803457      0.73944998   
      2200  -4793.7416     -4830.1203      36.37874       4370.0153      279.48181      7845.2245      1.2812293      0.73944998   
      2300  -4794.0948     -4831.5087      37.413893      9157.1751      287.43443      7858.4942      1.2790659      0.73944998   
      2400  -4794.5674     -4830.6407      36.073296      7714.4327      277.13521      7886.2266      1.274568       0.73944998   
      2500  -4794.6188     -4832.0015      37.382745      6264.4023      287.19514      7923.4999      1.2685722      0.73944998   
      2600  -4794.8998     -4831.1781      36.278257      6450.2343      278.70984      7962.7647      1.2623168      0.73944998   
      2700  -4795.2973     -4831.6029      36.305611      4988.2353      278.91999      7997.6507      1.2568105      0.73944998   
      2800  -4795.7384     -4831.4409      35.702497      4115.7351      274.28653      8018.7082      1.2535101      0.73944998   
      2900  -4794.8405     -4831.9853      37.144815      4626.2781      285.36722      8022.745       1.2528794      0.73944998   
      3000  -4794.0574     -4831.6749      37.617493      5279.184       288.9986       8004.9709      1.2556612      0.70617112   
      3100  -4793.5102     -4830.6947      37.184482      4726.6742      285.67197      7970.9845      1.2610151      0.70617112   
      3200  -4793.2592     -4830.5427      37.283458      8779.5037      286.43236      7929.7413      1.2675737      0.70617112   
      3300  -4793.885      -4831.9241      38.039086      8640.4772      292.23752      7891.4697      1.2737211      0.70617112   
      3400  -4795.6457     -4831.8123      36.166616      4062.1018      277.85216      7867.0176      1.2776801      0.70617112   
      3500  -4795.2396     -4832.0788      36.839122      8910.2815      283.01872      7860.8085      1.2786893      0.70617112   
      3600  -4795.1954     -4831.2303      36.034918      7267.1397      276.84038      7872.4229      1.2768028      0.70617112   
      3700  -4796.14       -4832.6386      36.49856       4789.6675      280.40233      7900.9034      1.2722003      0.70617112   
      3800  -4794.1111     -4831.7393      37.628133      4769.7714      289.08035      7940.4111      1.2658704      0.70617112   
      3900  -4794.9653     -4831.4229      36.457602      5119.2952      280.08767      7978.7923      1.2597811      0.70617112   
      4000  -4793.6739     -4830.2801      36.606225      3665.8313      281.22947      8007.291       1.2552974      0.69725503   
      4100  -4793.8957     -4830.3268      36.431161      4836.6429      279.88453      8022.2931      1.2529499      0.69725503   
      4200  -4793.9084     -4829.6463      35.737953      5377.1948      274.55893      8021.3751      1.2530933      0.69725503   
      4300  -4794.6745     -4832.6249      37.950392      3879.2553      291.55612      8004.8817      1.2556752      0.69725503   
      4400  -4794.7944     -4831.3136      36.519241      7478.9181      280.56122      7971.9416      1.2608637      0.69725503   
      4500  -4793.8159     -4830.8843      37.06843       3297.5607      284.78039      7930.7085      1.2674191      0.69725503   
      4600  -4795.2884     -4831.2983      36.00992       7408.289       276.64833      7890.8085      1.2738279      0.69725503   
      4700  -4794.4867     -4831.2779      36.791212      7641.4877      282.65065      7858.8252      1.279012       0.69725503   
      4800  -4794.6318     -4831.518       36.886236      8361.1887      283.38067      7841.1905      1.2818885      0.69725503   
      4900  -4792.5394     -4830.7498      38.210422      7280.306       293.55381      7845.756       1.2811425      0.69725503   
      5000  -4793.0794     -4831.6611      38.581752      8258.7833      296.40658      7869.9345      1.2772065      0.72860908   
      5100  -4793.9057     -4830.9866      37.08088       6159.4071      284.87604      7908.3963      1.2709949      0.72860908   
      5200  -4794.855      -4832.7672      37.912186      3826.1189      291.2626       7952.4311      1.2639571      0.72860908   
      5300  -4794.5768     -4831.82        37.243218      7090.6437      286.12321      7992.7203      1.2575858      0.72860908   
      5400  -4794.5389     -4831.9578      37.41881       7709.9287      287.47221      8019.5183      1.2533835      0.72860908   
      5500  -4795.5495     -4831.8225      36.273086      3172.6783      278.67012      8022.7646      1.2528763      0.72860908   
      5600  -4794.6366     -4832.1323      37.495663      2862.3894      288.06263      8005.9224      1.255512       0.72860908   
      5700  -4793.2857     -4831.1439      37.858136      3096.0194      290.84735      7971.192       1.2609823      0.72860908   
      5800  -4791.7267     -4830.3089      38.582206      8909.8662      296.41006      7928.8237      1.2677204      0.72860908   
      5900  -4791.7061     -4830.1716      38.465528      10467.476      295.51368      7897.3995      1.2727647      0.72860908   
      6000  -4790.3187     -4830.3116      39.992886      6356.9089      307.2477       7882.6256      1.2751502      0.77567547   
      6100  -4791.2567     -4828.4229      37.166243      6647.7405      285.53184      7883.5481      1.275001       0.77567547   
      6200  -4792.2666     -4829.6031      37.336508      4285.9271      286.83991      7899.9843      1.2723483      0.77567547   
      6300  -4792.7104     -4830.1128      37.402408      4102.9309      287.34619      7923.4257      1.2685841      0.77567547   
      6400  -4793.6548     -4830.9181      37.263304      7619.3312      286.27752      7949.4719      1.2644276      0.77567547   
      6500  -4793.4218     -4830.6896      37.267729      7383.0678      286.31151      7973.1339      1.2606751      0.77567547   
      6600  -4793.397      -4831.3906      37.993608      7665.4938      291.88812      7987.3564      1.2584303      0.77567547   
      6700  -4793.7208     -4831.1413      37.420506      5424.0763      287.48524      7992.3295      1.2576473      0.77567547   
      6800  -4794.0311     -4831.521       37.489953      2923.6049      288.01877      7981.0379      1.2594266      0.77567547   
      6900  -4794.5078     -4830.407       35.899297      1269.0915      275.79846      7961.5976      1.2625018      0.77567547   
      7000  -4794.2174     -4832.7499      38.532497      258.25242      296.02818      7941.1971      1.2657451      0.72249311   
      7100  -4793.9546     -4830.0441      36.089562      3962.3591      277.26018      7916.116       1.2697555      0.72249311   
      7200  -4793.2571     -4831.0388      37.781753      5691.9182      290.26054      7897.6848      1.2727188      0.72249311   
      7300  -4795.075      -4832.2965      37.221504      7596.6652      285.95639      7889.4323      1.2740501      0.72249311   
      7400  -4794.0567     -4831.577       37.520333      6273.0159      288.25216      7894.2719      1.273269       0.72249311   
      7500  -4794.7675     -4831.9998      37.232286      4707.2291      286.03922      7910.2466      1.2706976      0.72249311   
      7600  -4796.0142     -4833.4855      37.471309      3830.8666      287.87553      7929.5952      1.2675971      0.72249311   
      7700  -4796.0498     -4833.1706      37.120769      4857.3374      285.18249      7945.0424      1.2651325      0.72249311   
      7800  -4795.6748     -4831.781       36.106218      4814.7569      277.38814      7953.1309      1.2638459      0.72249311   
      7900  -4795.9201     -4831.722       35.801907      4682.8678      275.05025      7955.4759      1.2634733      0.72249311   
      8000  -4794.4807     -4831.232       36.751256      1872.0232      282.34369      7956.049       1.2633823      0.65649396   
      8100  -4794.6858     -4831.2338      36.54801       3208.0203      280.78223      7950.936       1.2641948      0.65649396   
      8200  -4796.0453     -4831.8036      35.758266      6489.2495      274.71498      7942.0578      1.265608       0.65649396   
      8300  -4795.5557     -4831.591       36.035308      7966.2202      276.84337      7931.5908      1.2672781      0.65649396   
      8400  -4794.408      -4831.8339      37.425957      5997.3699      287.52711      7923.552       1.2685639      0.65649396   
      8500  -4794.0183     -4830.1166      36.098308      3568.1133      277.32737      7920.7537      1.269012       0.65649396   
      8600  -4792.7332     -4832.1162      39.382999      4096.4909      302.5622       7924.488       1.268414       0.65649396   
      8700  -4793.6456     -4830.5137      36.868124      2653.3819      283.24153      7936.652       1.26647        0.65649396   
      8800  -4795.2471     -4831.9913      36.744129      7167.1279      282.28893      7954.3307      1.2636552      0.65649396   
      8900  -4794.8534     -4830.9462      36.092797      7273.8083      277.28504      7972.9295      1.2607075      0.65649396   
      9000  -4794.7698     -4832.1612      37.39132       1593.2223      287.26101      7988.4857      1.2582524      0.69036525   
      9100  -4795.4787     -4831.3465      35.867865      3764.2838      275.55698      7993.1068      1.257525       0.69036525   
      9200  -4796.3527     -4832.8716      36.518937      5293.3666      280.55888      7982.03        1.2592701      0.69036525   
      9300  -4795.721      -4831.7665      36.045481      7669.7595      276.92153      7959.9503      1.2627631      0.69036525   
      9400  -4794.93       -4832.021       37.091059      7187.7595      284.95424      7930.0127      1.2675303      0.69036525   
      9500  -4794.5476     -4831.0179      36.470316      6250.7322      280.18535      7900.4891      1.272267       0.69036525   
      9600  -4793.5848     -4829.9717      36.386882      5353.9983      279.54436      7885.2293      1.2747292      0.69036525   
      9700  -4793.7324     -4832.3755      38.643096      1418.4954      296.87785      7888.9956      1.2741206      0.69036525   
      9800  -4794.7177     -4830.8393      36.121546      4902.9618      277.5059       7906.1124      1.2713621      0.69036525   
      9900  -4793.0763     -4830.0395      36.963214      8725.9945      283.97206      7930.5899      1.2674381      0.69036525   
     10000  -4794.2498     -4831.6025      37.352624      5136.57        286.96373      7959.3594      1.2628569      0.63336672   
     10100  -4794.3057     -4830.7183      36.412602      4034.2571      279.74195      7985.6546      1.2586985      0.63336672   
     10200  -4792.7535     -4831.084       38.330537      3655.1151      294.4766       8005.1045      1.2556403      0.63336672   
     10300  -4793.6295     -4830.8543      37.224818      1446.8725      285.98185      8015.4573      1.2540185      0.63336672   
     10400  -4793.2839     -4830.9858      37.701933      6462.9002      289.64732      8015.1482      1.2540669      0.63336672   
     10500  -4792.7641     -4830.4932      37.729097      5756.1089      289.856        8004.4365      1.2557451      0.63336672   
     10600  -4792.0827     -4829.5022      37.419505      4942.8681      287.47755      7985.0429      1.258795       0.63336672   
     10700  -4790.7475     -4829.5378      38.790318      6322.7207      298.0089       7961.8         1.2624698      0.63336672   
     10800  -4791.4689     -4829.8327      38.363718      7661.6082      294.73152      7946.8461      1.2648454      0.63336672   
     10900  -4792.9042     -4831.6135      38.709284      3285.1395      297.38635      7942.4006      1.2655534      0.63336672   
     11000  -4793.3961     -4831.0487      37.652514      2228.0185      289.26765      7945.189       1.2651092      0.63453713   
     11100  -4792.1958     -4830.5349      38.339086      5020.156       294.54228      7948.2802      1.2646172      0.63453713   
     11200  -4793.2582     -4831.2481      37.989917      6441.1513      291.85977      7952.2361      1.2639881      0.63453713   
     11300  -4793.5543     -4830.1127      36.55835       3280.8565      280.86167      7958.045       1.2630654      0.63453713   
     11400  -4793.7874     -4829.4155      35.628096      3898.199       273.71494      7962.3582      1.2623813      0.63453713   
     11500  -4793.0811     -4829.864       36.782877      5753.6194      282.58661      7965.8902      1.2618215      0.63453713   
     11600  -4791.7673     -4831.1735      39.40617       6525.4389      302.74021      7967.8384      1.261513       0.63453713   
     11700  -4793.6866     -4831.5753      37.88874       7254.5946      291.08248      7972.6542      1.260751       0.63453713   
     11800  -4793.2626     -4831.447       38.184404      8058.9154      293.35393      7974.8268      1.2604075      0.63453713   
     11900  -4793.0942     -4831.1117      38.017545      4959.5277      292.07202      7968.1586      1.2614623      0.63453713   
     12000  -4793.8197     -4832.0481      38.228484      5974.2207      293.69257      7959.0228      1.2629103      0.77359438   
     12100  -4794.9258     -4832.0843      37.158484      7530.5507      285.47224      7951.084       1.2641712      0.77359438   
     12200  -4793.9821     -4831.4036      37.421405      4666.2572      287.49214      7942.732       1.2655005      0.77359438   
     12300  -4793.8969     -4830.5603      36.66336       5121.5561      281.66841      7934.1223      1.2668738      0.77359438   
     12400  -4794.8327     -4832.9888      38.156154      2691.6352      293.1369       7929.56        1.2676027      0.77359438   
     12500  -4795.5419     -4832.2163      36.674361      4194.0495      281.75293      7927.1821      1.2679829      0.77359438   
     12600  -4795.2752     -4832.7391      37.463943      6240.5331      287.81894      7926.9919      1.2680134      0.77359438   
     12700  -4795.0552     -4831.5883      36.533117      6385.3471      280.66782      7931.9609      1.267219       0.77359438   
     12800  -4796.4448     -4831.1497      34.704901      4445.721       266.62244      7942.3012      1.2655692      0.77359438   
     12900  -4795.3588     -4832.9048      37.546022      2298.7874      288.44952      7951.9497      1.2640336      0.77359438   
     13000  -4794.3971     -4831.6552      37.258047      3646.1302      286.23714      7956.5276      1.2633063      0.69477176   
     13100  -4795.7104     -4831.8066      36.096103      2978.1882      277.31044      7958.7099      1.2629599      0.69477176   
     13200  -4795.5739     -4832.1732      36.599354      2115.8472      281.17669      7953.7721      1.263744       0.69477176   
     13300  -4794.6392     -4831.4048      36.765586      6625.2731      282.45377      7942.2674      1.2655746      0.69477176   
     13400  -4795.7627     -4831.6955      35.932795      6758.0441      276.05581      7931.3896      1.2673103      0.69477176   
     13500  -4794.929      -4832.3461      37.417103      5323.5919      287.45909      7919.9586      1.2691394      0.69477176   
     13600  -4795.3221     -4832.5024      37.180311      4989.8096      285.63992      7912.0869      1.2704021      0.69477176   
     13700  -4794.6952     -4832.0149      37.319619      7499.3507      286.71017      7910.0999      1.2707212      0.69477176   
     13800  -4793.4442     -4830.7813      37.337095      4215.5589      286.84443      7914.1057      1.270078       0.69477176   
     13900  -4793.6649     -4831.1219      37.456982      4917.842       287.76546      7928.2293      1.2678155      0.69477176   
     14000  -4792.994      -4831.1212      38.127241      5261.9878      292.91477      7949.9213      1.2643561      0.63463438   
     14100  -4793.5437     -4831.0983      37.554548      7912.6024      288.51502      7977.6456      1.2599622      0.63463438   
     14200  -4794.6249     -4832.006       37.381121      1030.184       287.18266      8000.8494      1.2563081      0.63463438   
     14300  -4795.1207     -4831.7769      36.656212      1946.0764      281.6135       8013.8141      1.2542756      0.63463438   
     14400  -4795.5032     -4830.983       35.479793      6040.8403      272.57559      8011.0355      1.2547107      0.63463438   
     14500  -4795.5014     -4831.3563      35.854855      8917.8405      275.45703      7991.1046      1.2578401      0.63463438   
     14600  -4796.3837     -4831.6174      35.233628      5680.0297      270.68442      7959.1197      1.2628949      0.63463438   
     14700  -4794.262      -4832.4375      38.175583      2609.0234      293.28616      7923.006       1.2686513      0.63463438   
     14800  -4794.9979     -4832.1476      37.149702      5991.7341      285.40477      7892.8977      1.2734907      0.63463438   
     14900  -4794.0026     -4831.8522      37.849596      6967.4161      290.78175      7879.5069      1.2756549      0.63463438   
     15000  -4795.5174     -4831.6976      36.180274      7348.0917      277.95708      7883.5184      1.2750058      0.62604197   
     15100  -4795.4448     -4832.2177      36.772935      3597.0672      282.51023      7901.2625      1.2721425      0.62604197   
     15200  -4793.5705     -4832.0187      38.448253      5322.338       295.38097      7935.1636      1.2667076      0.62604197   
     15300  -4794.6026     -4832.259       37.656457      5250.933       289.29795      7975.9058      1.260237       0.62604197   
     15400  -4794.2522     -4832.4993      38.247168      4673.3931      293.83612      8014.2547      1.2542067      0.62604197   
     15500  -4793.5162     -4830.8349      37.318636      4289.5912      286.70262      8039.2554      1.2503063      0.62604197   
     15600  -4793.8386     -4831.2503      37.411674      1008.7731      287.41739      8045.4916      1.2493372      0.62604197   
     15700  -4793.9134     -4831.1617      37.248361      6090.1854      286.16272      8030.1935      1.2517172      0.62604197   
     15800  -4793.7168     -4832.2863      38.56953       2800.3965      296.31268      7999.6636      1.2564943      0.62604197   
     15900  -4793.2375     -4832.0788      38.841356      6227.5762      298.401        7958.3405      1.2630186      0.62604197   
     16000  -4794.6651     -4832.8254      38.160389      6524.1195      293.16943      7915.0943      1.2699194      0.65362033   
     16100  -4795.2138     -4831.3347      36.120883      6245.6489      277.5008       7880.5353      1.2754884      0.65362033   
     16200  -4794.2278     -4831.4377      37.209851      8722.9333      285.86687      7863.8528      1.2781943      0.65362033   
     16300  -4794.7001     -4832.287       37.58692       8912.0726      288.76372      7864.6078      1.2780716      0.65362033   
     16400  -4796.4175     -4832.2684      35.850895      10540.654      275.42661      7885.0463      1.2747587      0.65362033   
     16500  -4795.8669     -4831.55        35.683046      6569.1493      274.1371       7919.182       1.2692639      0.65362033   
     16600  -4796.9352     -4831.4838      34.548587      5745.9114      265.42155      7957.8295      1.2630997      0.65362033   
     16700  -4795.5639     -4831.7024      36.13851       2031.5846      277.63623      7989.6526      1.2580687      0.65362033   
     16800  -4794.4766     -4831.3072      36.830578      5836.9535      282.95308      8006.6153      1.2554034      0.65362033   
     16900  -4794.4899     -4830.6436      36.153738      4465.8786      277.75322      8008.9948      1.2550304      0.65362033   
     17000  -4793.71       -4831.2957      37.585706      5401.493       288.7544       7995.5721      1.2571373      0.76976165   
     17100  -4794.2505     -4831.3121      37.061555      5261.5216      284.72758      7969.3552      1.2612729      0.76976165   
     17200  -4793.5755     -4831.5001      37.92461       5997.6792      291.35805      7943.5059      1.2653773      0.76976165   
     17300  -4792.5872     -4831.7452      39.157945      5106.933       300.83321      7916.0451      1.2697669      0.76976165   
     17400  -4792.9977     -4831.2153      38.217644      8076.3688      293.6093       7894.8154      1.2731813      0.76976165   
     17500  -4793.2505     -4830.1751      36.924587      7417.3408      283.67531      7885.1657      1.2747394      0.76976165   
     17600  -4794.6537     -4831.4302      36.776543      5886.4362      282.53795      7889.4789      1.2740425      0.76976165   
     17700  -4795.7558     -4833.3828      37.627014      5122.3859      289.07175      7905.5586      1.2714512      0.76976165   
     17800  -4794.1367     -4831.0457      36.908954      7076.5017      283.55521      7924.873       1.2683524      0.76976165   
     17900  -4795.2295     -4832.0606      36.83106       6521.1829      282.95678      7943.5999      1.2653623      0.76976165   
     18000  -4796.0529     -4833.3403      37.287371      1094.5504      286.46242      7959.6624      1.2628088      0.69288976   
     18100  -4795.7786     -4831.9614      36.182824      3420.1133      277.97667      7967.1557      1.2616211      0.69288976   
     18200  -4796.947      -4831.5221      34.575175      4239.4907      265.62581      7967.1377      1.261624       0.69288976   
     18300  -4796.7106     -4831.4374      34.726784      5463.1263      266.79056      7961.6603      1.2624919      0.69288976   
     18400  -4795.3071     -4832.586       37.278885      4090.7032      286.39723      7949.0822      1.2644896      0.69288976   
     18500  -4795.4825     -4830.9607      35.47821       3167.2172      272.56343      7933.586       1.2669594      0.69288976   
     18600  -4794.3447     -4831.6883      37.343638      5224.5139      286.89469      7919.7079      1.2691796      0.69288976   
     18700  -4794.6783     -4831.4783      36.800011      4367.7966      282.71825      7910.8486      1.2706009      0.69288976   
     18800  -4794.7831     -4830.769       35.985897      8896.5073      276.46377      7906.9755      1.2712233      0.69288976   
     18900  -4793.5361     -4831.5128      37.976747      6663.1958      291.75859      7911.5393      1.27049        0.69288976   
     19000  -4793.321      -4831.0115      37.69046       3479.612       289.55918      7922.0058      1.2688115      0.68010734   
     19100  -4793.1426     -4830.4714      37.328773      6310.0483      286.78049      7938.7259      1.2661392      0.68010734   
     19200  -4795.0788     -4830.8613      35.78251       6391.7281      274.90124      7958.9289      1.2629252      0.68010734   
     19300  -4793.7021     -4830.0871      36.385038      7290.7767      279.5302       7978.5902      1.259813       0.68010734   
     19400  -4793.8533     -4830.8165      36.963264      2332.567       283.97245      7994.4864      1.257308       0.68010734   
     19500  -4794.5943     -4832.0367      37.442458      1347.5282      287.65388      8001.6927      1.2561757      0.68010734   
     19600  -4793.2824     -4829.2626      35.980248      5252.5815      276.42037      7996.6052      1.2569749      0.68010734   
     19700  -4795.7531     -4832.3689      36.615819      7102.0975      281.30318      7983.2405      1.2590791      0.68010734   
     19800  -4795.4446     -4831.5386      36.093955      6489.8137      277.29393      7962.032       1.262433       0.68010734   
     19900  -4796.3783     -4832.4257      36.047442      9210.4332      276.93659      7938.5467      1.2661677      0.68010734   
     20000  -4795.4236     -4831.7263      36.302622      8224.2974      278.89703      7919.8281      1.2691603      0.76856607   
     20100  -4794.8394     -4832.9216      38.08212       7643.478       292.56813      7912.5545      1.270327       0.76856607   
     20200  -4795.4457     -4832.178       36.732259      8032.4054      282.19774      7919.581       1.2691999      0.76856607   
     20300  -4793.7869     -4831.2811      37.494206      4891.581       288.05144      7937.2531      1.2663741      0.76856607   
     20400  -4793.8706     -4830.8069      36.936255      4324.241       283.76495      7959.9047      1.2627704      0.76856607   
     20500  -4793.1744     -4829.6802      36.505753      1338.0602      280.4576       7989.639       1.2580708      0.76856607   
     20600  -4794.652      -4829.9114      35.259443      6349.7854      270.88275      8019.8204      1.2533363      0.76856607   
     20700  -4793.5109     -4831.264       37.753043      3606.2165      290.03997      8042.5476      1.2497945      0.76856607   
     20800  -4792.8027     -4829.6114      36.8087        4104.6346      282.785        8049.6485      1.248692       0.76856607   
     20900  -4793.4764     -4830.0158      36.539454      3285.7785      280.7165       8041.8396      1.2499045      0.76856607   
     21000  -4794.0001     -4831.606       37.605878      2308.8263      288.90937      8016.2894      1.2538883      0.62219246   
     21100  -4793.3856     -4830.9571      37.571424      5081.8966      288.64467      7974.9013      1.2603958      0.62219246   
     21200  -4793.8169     -4831.5684      37.751487      5840.5874      290.02801      7932.3697      1.2671537      0.62219246   
     21300  -4793.4544     -4830.9743      37.519862      5384.4139      288.24854      7899.7288      1.2723895      0.62219246   
     21400  -4793.2547     -4831.7887      38.533998      4993.7836      296.0397       7880.4774      1.2754978      0.62219246   
     21500  -4792.8398     -4830.4933      37.653459      5048.6453      289.27491      7880.2202      1.2755394      0.62219246   
     21600  -4793.9959     -4832.151       38.155168      8335.3158      293.12932      7900.7624      1.272223       0.62219246   
     21700  -4793.3625     -4831.2552      37.892715      6680.5132      291.11301      7936.1344      1.2665526      0.62219246   
     21800  -4792.4258     -4830.0339      37.608044      3156.3633      288.92601      7981.0393      1.2594264      0.62219246   
     21900  -4791.1725     -4829.6569      38.484414      645.71799      295.65877      8027.2313      1.2521792      0.62219246   
     22000  -4791.3211     -4828.8547      37.533595      2495.9019      288.35405      8064.5278      1.2463881      0.71297727   
     22100  -4792.7822     -4830.155       37.372788      1999.223       287.11864      8086.5433      1.2429948      0.71297727   
     22200  -4792.4183     -4829.4582      37.039876      1919.9774      284.56102      8080.6417      1.2439027      0.71297727   
     22300  -4792.5754     -4829.2108      36.635339      3475.4778      281.45314      8053.4201      1.2481072      0.71297727   
     22400  -4792.5335     -4829.6672      37.133681      5285.1571      285.28169      8008.2917      1.2551406      0.71297727   
     22500  -4793.609      -4830.2145      36.605433      6599.2635      281.22339      7955.3191      1.2634982      0.71297727   
     22600  -4794.5817     -4831.2729      36.691226      3819.1058      281.8825       7905.6613      1.2714346      0.71297727   
     22700  -4794.2929     -4830.8099      36.517031      5336.7483      280.54423      7866.4438      1.2777733      0.71297727   
     22800  -4794.7742     -4831.3069      36.532681      5699.8893      280.66447      7849.4559      1.2805386      0.71297727   
     22900  -4796.3262     -4831.1775      34.851287      5348.4482      267.74706      7856.6389      1.2793679      0.71297727   
     23000  -4795.5675     -4832.6171      37.049594      5197.6469      284.63568      7883.4993      1.2750089      0.71950031   
     23100  -4795.8208     -4831.6266      35.805723      7357.01        275.07957      7923.8473      1.2685166      0.71950031   
     23200  -4794.1136     -4831.952       37.838338      4540.4519      290.69525      7969.8027      1.2612021      0.71950031   
     23300  -4796.0688     -4833.5887      37.519904      3238.3166      288.24887      8008.3163      1.2551367      0.71950031   
     23400  -4794.8567     -4831.4885      36.631746      2293.7245      281.42554      8030.1291      1.2517273      0.71950031   
     23500  -4795.675      -4832.2234      36.548424      4723.8831      280.78542      8032.602       1.2513419      0.71950031   
     23600  -4795.395      -4831.3939      35.998846      5423.7167      276.56325      8016.1162      1.2539154      0.71950031   
     23700  -4794.1608     -4829.9908      35.829994      3642.672       275.26603      7986.2169      1.2586099      0.71950031   
     23800  -4794.0433     -4831.371       37.327698     -697.81721      286.77223      7951.9229      1.2640379      0.71950031   
     23900  -4794.6145     -4831.2825      36.668035      5484.6439      281.70434      7921.1981      1.2689408      0.71950031   
     24000  -4794.1322     -4830.789       36.656872      1984.2385      281.61857      7901.9443      1.2720327      0.72459594   
     24100  -4793.7514     -4831.1351      37.383722      3153.9902      287.20264      7896.0702      1.272979       0.72459594   
     24200  -4793.3624     -4830.3761      37.013689      2745.8654      284.35984      7904.0048      1.2717011      0.72459594   
     24300  -4794.0375     -4830.5067      36.469193      5406.754       280.17672      7926.9331      1.2680228      0.72459594   
     24400  -4795.8541     -4831.9484      36.094345      6369.124       277.29692      7959.7468      1.2627954      0.72459594   
     24500  -4794.9067     -4831.9406      37.033906      3943.4584      284.51516      7991.9735      1.2577033      0.72459594   
     24600  -4795.7021     -4832.2076      36.505482      3159.5852      280.45551      8011.6506      1.2546143      0.72459594   
     24700  -4795.5753     -4831.9606      36.385299      2401.8182      279.5322       8014.5969      1.2541531      0.72459594   
     24800  -4793.932      -4830.6285      36.696483      7395.5169      281.92289      7999.993       1.2564426      0.72459594   
     24900  -4793.2583     -4829.018       35.759767      6275.1838      274.72651      7974.8254      1.2604077      0.72459594   
     25000  -4793.8094     -4832.6549      38.84556       5998.4171      298.4333       7946.2575      1.2649391      0.70646767   
     25100  -4792.4463     -4830.3999      37.95359       4274.7244      291.58069      7918.2887      1.2694071      0.70646767   
     25200  -4793.379      -4831.7515      38.372546      6904.2271      294.79934      7896.4527      1.2729174      0.70646767   
     25300  -4793.8533     -4830.9901      37.136847      7646.3529      285.30601      7887.7852      1.2743161      0.70646767   
     25400  -4793.2249     -4830.7453      37.520371      2768.9003      288.25246      7895.339       1.2730969      0.70646767   
     25500  -4793.0909     -4830.8095      37.718654      4483.9975      289.77578      7917.9905      1.2694549      0.70646767   
     25600  -4791.8684     -4830.9175      39.049057      5467.7471      299.99668      7952.2746      1.263982       0.70646767   
     25700  -4794.07       -4829.9756      35.905596      5625.6271      275.84685      7995.5698      1.2571376      0.70646767   
     25800  -4793.7829     -4830.5061      36.723279      1718.5652      282.12875      8038.1466      1.2504788      0.70646767   
     25900  -4794.7326     -4831.6729      36.940244      2927.7314      283.79559      8064.7781      1.2463494      0.70646767   
     26000  -4794.4261     -4830.632       36.205842      3897.7923      278.15351      8070.7718      1.2454239      0.65812168   
     26100  -4794.5613     -4831.6909      37.129586      6372.2272      285.25022      8055.9753      1.2477113      0.65812168   
     26200  -4795.4204     -4832.1894      36.769008      3635.6143      282.48006      8023.2051      1.2528075      0.65812168   
     26300  -4794.9346     -4831.1125      36.177873      4139.5892      277.93864      7979.3137      1.2596988      0.65812168   
     26400  -4793.3202     -4829.7211      36.400866      5343.4255      279.65179      7928.8324      1.267719       0.65812168   
     26500  -4793.2517     -4830.7789      37.52722       6841.613       288.30507      7882.8137      1.2751198      0.65812168   
     26600  -4792.0128     -4830.0408      38.028006      7044.4691      292.15239      7854.0918      1.2797828      0.65812168   
     26700  -4791.6961     -4830.2649      38.568821      7990.3713      296.30723      7854.4225      1.2797289      0.65812168   
     26800  -4792.2382     -4829.1302      36.892091      9710.2652      283.42566      7889.1365      1.2740978      0.65812168   
     26900  -4791.9848     -4830.6972      38.712385      5744.4544      297.41017      7949.916       1.264357       0.65812168   
     27000  -4792.9436     -4830.8772      37.933576      4688.9432      291.42693      8019.6096      1.2533692      0.70637483   
     27100  -4793.681      -4831.2532      37.572219      2779.9953      288.65078      8079.984       1.2440039      0.70637483   
     27200  -4792.4466     -4829.6603      37.213693      24.496573      285.89638      8111.5801      1.2391583      0.70637483   
     27300  -4792.3614     -4829.6191      37.257657      6315.447       286.23414      8107.2071      1.2398267      0.70637483   
     27400  -4791.992      -4829.9203      37.928318      3594.3305      291.38653      8068.6867      1.2457457      0.70637483   
     27500  -4792.7497     -4830.856       38.106331      5389.7485      292.75413      8008.7714      1.2550654      0.70637483   
     27600  -4794.0723     -4830.7781      36.705791      4546.161       281.99439      7939.4303      1.2660268      0.70637483   
     27700  -4792.4256     -4829.5276      37.102038      7615.6498      285.03859      7878.7909      1.2757708      0.70637483   
     27800  -4790.4309     -4828.1533      37.722423      6438.3726      289.80473      7844.1085      1.2814116      0.70637483   
     27900  -4789.7266     -4829.1721      39.445492      3831.5422      303.04231      7839.6895      1.2821339      0.70637483   
     28000  -4791.0439     -4830.38        39.336121      8860.0824      302.20206      7865.9406      1.277855       0.67350662   
     28100  -4792.1686     -4830.8297      38.661107      5311.8998      297.01623      7915.1569      1.2699093      0.67350662   
     28200  -4793.284      -4830.216       36.932005      4911.5226      283.7323       7975.0541      1.2603716      0.67350662   
     28300  -4793.7607     -4830.6787      36.917995      6259.058       283.62467      8027.3607      1.252159       0.67350662   
     28400  -4793.0354     -4830.2683      37.232969      4970.4712      286.04447      8062.4181      1.2467143      0.67350662   
     28500  -4791.2924     -4831.371       40.078666      2719.095       307.90671      8079.6138      1.2440609      0.67350662   
     28600  -4790.8663     -4829.0789      38.212595      5609.9213      293.57051      8077.7677      1.2443452      0.67350662   
     28700  -4791.7405     -4829.0053      37.264809      2680.4478      286.28909      8057.6556      1.2474511      0.67350662   
     28800  -4792.158      -4829.7782      37.620169      1553.9766      289.01916      8023.0676      1.252829       0.67350662   
     28900  -4792.4509     -4831.1434      38.69252       4470.9602      297.25756      7980.8119      1.2594623      0.67350662   
     29000  -4793.2799     -4831.8872      38.60729       9332.308       296.60278      7936.9453      1.2664232      0.69131545   
     29100  -4793.4627     -4830.9897      37.527017      2763.836       288.30351      7903.4845      1.2717848      0.69131545   
     29200  -4794.0135     -4831.8137      37.800172      5835.6895      290.40204      7888.0749      1.2742693      0.69131545   
     29300  -4796.183      -4832.9579      36.774879      5498.6776      282.52517      7891.0203      1.2737937      0.69131545   
     29400  -4797.0632     -4833.2097      36.146405      6849.2637      277.69688      7904.3061      1.2716526      0.69131545   
     29500  -4796.4805     -4833.5793      37.09888       4971.9904      285.01433      7926.8764      1.2680318      0.69131545   
     29600  -4797.3417     -4833.2451      35.903432      4691.6002      275.83023      7953.6366      1.2637655      0.69131545   
     29700  -4796.5669     -4832.006       35.439102      4239.815       272.26298      7971.4964      1.2609341      0.69131545   
     29800  -4796.1152     -4832.2297      36.114561      3651.1768      277.45224      7978.9507      1.2597561      0.69131545   
     29900  -4795.6331     -4833.4849      37.851764      4200.7933      290.7984       7982.8231      1.259145       0.69131545   
     30000  -4794.0048     -4830.9519      36.947091      3639.3163      283.8482       7978.5267      1.259823       0.63296256   
     30100  -4793.6407     -4831.5965      37.955829      6402.7692      291.59788      7966.1131      1.2617862      0.63296256   
     30200  -4794.3351     -4832.1929      37.857776      4730.3616      290.84459      7951.5352      1.2640995      0.63296256   
     30300  -4794.7929     -4832.0758      37.28286       4463.7137      286.42776      7937.0586      1.2664051      0.63296256   
     30400  -4794.9373     -4832.3075      37.37024       5746.5715      287.09907      7921.3687      1.2689135      0.63296256   
     30500  -4795.0279     -4830.98        35.952108      6280.1041      276.20418      7911.4942      1.2704973      0.63296256   
     30600  -4794.2476     -4832.1035      37.855839      5195.8206      290.82971      7909.0274      1.2708935      0.63296256   
     30700  -4794.323      -4831.7949      37.471943      6183.9887      287.8804       7913.9273      1.2701066      0.63296256   
     30800  -4794.9377     -4831.475       36.537338      3474.2523      280.70025      7924.4553      1.2684193      0.63296256   
     30900  -4794.6246     -4832.4173      37.792723      4199.9085      290.34481      7937.9203      1.2662676      0.63296256   
     31000  -4794.8715     -4830.411       35.539497      5716.9134      273.03427      7955.3352      1.2634957      0.64275926   
     31100  -4793.8855     -4830.7553      36.869793      4866.7201      283.25435      7974.8138      1.2604096      0.64275926   
     31200  -4794.8758     -4832.2469      37.371083      6066.2569      287.10554      7986.543       1.2585585      0.64275926   
     31300  -4794.0136     -4830.7607      36.747068      4425.5706      282.31151      7989.0902      1.2581572      0.64275926   
     31400  -4794.5636     -4831.8429      37.279314      1905.3341      286.40052      7982.979       1.2591204      0.64275926   
     31500  -4795.7163     -4831.6264      35.91011       8655.4487      275.88153      7970.5071      1.2610906      0.64275926   
     31600  -4796.2193     -4832.7055      36.486202      4861.771       280.30739      7952.8114      1.2638967      0.64275926   
     31700  -4795.5398     -4832.4161      36.876251      3738.6941      283.30397      7931.9916      1.2672141      0.64275926   
     31800  -4793.4235     -4829.0885      35.664972      8595.6021      273.99824      7912.7245      1.2702997      0.64275926   
     31900  -4794.433      -4831.8909      37.457925      6607.8527      287.77271      7897.0227      1.2728255      0.64275926   
     32000  -4794.7313     -4831.5375      36.806221      7516.3011      282.76596      7893.16        1.2734484      0.73985191   
     32100  -4794.0254     -4830.919       36.893631      3186.8387      283.43749      7907.0129      1.2712173      0.73985191   
     32200  -4794.0062     -4830.4401      36.433847      5222.135       279.90517      7935.6324      1.2666327      0.73985191   
     32300  -4793.8021     -4829.9936      36.191501      1697.1261      278.04333      7971.5226      1.26093        0.73985191   
     32400  -4794.2791     -4830.8413      36.562205      3487.6463      280.89128      8001.4075      1.2562204      0.73985191   
     32500  -4794.3861     -4830.8155      36.429483      3226.5209      279.87164      8020.5121      1.2532282      0.73985191   
     32600  -4796.3913     -4831.2128      34.821433      105.25593      267.51771      8018.9693      1.2534693      0.73985191   
     32700  -4796.2497     -4832.1749      35.925262      6003.9933      275.99793      7997.7067      1.2568017      0.73985191   
     32800  -4795.0042     -4831.091       36.086848      5339.4013      277.23933      7969.0747      1.2613173      0.73985191   
     32900  -4795.1132     -4831.3837      36.2705        4990.2451      278.65025      7937.6777      1.2663064      0.73985191   
     33000  -4794.4765     -4830.5572      36.080763      3501.9286      277.19258      7908.7244      1.2709422      0.68614537   
     33100  -4793.9018     -4831.0197      37.117925      5674.9082      285.16064      7887.5151      1.2743597      0.68614537   
     33200  -4793.9061     -4832.5731      38.667025      6259.8273      297.06169      7882.3251      1.2751988      0.68614537   
     33300  -4792.987      -4829.8484      36.861408      7659.9444      283.18993      7895.0599      1.2731419      0.68614537   
     33400  -4793.09       -4831.0848      37.994793      9152.937       291.89723      7923.9474      1.2685006      0.68614537   
     33500  -4793.4873     -4830.5299      37.042666      2215.1771      284.58246      7962.3806      1.2623777      0.68614537   
     33600  -4793.9797     -4831.396       37.416358      2238.6596      287.45337      7998.8519      1.2566218      0.68614537   
     33700  -4794.3605     -4833.2876      38.927139      6015.4747      299.06003      8022.6991      1.2528865      0.68614537   
     33800  -4795.8693     -4832.5822      36.712885      7709.8601      282.0489       8027.7753      1.2520943      0.68614537   
     33900  -4795.4627     -4832.1856      36.722871      2724.6729      282.12562      8013.2992      1.2543562      0.68614537   
     34000  -4796.487      -4832.2643      35.777231      3913.3049      274.86068      7979.3692      1.25969        0.62945263   
     34100  -4795.9629     -4831.166       35.203071      6456.8172      270.44966      7933.2577      1.2670119      0.62945263   
     34200  -4796.2198     -4832.9177      36.697909      5096.9563      281.93384      7892.1289      1.2736147      0.62945263   
     34300  -4795.888      -4832.2458      36.357856      5827.5467      279.32137      7864.6075      1.2780716      0.62945263   
     34400  -4795.5886     -4832.0608      36.472227      6633.6461      280.20002      7855.0753      1.2796226      0.62945263   
     34500  -4796.4422     -4833.1032      36.660996      6665.8617      281.65026      7867.1581      1.2776573      0.62945263   
     34600  -4796.6851     -4832.2773      35.592114      8118.3474      273.43851      7897.8829      1.2726868      0.62945263   
     34700  -4795.4985     -4831.446       35.94751       5947.2555      276.16886      7938.5084      1.2661738      0.62945263   
     34800  -4794.1135     -4831.0334      36.919936      4282.6677      283.63958      7977.0211      1.2600608      0.62945263   
     34900  -4794.2846     -4831.2986      37.01403       2576.4011      284.36246      8008.4011      1.2551234      0.62945263   
     35000  -4795.2269     -4831.4381      36.211204      4226.154       278.1947       8024.9356      1.2525374      0.67215871   
     35100  -4795.789      -4832.5666      36.777596      5943.5917      282.54604      8020.8296      1.2531786      0.67215871   
     35200  -4794.8574     -4832.3327      37.475289      2967.4091      287.90611      7996.0059      1.2570691      0.67215871   
     35300  -4793.0562     -4831.9828      38.926563      1894.0681      299.05561      7958.9315      1.2629248      0.67215871   
     35400  -4793.398      -4830.5941      37.196169      4413.3102      285.76176      7920.4874      1.2690547      0.67215871   
     35500  -4792.768      -4830.8486      38.080602      6409.3839      292.55646      7891.7148      1.2736816      0.67215871   
     35600  -4793.003      -4830.1286      37.125657      7981.5803      285.22004      7878.8894      1.2757549      0.67215871   
     35700  -4792.8915     -4830.4784      37.586899      12048.113      288.76356      7881.5871      1.2753182      0.67215871   
     35800  -4792.0842     -4830.9016      38.817381      6180.4058      298.21681      7901.8206      1.2720526      0.67215871   
     35900  -4792.6547     -4829.4327      36.778056      3050.3061      282.54958      7933.0936      1.2670381      0.67215871   
     36000  -4793.3249     -4830.6565      37.331622      2997.885       286.80238      7966.9921      1.261647       0.69904254   
     36100  -4793.976      -4831.8961      37.920015      2336.3637      291.32275      7997.6627      1.2568087      0.69904254   
     36200  -4793.1682     -4831.0345      37.866293      3020.1175      290.91002      8014.2473      1.2542078      0.69904254   
     36300  -4792.2111     -4831.274       39.06291       1727.8364      300.1031       8017.4291      1.2537101      0.69904254   
     36400  -4791.3688     -4830.7765      39.407757      4339.2623      302.75241      8002.6251      1.2560293      0.69904254   
     36500  -4793.0748     -4830.2448      37.17002       3702.311       285.56086      7977.5299      1.2599804      0.69904254   
     36600  -4794.018      -4830.4834      36.46542       2870.2562      280.14774      7946.5455      1.2648932      0.69904254   
     36700  -4795.3104     -4832.0341      36.723789      4299.2434      282.13267      7913.2383      1.2702172      0.69904254   
     36800  -4795.2583     -4832.1384      36.880112      6207.3745      283.33362      7886.4423      1.2745331      0.69904254   
     36900  -4793.0938     -4830.1099      37.016154      6620.6249      284.37878      7866.9244      1.2776952      0.69904254   
     37000  -4793.4332     -4831.0801      37.646879      6991.5396      289.22436      7863.9142      1.2781843      0.68332854   
     37100  -4792.7656     -4829.9635      37.197948      9689.4589      285.77542      7876.7828      1.2760961      0.68332854   
     37200  -4794.4954     -4832.4229      37.9275        5629.6184      291.38025      7902.9146      1.2718765      0.68332854   
     37300  -4795.2835     -4831.6673      36.383856      5552.0439      279.52111      7934.9795      1.2667369      0.68332854   
     37400  -4795.2936     -4832.9962      37.70264       3657.8672      289.65275      7966.3287      1.2617521      0.68332854   
     37500  -4792.6635     -4830.0041      37.340609      6341.3796      286.87142      7994.0604      1.257375       0.68332854   
     37600  -4792.111      -4829.6265      37.515567      5157.3936      288.21555      8015.4589      1.2540182      0.68332854   
     37700  -4792.0287     -4830.0707      38.042003      3334.447       292.25992      8023.7123      1.2527283      0.68332854   
     37800  -4790.014      -4829.7699      39.755926      5770.432       305.42724      8017.6623      1.2536736      0.68332854   
     37900  -4791.3942     -4829.8448      38.45053       2274.5781      295.39846      8001.5843      1.2561927      0.68332854   
     38000  -4793.4171     -4831.6246      38.207508      6035.3348      293.53142      7976.649       1.2601196      0.71680625   
     38100  -4792.6347     -4832.2975      39.662829      6123.5448      304.71201      7949.2217      1.2644674      0.71680625   
     38200  -4793.0639     -4831.1736      38.10978       5383.0528      292.78062      7924.4092      1.2684266      0.71680625   
     38300  -4793.0416     -4829.9554      36.91382       5965.8821      283.59259      7907.8791      1.2710781      0.71680625   
     38400  -4793.1405     -4830.4344      37.293894      3301.9681      286.51253      7900.786       1.2722192      0.71680625   
     38500  -4793.3223     -4830.9355      37.613221      3577.096       288.96578      7900.5764      1.272253       0.71680625   
     38600  -4792.6558     -4829.5401      36.884321      6598.506       283.36597      7908.9321      1.2709088      0.71680625   
     38700  -4793.1134     -4829.8459      36.732517      4235.1962      282.19972      7931.7238      1.2672569      0.71680625   
     38800  -4791.9271     -4830.7092      38.782028      5145.751       297.94521      7964.2643      1.2620791      0.71680625   
     38900  -4792.5268     -4830.1463      37.61949       2138.7893      289.01394      8001.0201      1.2562813      0.71680625   
     39000  -4793.3552     -4830.8654      37.510141      1858.0892      288.17386      8031.7511      1.2514745      0.7846773    
     39100  -4793.0038     -4830.9346      37.930801      1198.8388      291.40561      8046.7541      1.2491412      0.7846773    
     39200  -4794.0667     -4830.9161      36.849384      2841.4388      283.09756      8037.9487      1.2505096      0.7846773    
     39300  -4793.4644     -4831.147       37.682541      2372.17        289.49834      8009.9124      1.2548866      0.7846773    
     39400  -4793.21       -4830.672       37.462001      5170.9381      287.80402      7967.8005      1.261519       0.7846773    
     39500  -4792.8893     -4829.6681      36.77884       5298.3292      282.5556       7922.8907      1.2686697      0.7846773    
     39600  -4792.5001     -4830.6438      38.143687      8394.8547      293.04112      7890.7261      1.2738412      0.7846773    
     39700  -4793.6138     -4831.4733      37.859495      4527.777       290.85779      7881.1217      1.2753935      0.7846773    
     39800  -4794.0546     -4830.4669      36.412312      5067.2164      279.73972      7891.1953      1.2737654      0.7846773    
     39900  -4794.7564     -4831.0963      36.339896      5860.8876      279.18338      7911.6472      1.2704727      0.7846773    
     40000  -4795.4503     -4832.7325      37.282154      2198.3952      286.42234      7935.8118      1.2666041      0.64394862   
     40100  -4794.6876     -4831.7292      37.041604      5183.0789      284.5743       7957.6446      1.263129       0.64394862   
     40200  -4793.4433     -4829.9671      36.523892      4895.3169      280.59694      7978.2487      1.2598669      0.64394862   
     40300  -4791.8993     -4830.1499      38.250692      3475.1797      293.86319      7997.4665      1.2568395      0.64394862   
     40400  -4792.3234     -4830.388       38.064604      4614.957       292.43355      8013.8725      1.2542665      0.64394862   
     40500  -4792.817      -4830.2541      37.437054      6184.2991      287.61237      8017.8313      1.2536472      0.64394862   
     40600  -4792.9264     -4831.499       38.572625      5004.858       296.33646      8008.7752      1.2550648      0.64394862   
     40700  -4792.5996     -4829.9115      37.311958      7682.0739      286.65131      7988.3299      1.258277       0.64394862   
     40800  -4790.2729     -4829.0326      38.759714      5264.4897      297.77378      7965.7635      1.2618416      0.64394862   
     40900  -4790.9064     -4827.9337      37.027391      5209.4555      284.4651       7948.7889      1.2645362      0.64394862   
     41000  -4789.9148     -4828.7796      38.864738      3858.8101      298.58064      7945.0502      1.2651313      0.67583485   
     41100  -4791.0037     -4830.0337      39.029983      5530.5513      299.85014      7951.9821      1.2640285      0.67583485   
     41200  -4790.5168     -4829.3205      38.803666      7954.6059      298.11144      7965.8117      1.261834       0.67583485   
     41300  -4791.1525     -4831.0189      39.866354      4909.4186      306.27561      7987.0902      1.2584723      0.67583485   
     41400  -4793.951      -4831.2474      37.296469      4612.6557      286.53232      8006.3103      1.2554512      0.67583485   
     41500  -4793.0615     -4829.9103      36.848852      6966.1783      283.09347      8013.1745      1.2543757      0.67583485   
     41600  -4794.1306     -4830.3189      36.188358      1411.6062      278.01919      8010.4432      1.2548034      0.67583485   
     41700  -4796.0441     -4831.1827      35.138667      1511.863       269.95487      7994.2039      1.2573524      0.67583485   
     41800  -4795.8377     -4832.2754      36.437676      1045.5841      279.93459      7964.794       1.2619952      0.67583485   
     41900  -4796.0845     -4832.4041      36.319639      6620.2281      279.02776      7931.9098      1.2672272      0.67583485   
     42000  -4793.8055     -4831.3875      37.58196       7651.9224      288.72562      7909.6716      1.27079        0.73650362   
     42100  -4792.3923     -4830.931       38.538673      7132.4102      296.07562      7901.4583      1.272111       0.73650362   
     42200  -4793.3215     -4830.9839      37.662444      5356.1865      289.34394      7907.6523      1.2711145      0.73650362   
     42300  -4792.1628     -4830.4133      38.25049       8216.2909      293.86164      7929.6688      1.2675853      0.73650362   
     42400  -4792.6851     -4830.7222      38.037047      3624.7944      292.22185      7963.5199      1.2621971      0.73650362   
     42500  -4794.8736     -4831.3334      36.459852      2120.973       280.10496      7996.4559      1.2569983      0.73650362   
     42600  -4794.2262     -4830.3677      36.14147       2780.6026      277.65897      8015.6902      1.2539821      0.73650362   
     42700  -4793.8645     -4830.9781      37.113675      6715.9103      285.12799      8017.2314      1.253741       0.73650362   
     42800  -4792.9615     -4830.4184      37.456921      5943.534       287.765        8003.3483      1.2559158      0.73650362   
     42900  -4791.8752     -4829.8588      37.983539      3879.7143      291.81077      7979.8973      1.2596066      0.73650362   
     43000  -4792.14       -4829.7588      37.618769      3771.0626      289.0084       7953.7853      1.2637419      0.72315887   
     43100  -4792.3303     -4829.768       37.437634      1529.0645      287.61682      7926.0782      1.2681595      0.72315887   
     43200  -4792.7        -4829.9792      37.279199      6517.3586      286.39964      7903.9976      1.2717023      0.72315887   
     43300  -4792.55       -4830.3166      37.766647      4873.3813      290.14449      7898.192       1.272637       0.72315887   
     43400  -4793.2356     -4830.363       37.127384      2692.5734      285.23331      7906.1443      1.271357       0.72315887   
     43500  -4792.3045     -4829.2676      36.963105      7271.3168      283.97123      7926.1349      1.2681505      0.72315887   
     43600  -4792.4224     -4829.9927      37.570247      3862.1379      288.63563      7952.8754      1.2638865      0.72315887   
     43700  -4792.6565     -4831.1484      38.491831      2444.1268      295.71576      7980.3411      1.2595366      0.72315887   
     43800  -4793.1123     -4831.2248      38.11253       2775.7392      292.80175      7997.5841      1.256821       0.72315887   
     43900  -4791.5739     -4829.2363      37.662412      4426.1883      289.34369      8000.5431      1.2563562      0.72315887   
     44000  -4791.2828     -4829.8967      38.613931      2952.4552      296.65379      7993.798       1.2574163      0.71683755   
     44100  -4790.5801     -4829.2542      38.674076      4405.0936      297.11586      7978.2347      1.2598691      0.71683755   
     44200  -4791.2449     -4828.6799      37.434994      4091.9538      287.59654      7958.2149      1.2630385      0.71683755   
     44300  -4792.7605     -4830.0497      37.289196      5620.3694      286.47644      7938.1765      1.2662268      0.71683755   
     44400  -4792.3159     -4830.5481      38.232211      6934.7455      293.72121      7919.4314      1.2692239      0.71683755   
     44500  -4793.6964     -4830.7181      37.021616      5124.0101      284.42074      7908.0106      1.2710569      0.71683755   
     44600  -4794.0313     -4831.3329      37.301613      10196.451      286.57183      7902.9406      1.2718724      0.71683755   
     44700  -4794.3132     -4831.4637      37.150457      6054.9887      285.41057      7902.7824      1.2718978      0.71683755   
     44800  -4792.5059     -4829.9389      37.432948      7774.0431      287.58083      7912.5299      1.270331       0.71683755   
     44900  -4793.1826     -4830.7846      37.602005      5600.8705      288.87961      7931.2631      1.2673305      0.71683755   
     45000  -4793.415      -4831.9748      38.559767      2695.9291      296.23767      7951.8097      1.2640559      0.67730494   
     45100  -4795.3105     -4831.6855      36.375008      3613.0067      279.45313      7973.3546      1.2606402      0.67730494   
     45200  -4795.1624     -4832.123       36.96058       4612.2185      283.95183      7985.763       1.2586814      0.67730494   
     45300  -4795.2734     -4831.1999      35.926496      4304.4602      276.00742      7983.6536      1.259014       0.67730494   
     45400  -4794.1637     -4830.8319      36.668217      953.73749      281.70573      7972.6067      1.2607585      0.67730494   
     45500  -4793.4097     -4831.4344      38.024775      4112.1438      292.12757      7959.5376      1.2628286      0.67730494   
     45600  -4792.9319     -4829.6426      36.710681      9235.4994      282.03196      7947.3324      1.264768       0.67730494   
     45700  -4792.3503     -4831.4779      39.127524      8369.2639      300.59951      7943.1356      1.2654362      0.67730494   
     45800  -4793.0564     -4831.0937      38.037228      6670.0087      292.22324      7948.2812      1.264617       0.67730494   
     45900  -4793.1969     -4829.4407      36.243741      5740.557       278.44467      7960.9587      1.2626032      0.67730494   
     46000  -4793.3947     -4830.673       37.278254      3955.0551      286.39237      7978.6852      1.259798       0.63998571   
     46100  -4794.9225     -4831.2751      36.352656      4680.4623      279.28141      7991.4651      1.2577833      0.63998571   
     46200  -4795.7547     -4831.808       36.053341      2639.2987      276.98191      7994.4822      1.2573087      0.63998571   
     46300  -4795.193      -4831.7479      36.554852      6875.7566      280.8348       7983.9126      1.2589732      0.63998571   
     46400  -4794.9251     -4831.9425      37.017391      5522.9629      284.38829      7966.6059      1.2617082      0.63998571   
     46500  -4794.6149     -4830.2055      35.590564      8832.6654      273.4266       7949.2204      1.2644676      0.63998571   
     46600  -4795.1255     -4831.7864      36.66086       3197.347       281.64921      7939.0166      1.2660928      0.63998571   
     46700  -4795.0324     -4831.7501      36.717765      346.08606      282.08639      7930.9372      1.2673826      0.63998571   
     46800  -4795.4553     -4830.7576      35.302254      5074.2875      271.21164      7921.9865      1.2688145      0.63998571   
     46900  -4795.0261     -4831.8863      36.860179      4816.9427      283.18049      7920.1815      1.2691037      0.63998571   
     47000  -4794.0433     -4830.1783      36.134994      5116.951       277.60922      7923.7567      1.2685311      0.71903015   
     47100  -4795.5666     -4831.3451      35.778517      3992.9813      274.87056      7935.3988      1.26667        0.71903015   
     47200  -4795.3899     -4832.7318      37.341909      2593.112       286.88141      7950.0577      1.2643344      0.71903015   
     47300  -4795.4113     -4832.9918      37.580471      3275.4933      288.71417      7964.2917      1.2620748      0.71903015   
     47400  -4795.384      -4830.9097      35.525669      6646.0869      272.92804      7976.6583      1.2601181      0.71903015   
     47500  -4796.0907     -4832.9024      36.811713      3637.3483      282.80815      7980.2572      1.2595498      0.71903015   
     47600  -4794.9193     -4830.7728      35.853544      4887.7001      275.44696      7973.3931      1.2606342      0.71903015   
     47700  -4793.7956     -4831.5097      37.7141        3480.111       289.74079      7963.0227      1.2622759      0.71903015   
     47800  -4793.3923     -4829.9708      36.578526      6939.9202      281.01668      7951.2009      1.2641527      0.71903015   
     47900  -4795.3955     -4832.1884      36.792893      5247.266       282.66356      7942.0696      1.2656061      0.71903015   
     48000  -4796.1716     -4832.5562      36.384553      5333.0208      279.52646      7938.1204      1.2662357      0.69480501   
     48100  -4795.7625     -4832.9053      37.142811      5908.5178      285.35183      7938.6071      1.2661581      0.69480501   
     48200  -4796.2355     -4831.1871      34.951602      4055.9426      268.51773      7941.6157      1.2656784      0.69480501   
     48300  -4795.3023     -4832.0827      36.780392      7857.9989      282.56752      7944.3641      1.2652406      0.69480501   
     48400  -4793.904      -4831.6629      37.758927      6350.3798      290.08518      7948.596       1.2645669      0.69480501   
     48500  -4794.198      -4831.2068      37.008822      3907.4837      284.32245      7953.1664      1.2638402      0.69480501   
     48600  -4794.1411     -4829.6917      35.550635      5587.064       273.11984      7957.7687      1.2631093      0.69480501   
     48700  -4793.2097     -4830.5602      37.350507      4997.202       286.94746      7963.1315      1.2622587      0.69480501   
     48800  -4794.6883     -4831.1258      36.437572      6480.5632      279.93379      7968.8927      1.2613461      0.69480501   
     48900  -4794.8359     -4831.6416      36.805674      4966.9245      282.76176      7975.3588      1.2603234      0.69480501   
     49000  -4793.8435     -4829.7937      35.950153      6129.2785      276.18916      7977.9788      1.2599095      0.64508605   
     49100  -4794.5987     -4831.3038      36.705021      4768.053       281.98848      7978.3102      1.2598572      0.64508605   
     49200  -4795.5605     -4831.3528      35.792325      2835.0178      274.97664      7975.1997      1.2603486      0.64508605   
     49300  -4793.9612     -4829.8307      35.869512      4771.0881      275.56963      7964.9482      1.2619707      0.64508605   
     49400  -4793.9299     -4830.6076      36.677704      5674.0453      281.77861      7951.3461      1.2641296      0.64508605   
     49500  -4793.4932     -4829.7219      36.228698      5853.8007      278.3291       7939.5647      1.2660054      0.64508605   
     49600  -4795.2772     -4831.9696      36.692403      4481.1901      281.89154      7936.885       1.2664328      0.64508605   
     49700  -4795.6292     -4830.1725      34.543256      5744.4118      265.38059      7940.9419      1.2657858      0.64508605   
     49800  -4795.8056     -4831.5026      35.696984      3322.1902      274.24418      7952.1613      1.264          0.64508605   
     49900  -4796.5552     -4831.7852      35.230082      5655.123       270.65718      7964.6354      1.2620203      0.64508605   
     50000  -4795.9968     -4831.3206      35.323785      4574.6502      271.37706      7971.9453      1.2608631      0.70194179   
     50100  -4795.4531     -4831.2025      35.749492      3790.8462      274.64757      7972.5967      1.2607601      0.70194179   
     50200  -4796.2397     -4831.553       35.31331       4671.704       271.29658      7965.2746      1.261919       0.70194179   
     50300  -4796.7113     -4832.3174      35.606056      2966.8464      273.54562      7953.8797      1.2637269      0.70194179   
     50400  -4796.0283     -4833.7252      37.696807      6294.9395      289.60794      7941.0118      1.2657747      0.70194179   
     50500  -4794.6854     -4831.5629      36.877482      4483.7013      283.31342      7932.1612      1.267187       0.70194179   
     50600  -4793.5705     -4830.2262      36.655753      3148.2709      281.60997      7930.4797      1.2674557      0.70194179   
     50700  -4792.1852     -4830.8586      38.673399      5616.7032      297.11066      7940.4498      1.2658643      0.70194179   
     50800  -4792          -4831.0625      39.062531      6833.1066      300.10019      7961.1486      1.262573       0.70194179   
     50900  -4792.6271     -4830.1007      37.473639      5782.8322      287.89344      7983.7572      1.2589977      0.70194179   
     51000  -4791.8551     -4830.7156      38.86052       4013.7177      298.54823      8003.5978      1.2558767      0.7098738    
     51100  -4792.6107     -4831.0676      38.456904      2907.1062      295.44743      8019.3507      1.2534097      0.7098738    
     51200  -4792.2457     -4830.2312      37.98545       728.89281      291.82545      8025.5658      1.252439       0.7098738    
     51300  -4792.0943     -4829.06        36.965643      1160.1665      283.99073      8020.5745      1.2532184      0.7098738    
     51400  -4792.1668     -4829.2122      37.045368      3001.8323      284.60322      8005.0579      1.2556476      0.7098738    
     51500  -4791.9704     -4829.5906      37.620249      2569.8135      289.01977      7985.2066      1.2587692      0.7098738    
     51600  -4789.4432     -4828.6674      39.224109      5823.658       301.34153      7961.8618      1.26246        0.7098738    
     51700  -4790.3877     -4829.6976      39.309808      6064.4782      301.99991      7947.6656      1.264715       0.7098738    
     51800  -4789.8907     -4828.875       38.984231      5527.3763      299.49864      7945.6021      1.2650434      0.7098738    
     51900  -4789.8248     -4830.1613      40.336493      5404.3651      309.88748      7958.6061      1.2629764      0.7098738    
     52000  -4789.9967     -4829.645       39.648377      4794.141       304.60099      7978.5495      1.2598194      0.78590414   
     52100  -4790.1717     -4830.2824      40.11074       3903.7688      308.15312      8002.5601      1.2560395      0.78590414   
     52200  -4791.4581     -4830.4478      38.989655      2082.1914      299.54032      8023.9036      1.2526985      0.78590414   
     52300  -4792.0425     -4831.0951      39.052598      2871.8866      300.02388      8036.15        1.2507895      0.78590414   
     52400  -4793.1862     -4830.0163      36.830129      3747.6555      282.94963      8034.3803      1.251065       0.78590414   
     52500  -4791.8844     -4829.7916      37.907154      386.89653      291.22394      8021.0564      1.2531431      0.78590414   
     52600  -4791.5638     -4830.5969      39.033066      7605.2811      299.87382      7997.0213      1.2569095      0.78590414   
     52700  -4792.4943     -4829.9707      37.47643       6090.2551      287.91488      7970.4988      1.2610919      0.78590414   
     52800  -4792.9144     -4830.1659      37.251483      6816.0741      286.18671      7947.1086      1.2648036      0.78590414   
     52900  -4793.3752     -4832.436       39.060792      5219.3178      300.08683      7930.6414      1.2674299      0.78590414   
     53000  -4793.1952     -4830.2249      37.029645      8408.8531      284.48242      7923.6841      1.2685427      0.69962515   
     53100  -4793.6368     -4831.1187      37.481869      8684.8574      287.95666      7928.6262      1.267752       0.69962515   
     53200  -4794.9789     -4832.594       37.61507       5401.2598      288.97999      7944.5834      1.2652056      0.69962515   
     53300  -4793.3005     -4830.3013      37.000837      6407.5472      284.26111      7965.9306      1.2618151      0.69962515   
     53400  -4793.9542     -4831.5087      37.554524      7086.8123      288.51484      7988.7643      1.2582086      0.69962515   
     53500  -4792.2536     -4829.4657      37.212192      4672.0844      285.88485      8009.558       1.2549421      0.69962515   
     53600  -4794.0734     -4831.9284      37.854961      279.83837      290.82296      8026.6126      1.2522757      0.69962515   
     53700  -4793.7438     -4829.3391      35.595255      6231.0544      273.46264      8034.0435      1.2511174      0.69962515   
     53800  -4793.0642     -4830.0072      36.943071      3704.1564      283.81731      8034.7204      1.251012       0.69962515   
     53900  -4792.6861     -4830.0616      37.375532      2549.1614      287.13972      8024.2869      1.2526386      0.69962515   
     54000  -4792.5974     -4830.4316      37.834176      2681.2755      290.66328      7999.6598      1.2564949      0.65397564   
     54100  -4792.2427     -4829.3369      37.09417       6633.3796      284.97814      7965.5197      1.2618802      0.65397564   
     54200  -4792.9401     -4829.7456      36.805418      5546.5562      282.75979      7934.627       1.2667932      0.65397564   
     54300  -4792.0006     -4829.4036      37.403062      5414.7497      287.35122      7916.7632      1.2696517      0.65397564   
     54400  -4791.9739     -4830.0551      38.081234      5138.545       292.56132      7914.2272      1.2700585      0.65397564   
     54500  -4791.3236     -4829.7759      38.452301      7034.2854      295.41206      7929.4821      1.2676152      0.65397564   
     54600  -4791.9724     -4829.5262      37.553842      8132.2039      288.5096       7961.1759      1.2625687      0.65397564   
     54700  -4792.9617     -4832.2164      39.254731      3284.2898      301.57677      7998.5278      1.2566727      0.65397564   
     54800  -4792.6046     -4830.1138      37.509183      5896.4023      288.1665       8030.313       1.2516986      0.65397564   
     54900  -4792.7942     -4830.2822      37.487968      5149.0497      288.00352      8046.9049      1.2491177      0.65397564   
     55000  -4792.3277     -4830.2684      37.940772      4142.1281      291.48221      8040.6359      1.2500916      0.82069731   
     55100  -4792.9887     -4829.7659      36.777211      7263.4697      282.54308      8014.4857      1.2541705      0.82069731   
     55200  -4793.6217     -4830.9325      37.310857      8339.389       286.64285      7977.2973      1.2600172      0.82069731   
     55300  -4793.6544     -4830.3234      36.668932     -722.35346      281.71123      7939.0815      1.2660824      0.82069731   
     55400  -4794.3209     -4831.9536      37.632743      5272.1862      289.11576      7906.8011      1.2712514      0.82069731   
     55500  -4795.7438     -4831.1711      35.427282      11246.736      272.17218      7888.0262      1.2742772      0.82069731   
     55600  -4794.5645     -4831.2378      36.673298      4745.3935      281.74477      7882.6118      1.2751524      0.82069731   
     55700  -4794.7449     -4831.5544      36.8095        4935.4677      282.79115      7887.1519      1.2744184      0.82069731   
[...]
    386300  -4792.0778     -4829.996       37.918257      2766.9293      291.30924      7962.9969      1.26228        0.62222937   
    386400  -4791.2744     -4828.628       37.353625      1891.3985      286.97142      7957.2402      1.2631932      0.62222937   
    386500  -4793.397      -4830.0481      36.651102      4373.9268      281.57424      7951.8214      1.264054       0.62222937   
    386600  -4794.5008     -4830.8797      36.378855      3077.0307      279.48269      7948.2958      1.2646147      0.62222937   
    386700  -4795.7773     -4832.4653      36.687925      4653.3473      281.85714      7945.9023      1.2649956      0.62222937   
    386800  -4794.339      -4831.1863      36.84728       5988.2748      283.0814       7944.0871      1.2652847      0.62222937   
    386900  -4793.6397     -4830.5563      36.916629      4889.8943      283.61417      7944.6913      1.2651884      0.62222937   
    387000  -4794.1789     -4831.1482      36.969236      3096.4075      284.01833      7947.8369      1.2646877      0.66700263   
    387100  -4794.4816     -4831.0747      36.59311       7873.1529      281.12872      7950.8862      1.2642027      0.66700263   
    387200  -4795.4331     -4830.1463      34.713181      5944.9582      266.68605      7950.0344      1.2643381      0.66700263   
    387300  -4796.0757     -4831.8439      35.76819       3399.9947      274.79122      7940.9031      1.265792       0.66700263   
    387400  -4794.6936     -4832.288       37.594423      4489.9797      288.82136      7927.4345      1.2679426      0.66700263   
    387500  -4795.0994     -4831.8498      36.7504        6808.5852      282.33711      7916.425       1.2697059      0.66700263   
    387600  -4795.4892     -4833.1174      37.628233      4208.5577      289.08111      7909.054       1.2708893      0.66700263   
    387700  -4796.0823     -4831.7742      35.691905      5408.5029      274.20516      7907.3208      1.2711678      0.66700263   
    387800  -4795.7685     -4832.4878      36.719291      1204.7491      282.09811      7910.1065      1.2707201      0.66700263   
    387900  -4796.0736     -4832.3122      36.238578      2960.8767      278.405        7912.828       1.2702831      0.66700263   
    388000  -4796.9843     -4833.1987      36.214448      5967.9503      278.21963      7914.7211      1.2699793      0.69030467   
    388100  -4796.5786     -4832.6609      36.082323      3796.9724      277.20457      7916.7987      1.269646       0.69030467   
    388200  -4796.351      -4831.5961      35.245121      7478.4479      270.77271      7918.365       1.2693948      0.69030467   
    388300  -4796.5574     -4833.2242      36.666789      5806.9831      281.69476      7922.0121      1.2688104      0.69030467   
    388400  -4795.8176     -4832.8401      37.022506      5655.9342      284.42757      7924.7102      1.2683784      0.69030467   
    388500  -4795.8705     -4833.4621      37.591632      5721.5494      288.79992      7925.3363      1.2682783      0.69030467   
    388600  -4793.8188     -4831.1624      37.34362       3430.7395      286.89455      7928.7665      1.2677296      0.69030467   
    388700  -4793.5099     -4830.2756      36.765768      1348.5202      282.45517      7938.7873      1.2661294      0.69030467   
    388800  -4794.4329     -4831.3563      36.923352      3468.8382      283.66582      7950.1361      1.264322       0.69030467   
    388900  -4794.3624     -4831.473       37.110589      1315.1228      285.10428      7957.7201      1.263117       0.69030467   
    389000  -4794.0959     -4830.9022      36.806231      4789.4086      282.76603      7958.4544      1.2630005      0.66130093   
    389100  -4794.604      -4833.3047      38.70069       5635.9966      297.32032      7953.4098      1.2638016      0.66130093   
    389200  -4794.9728     -4831.3609      36.388156      3163.2679      279.55415      7940.0922      1.2659213      0.66130093   
    389300  -4796.1554     -4832.5453      36.389898      3476.8946      279.56753      7924.6831      1.2683828      0.66130093   
    389400  -4795.4388     -4830.3121      34.873237      2536.1687      267.91569      7909.7796      1.2707727      0.66130093   
    389500  -4795.1465     -4831.9507      36.804112      3974.903       282.74975      7901.8177      1.2720531      0.66130093   
    389600  -4795.654      -4831.3801      35.726066      7057.3821      274.4676       7903.1978      1.271831       0.66130093   
    389700  -4796.2477     -4832.6843      36.436676      2876.1238      279.92691      7911.5455      1.270489       0.66130093   
    389800  -4797.466      -4831.9427      34.476717      2552.6301      264.8694       7919.6747      1.2691849      0.66130093   
    389900  -4795.5581     -4831.2137      35.655637      2790.9955      273.92652      7924.9338      1.2683427      0.66130093   
    390000  -4795.5567     -4832.6691      37.112326      5190.0788      285.11763      7932.7083      1.2670996      0.6491408    
    390100  -4794.812      -4833.4162      38.604188      5087.2557      296.57894      7942.0015      1.2656169      0.6491408    
    390200  -4793.4942     -4830.4609      36.966744      7485.858       283.99919      7952.6165      1.2639276      0.6491408    
    390300  -4792.5611     -4829.2699      36.708765      3582.583       282.01724      7966.3521      1.2617484      0.6491408    
    390400  -4793.0604     -4831.0105      37.950097      4566.0806      291.55385      7979.8598      1.2596126      0.6491408    
    390500  -4792.46       -4830.111       37.651047      5129.1463      289.25638      7987.8476      1.258353       0.6491408    
    390600  -4792.3781     -4830.0876      37.709486      3333.343       289.70534      7989.7366      1.2580554      0.6491408    
    390700  -4791.4279     -4829.7145      38.286572      4582.5144      294.13884      7989.0981      1.258156       0.6491408    
    390800  -4791.9921     -4830.2712      38.279158      5873.1453      294.08188      7979.4254      1.2596811      0.6491408    
    390900  -4791.7453     -4830.1396      38.394306      3514.4379      294.96651      7966.898       1.2616619      0.6491408    
    391000  -4792.0407     -4829.052       37.011269      7966.9468      284.34125      7952.9234      1.2638789      0.73354168   
    391100  -4791.5228     -4829.9751      38.452276      4963.17        295.41187      7947.2933      1.2647742      0.73354168   
    391200  -4792.2031     -4829.3673      37.164174      3436.8479      285.51595      7948.5651      1.2645719      0.73354168   
    391300  -4792.0108     -4830.2931      38.282274      4100.9705      294.10582      7954.9242      1.263561       0.73354168   
    391400  -4793.7482     -4832.2497      38.501519      4119.0311      295.79018      7964.4381      1.2620516      0.73354168   
    391500  -4793.8684     -4831.7555      37.887118      5732.3124      291.07001      7973.5899      1.260603       0.73354168   
    391600  -4793.4485     -4830.5403      37.091825      5377.7273      284.96013      7977.8685      1.259927       0.73354168   
    391700  -4793.5688     -4830.5633      36.994504      4023.4075      284.21245      7978.5916      1.2598128      0.73354168   
    391800  -4792.0495     -4829.9632      37.913747      5361.7713      291.27459      7975.9808      1.2602252      0.73354168   
    391900  -4792.0875     -4830.3961      38.308605      3668.6851      294.30811      7968.1882      1.2614576      0.73354168   
    392000  -4792.1185     -4829.3426      37.224142      3324.1655      285.97666      7960.1056      1.2627385      0.76194178   
    392100  -4791.934      -4830.6888      38.754877      4956.8819      297.73662      7949.3636      1.2644448      0.76194178   
    392200  -4792.6328     -4830.978       38.345189      4706.6547      294.58917      7936.7728      1.2664507      0.76194178   
    392300  -4792.6844     -4830.2927      37.608312      3256.904       288.92807      7925.8655      1.2681936      0.76194178   
    392400  -4792.9624     -4829.2992      36.336763      4140.0534      279.15932      7920.6031      1.2690361      0.76194178   
    392500  -4793.7977     -4831.8401      38.042397      6814.6659      292.26295      7924.845       1.2683569      0.76194178   
    392600  -4794.7167     -4832.0989      37.382242      5758.3553      287.19127      7939.6471      1.2659922      0.76194178   
    392700  -4794.4817     -4830.9895      36.507826      5315.7789      280.47352      7956.6742      1.263283       0.76194178   
    392800  -4794.807      -4831.3342      36.527261      4018.4732      280.62283      7973.5817      1.2606043      0.76194178   
    392900  -4795.3768     -4832.1662      36.789442      2334.2338      282.63705      7985.1972      1.2587706      0.76194178   
    393000  -4795.1804     -4831.2588      36.078447      2490.6692      277.17479      7984.1755      1.2589317      0.73274464   
    393100  -4795.506      -4831.1106      35.604647      5078.9053      273.53479      7971.3818      1.2609522      0.73274464   
    393200  -4795.1973     -4831.0259      35.828587      3215.8116      275.25522      7948.2442      1.2646229      0.73274464   
    393300  -4794.5737     -4830.8954      36.321782      5680.9396      279.04422      7920.2795      1.269088       0.73274464   
    393400  -4793.8681     -4831.0826      37.214529      7416.3384      285.90281      7899.5187      1.2724233      0.73274464   
    393500  -4793.3931     -4831.6563      38.263218      9536.5779      293.95942      7893.4405      1.2734031      0.73274464   
    393600  -4793.5721     -4828.9189      35.346811      8517.4533      271.55395      7901.7433      1.2720651      0.73274464   
    393700  -4792.1795     -4830.4115      38.232009      4621.3627      293.71966      7929.7744      1.2675684      0.73274464   
    393800  -4792.9391     -4830.8495      37.910406      5950.2757      291.24892      7968.9092      1.2613435      0.73274464   
    393900  -4793.1953     -4831.0624      37.867082      3009.2693      290.91608      8010.3593      1.2548166      0.73274464   
    394000  -4791.0356     -4829.6863      38.650639      5031.1331      296.9358       8040.8168      1.2500635      0.65761357   
    394100  -4791.0357     -4828.8112      37.775446      2001.0677      290.21209      8058.0511      1.2473899      0.65761357   
    394200  -4793.0235     -4831.0553      38.031857      1980.3697      292.18197      8064.6011      1.2463768      0.65761357   
    394300  -4793.082      -4831.3318      38.24972       1285.1716      293.85572      8047.2042      1.2490713      0.65761357   
    394400  -4793.0104     -4829.8631      36.852673      4645.0474      283.12283      8006.5579      1.2554124      0.65761357   
    394500  -4792.5326     -4829.4346      36.901982      6179.3327      283.50164      7956.8151      1.2632607      0.65761357   
    394600  -4791.8715     -4829.4554      37.583906      7152.0059      288.74056      7911.4842      1.2704989      0.65761357   
    394700  -4793.3426     -4830.0183      36.675646      8032.1377      281.76281      7880.24        1.2755362      0.65761357   
    394800  -4793.4069     -4831.8863      38.479402      8942.246       295.62027      7864.8206      1.278037       0.65761357   
    394900  -4794.1892     -4831.2438      37.054604      6124.4221      284.67417      7868.7038      1.2774063      0.65761357   
    395000  -4794.145      -4830.0954      35.950427      3576.419       276.19127      7890.8724      1.2738175      0.67938699   
    395100  -4795.7191     -4832.5406      36.821439      6144.1089      282.88287      7924.4653      1.2684177      0.67938699   
    395200  -4795.3531     -4832.5177      37.16462       2535.0114      285.51938      7961.7046      1.2624849      0.67938699   
    395300  -4794.6485     -4830.9311      36.282605      2955.0242      278.74324      7992.0192      1.2576961      0.67938699   
    395400  -4794.2136     -4829.7852      35.571635      1375.9883      273.28118      8009.3817      1.2549697      0.67938699   
    395500  -4794.05       -4831.073       37.022932      2058.3721      284.43085      8011.7808      1.2545939      0.67938699   
    395600  -4796.2342     -4832.5332      36.298952      7125.8073      278.86883      7997.8277      1.2567827      0.67938699   
    395700  -4795.285      -4831.4944      36.209407      4798.7611      278.1809       7970.766       1.2610496      0.67938699   
    395800  -4795.7864     -4831.9699      36.183585      4535.1904      277.98251      7939.5998      1.2659998      0.67938699   
    395900  -4796.4043     -4831.4954      35.091116      5461.1857      269.58956      7913.1555      1.2702305      0.67938699   
    396000  -4795.7797     -4832.8398      37.060179      5705.7703      284.717        7896.1524      1.2729658      0.6687668    
    396100  -4793.9028     -4830.8184      36.915567      6549.3942      283.60601      7891.9223      1.2736481      0.6687668    
    396200  -4793.4378     -4830.6568      37.218991      7064.1824      285.93709      7903.4734      1.2717866      0.6687668    
    396300  -4794.0699     -4831.4006      37.330657      7902.9676      286.79497      7925.743       1.2682132      0.6687668    
    396400  -4794.4485     -4831.1449      36.696367      4101.6446      281.92199      7955.0705      1.2635377      0.6687668    
    396500  -4795.2034     -4830.8726      35.669201      2125.3706      274.03073      7979.7736      1.2596262      0.6687668    
    396600  -4795.1103     -4830.5983      35.488011      3220.2554      272.63873      7996.8929      1.2569296      0.6687668    
    396700  -4794.616      -4831.5433      36.927303      7600.5428      283.69617      8002.6257      1.2560292      0.6687668    
    396800  -4795.6249     -4831.5557      35.930787      7056.8628      276.04038      7995.8641      1.2570914      0.6687668    
    396900  -4794.6586     -4830.2492      35.590514      4464.2613      273.42622      7980.198       1.2595592      0.6687668    
    397000  -4793.3556     -4830.3752      37.019631      5260.1964      284.40549      7961.1353      1.2625752      0.68351268   
    397100  -4793.8923     -4831.895       38.002681      3134.7403      291.95783      7942.7127      1.2655036      0.68351268   
    397200  -4793.2059     -4830.3177      37.111815      6991.9583      285.1137       7923.538       1.2685661      0.68351268   
    397300  -4794.0809     -4830.8092      36.728329      7410.3344      282.16754      7910.9701      1.2705814      0.68351268   
    397400  -4794.1628     -4832.4402      38.27734       6748.4006      294.06791      7908.7975      1.2709305      0.68351268   
    397500  -4793.8352     -4831.0347      37.199455      5786.8618      285.787        7914.9285      1.269946       0.68351268   
    397600  -4795.9138     -4832.1469      36.233144      3038.4681      278.36325      7926.4636      1.2680979      0.68351268   
    397700  -4795.9371     -4832.932       36.994901      2100.8159      284.2155       7938.9874      1.2660975      0.68351268   
    397800  -4796.1572     -4831.6372      35.48          2732.7859      272.57718      7949.4258      1.2644349      0.68351268   
    397900  -4796.8565     -4833.2075      36.350933      3070.6244      279.26818      7955.7787      1.2634253      0.68351268   
    398000  -4796.3138     -4832.3868      36.073039      3459.028       277.13324      7957.7576      1.2631111      0.72402097   
    398100  -4796.445      -4833.1541      36.709132      4645.0341      282.02006      7954.7388      1.2635904      0.72402097   
    398200  -4795.7492     -4831.0246      35.275426      1892.2052      271.00553      7943.9339      1.2653091      0.72402097   
    398300  -4796.2217     -4833.1105      36.888731      3703.8017      283.39984      7934.1904      1.2668629      0.72402097   
    398400  -4794.6922     -4832.5161      37.823927      5688.2884      290.58455      7921.6305      1.2688716      0.72402097   
    398500  -4794.6293     -4832.4208      37.79143       6098.0108      290.33488      7914.1309      1.270074       0.72402097   
    398600  -4794.0387     -4831.5537      37.515027      8652.7213      288.2114       7916.2549      1.2697332      0.72402097   
    398700  -4793.6739     -4830.5143      36.840396      10925.866      283.02851      7928.2699      1.267809       0.72402097   
    398800  -4794.4054     -4831.9212      37.515788      5366.6998      288.21725      7952.9774      1.2638703      0.72402097   
    398900  -4794.4318     -4830.8204      36.388592      2724.5364      279.5575       7985.4917      1.2587242      0.72402097   
    399000  -4793.8942     -4831.9466      38.052375      6298.2475      292.33961      8009.9267      1.2548844      0.79116114   
    399100  -4794.1611     -4830.9032      36.742162      5964.8516      282.27382      8023.8094      1.2527132      0.79116114   
    399200  -4793.5464     -4830.5606      37.014214      2724.2161      284.36388      8024.7463      1.2525669      0.79116114   
    399300  -4795.3043     -4830.8841      35.579736      4115.876       273.34341      8011.6796      1.2546098      0.79116114   
    399400  -4794.9464     -4831.6817      36.735297      4948.7701      282.22108      7987.1438      1.2584638      0.79116114   
    399500  -4794.2393     -4832.3272      38.087859      6203.0226      292.61221      7953.0561      1.2638578      0.79116114   
    399600  -4795.628      -4832.1533      36.525356      6586.4699      280.60819      7918.1976      1.2694217      0.79116114   
    399700  -4795.3971     -4830.9111      35.513953      5558.7308      272.83803      7888.5258      1.2741965      0.79116114   
    399800  -4793.2037     -4831.7581      38.554368      8301.743       296.19619      7872.2069      1.2768378      0.79116114   
    399900  -4792.9104     -4829.6756      36.765236      3956.3998      282.45108      7876.2448      1.2761833      0.79116114   
    400000  -4794.0638     -4830.4797      36.415945      4628.0595      279.76764      7900.9502      1.2721928      0.66260323   
    400100  -4793.9262     -4830.8679      36.941721      1186.2151      283.80694      7939.3562      1.2660386      0.66260323   
    400200  -4793.8092     -4832.2231      38.413889      1563.0867      295.11696      7984.9555      1.2588087      0.66260323   
    400300  -4794.7572     -4831.0129      36.255689      336.57239      278.53646      8021.8519      1.2530189      0.66260323   
    400340  -4793.9834     -4830.8563      36.872944      560.50877      283.27856      8032.1042      1.2514195      0.66260323   
Loop time of 2204.73 on 28 procs for 200000 steps with 1008 atoms

Performance: 3.919 ns/day, 6.124 hours/ns, 90.714 timesteps/s, 91.440 katom-step/s
99.5% CPU use with 28 MPI tasks x 1 OpenMP threads

MPI task timing breakdown:
Section |  min time  |  avg time  |  max time  |%varavg| %total
---------------------------------------------------------------
Pair    | 1809.2     | 1888.3     | 2022.3     | 122.6 | 85.65
Neigh   | 3.4239     | 3.5862     | 3.8263     |   4.7 |  0.16
Comm    | 146.09     | 286.77     | 371.55     | 338.1 | 13.01
Output  | 0.12438    | 1.2634     | 2.3457     |  94.7 |  0.06
Modify  | 14.818     | 23.647     | 39.392     | 168.0 |  1.07
Other   |            | 1.124      |            |       |  0.05

Nlocal:             36 ave          41 max          32 min
Histogram: 1 4 2 4 7 3 3 2 1 1
Nghost:        1018.46 ave        1041 max        1001 min
Histogram: 2 3 5 2 4 3 4 2 2 1
Neighs:              0 ave           0 max           0 min
Histogram: 28 0 0 0 0 0 0 0 0 0
FullNghs:      5235.86 ave        6014 max        4646 min
Histogram: 4 1 4 3 6 3 2 3 1 1

Total # of neighbors = 146604
Ave neighs/atom = 145.44048
Neighbor list builds = 19949
Dangerous builds = 19694

unfix		3
unfix		4
Total wall time: 1:13:16
