LAMMPS (27 Jun 2024)
KOKKOS mode with Kokkos version 4.3.1 is enabled (src/KOKKOS/kokkos.cpp:72)
  will use up to 1 GPU(s) per node
WARNING: When using a single thread, the Kokkos Serial backend (i.e. Makefile.kokkos_mpi_only) gives better performance than the OpenMP backend (src/KOKKOS/kokkos.cpp:202)
  using 1 OpenMP thread(s) per MPI task
package kokkos
package kokkos newton on neigh half

units		metal						## E in [eV], t in [ps], P in [10000 Pa], l in [A]
atom_style	atomic						## mass x y z vx vy vz

neighbor	0.5 bin						## neighbor list, skin = 0.5 Angstrom
neigh_modify	every 2 delay 10 check yes			## update of neighbor list

############################## main variables
variable        seed equal 86327

variable	temperature equal 455
variable	tempDamp equal 0.1

variable        pressure equal 30000
variable        pressureDamp equal 1.0 				# This is 1 ps

##############################

read_data water.dat
Reading data file ...
  orthogonal box = (0 0 0) to (19.665067 19.665067 19.640133)
  1 by 1 by 1 MPI processor grid
  reading atoms ...
  1296 atoms
  read_data CPU = 0.010 seconds

mass		1 1.008    # H
mass		2 15.9994  # O


pair_style	pace/extrapolation
ACE/AL version: 2023.11.25
pair_coeff	* * /pc2/users/a/acepdw01/work/phase_diagram/pot_dir/interim_potential_ladder_step_1.yaml /pc2/users/a/acepdw01/work/phase_diagram/pot_dir/interim_potential_ladder_step_1.asi H O
Loading /pc2/users/a/acepdw01/work/phase_diagram/pot_dir/interim_potential_ladder_step_1.yaml
Total number of basis functions
	H: 23 (r=1) 664 (r>1)
	O: 23 (r=1) 664 (r>1)
Mapping LAMMPS atom type #1(H) -> ACE species type #0
Mapping LAMMPS atom type #2(O) -> ACE species type #1
Loading ASI /pc2/users/a/acepdw01/work/phase_diagram/pot_dir/interim_potential_ladder_step_1.asi
LINEAR ASI is loaded

fix pace_gamma all pair 1000 pace/extrapolation gamma 1
compute max_pace_gamma all reduce max f_pace_gamma
variable dump_skip equal "c_max_pace_gamma < 10"

dump pace_dump all custom 1000 extrapolative_structures.dump id type x y z f_pace_gamma
dump_modify pace_dump skip v_dump_skip
dump_modify pace_dump element H O

variable max_pace_gamma equal c_max_pace_gamma

timestep	0.0005						## timestep = 0.0005*ps = 0.5 fs

thermo		100
thermo_style custom step etotal pe ke press temp vol density c_max_pace_gamma


min_style cg
minimize 0.0 5.0e-4 10000 100000

CITE-CITE-CITE-CITE-CITE-CITE-CITE-CITE-CITE-CITE-CITE-CITE-CITE

Your simulation uses code contributions which should be cited:

- Type Label Framework: https://doi.org/10.1021/acs.jpcb.3c08419

@Article{Gissinger24,
 author = {Jacob R. Gissinger, Ilia Nikiforov, Yaser Afshar, Brendon Waters, Moon-ki Choi, Daniel S. Karls, Alexander Stukowski, Wonpil Im, Hendrik Heinz, Axel Kohlmeyer, and Ellad B. Tadmor},
 title = {Type Label Framework for Bonded Force Fields in LAMMPS},
 journal = {J. Phys. Chem. B},
 year =    2024,
 volume =  128,
 number =  13,
 pages =   {3282–-3297}
}

CITE-CITE-CITE-CITE-CITE-CITE-CITE-CITE-CITE-CITE-CITE-CITE-CITE

Switching to 'neigh_modify every 1 delay 0 check yes' setting during minimization
Neighbor list info ...
  update: every = 1 steps, delay = 0 steps, check = yes
  max neighbors/atom: 2000, page size: 100000
  master list distance cutoff = 6.5
  ghost atom cutoff = 6.5
  binsize = 6.5, bins = 4 4 4
  1 neighbor lists, perpetual/occasional/extra = 1 0 0
  (1) pair pace/extrapolation/kk, perpetual
      attributes: full, newton on, kokkos_device
      pair build: full/bin/kk/device
      stencil: full/bin/3d
      bin: kk/device
WARNING: Fix with atom-based arrays not compatible with sending data in Kokkos communication, switching to classic exchange/border communication (src/KOKKOS/comm_kokkos.cpp:754)
WARNING: Fix with atom-based arrays not compatible with Kokkos sorting on device, switching to classic host sorting (src/KOKKOS/atom_kokkos.cpp:216)
Per MPI rank memory allocation (min/avg/max) = 1123 | 1123 | 1123 Mbytes
   Step         TotEng         PotEng         KinEng         Press           Temp          Volume        Density     c_max_pace_gamma
         0  -6250.4972     -6250.4972      0              21939.986      0              7595.1311      1.7015372      0.62320149   
        33  -6250.6452     -6250.6452      0              22350.057      0              7595.1311      1.7015372      0.62320149   
Loop time of 0.243958 on 1 procs for 33 steps with 1296 atoms

99.7% CPU use with 1 MPI tasks x 1 OpenMP threads

Minimization stats:
  Stopping criterion = force tolerance
  Energy initial, next-to-last, final = 
     -6250.49717465846  -6250.64523648355  -6250.64523648874
  Force two-norm initial, final = 0.82052426 0.0003006328
  Force max component initial, final = 0.040662504 1.1270972e-05
  Final line search alpha, max atom move = 1 1.1270972e-05
  Iterations, force evaluations = 33 66

MPI task timing breakdown:
Section |  min time  |  avg time  |  max time  |%varavg| %total
---------------------------------------------------------------
Pair    | 0.21848    | 0.21848    | 0.21848    |   0.0 | 89.56
Neigh   | 0          | 0          | 0          |   0.0 |  0.00
Comm    | 0.0017426  | 0.0017426  | 0.0017426  |   0.0 |  0.71
Output  | 0          | 0          | 0          |   0.0 |  0.00
Modify  | 0.013938   | 0.013938   | 0.013938   |   0.0 |  5.71
Other   |            | 0.0098     |            |       |  4.02

Nlocal:           1296 ave        1296 max        1296 min
Histogram: 1 0 0 0 0 0 0 0 0 0
Nghost:           4514 ave        4514 max        4514 min
Histogram: 1 0 0 0 0 0 0 0 0 0
Neighs:              0 ave           0 max           0 min
Histogram: 1 0 0 0 0 0 0 0 0 0
FullNghs:       251424 ave      251424 max      251424 min
Histogram: 1 0 0 0 0 0 0 0 0 0

Total # of neighbors = 251424
Ave neighs/atom = 194
Neighbor list builds = 0
Dangerous builds = 0

################## equilibration of main calculation

fix             3 all nph aniso ${pressure} ${pressure} ${pressureDamp}
fix             3 all nph aniso 30000 ${pressure} ${pressureDamp}
fix             3 all nph aniso 30000 30000 ${pressureDamp}
fix             3 all nph aniso 30000 30000 1
fix             4 all temp/csvr ${temperature} ${temperature} ${tempDamp} ${seed}
fix             4 all temp/csvr 455 ${temperature} ${tempDamp} ${seed}
fix             4 all temp/csvr 455 455 ${tempDamp} ${seed}
fix             4 all temp/csvr 455 455 0.1 ${seed}
fix             4 all temp/csvr 455 455 0.1 86327
velocity 	all create ${temperature} ${seed} dist gaussian
velocity 	all create 455 ${seed} dist gaussian
velocity 	all create 455 86327 dist gaussian

run 20000
WARNING: Fix with atom-based arrays not compatible with Kokkos sorting on device, switching to classic host sorting (src/KOKKOS/atom_kokkos.cpp:216)
Per MPI rank memory allocation (min/avg/max) = 1123 | 1123 | 1123 Mbytes
   Step         TotEng         PotEng         KinEng         Press           Temp          Volume        Density     c_max_pace_gamma
        33  -6174.4819     -6250.6452      76.163309      33061.047      455            7595.1311      1.7015372      0.62320149   
       100  -6163.9195     -6194.2361      30.316595      40038.06       181.1115       7600.8266      1.7002622      0.62320149   
       200  -6149.7151     -6198.5617      48.84657       41216.21       291.80966      7659.2273      1.6872979      0.62320149   
       300  -6139.6984     -6196.8861      57.18769       38456.596      341.63956      7768.4601      1.6635727      0.62320149   
       400  -6132.6266     -6189.2746      56.647929      38091.496      338.41502      7904.7957      1.6348807      0.62320149   
       500  -6128.0408     -6190.261       62.220205      27001.099      371.70382      8036.6225      1.6080633      0.62320149   
       600  -6123.7499     -6186.6149      62.865024      28985.207      375.55598      8134.6036      1.5886942      0.62320149   
       700  -6118.2153     -6185.4314      67.216093      27792.918      401.54929      8192.8768      1.5773944      0.62320149   
       800  -6115.9364     -6183.4903      67.55398       26460.848      403.56782      8218.7865      1.5724217      0.62320149   
       900  -6112.5947     -6181.8709      69.276212      20846.494      413.85645      8220.1331      1.5721641      0.62320149   
      1000  -6107.2557     -6177.5608      70.305161      26683.213      420.00339      8201.4552      1.5757445      0.84567637   
      1100  -6105.4966     -6179.4361      73.939472      30091.898      441.71478      8173.9405      1.5810487      0.84567637   
      1200  -6102.6549     -6177.5426      74.887755      35733.812      447.37983      8146.2268      1.5864275      0.84567637   
      1300  -6101.741      -6176.6862      74.945182      36443.74       447.7229       8127.5808      1.590067       0.84567637   
      1400  -6103.4935     -6178.3986      74.905063      34935.17       447.48323      8123.6812      1.5908303      0.84567637   
      1500  -6101.5125     -6174.7457      73.233139      31773.707      437.49515      8129.5839      1.5896752      0.84567637   
      1600  -6099.8025     -6176.8644      77.061875      30053.463      460.36804      8152.1782      1.5852693      0.84567637   
      1700  -6097.7243     -6175.1802      77.455835      33536.663      462.72156      8182.8357      1.57933        0.84567637   
      1800  -6098.7662     -6175.0709      76.304716      35104.488      455.84477      8219.785       1.5722306      0.84567637   
      1900  -6097.831      -6174.0008      76.169781      30262.823      455.03866      8260.4012      1.5645         0.84567637   
      2000  -6098.7078     -6175.2992      76.591381      31441.643      457.5573       8296.0293      1.5577811      0.88894452   
      2100  -6098.5666     -6173.9589      75.392309      30433.601      450.39404      8317.6041      1.5537405      0.88894452   
      2200  -6099.146      -6175.0773      75.931305      25390.491      453.614        8327.1147      1.5519659      0.88894452   
      2300  -6098.3819     -6174.3367      75.954768      24466.989      453.75418      8324.1253      1.5525232      0.88894452   
      2400  -6098.1488     -6172.0889      73.94009       28555.278      441.71848      8306.0461      1.5559025      0.88894452   
      2500  -6096.6215     -6173.9755      77.354035      33008.851      462.1134       8278.6116      1.5610586      0.88894452   
      2600  -6094.7888     -6171.2302      76.441408      33495.154      456.66137      8249.2732      1.5666105      0.88894452   
      2700  -6094.4806     -6174.354       79.873491      30362.766      477.16465      8227.1312      1.5708268      0.88894452   
      2800  -6095.058      -6175.9016      80.843559      33104.882      482.95984      8212.4267      1.5736394      0.88894452   
      2900  -6094.3103     -6172.7999      78.489616      35521.981      468.89737      8209.3856      1.5742223      0.88894452   
      3000  -6097.118      -6173.5954      76.477397      35737.245      456.87637      8219.1543      1.5723513      0.92773051   
      3100  -6095.2995     -6173.4026      78.103122      35083.247      466.58845      8239.9505      1.568383       0.92773051   
      3200  -6095.4446     -6174.4454      79.000821      30300.446      471.95131      8268.4931      1.5629689      0.92773051   
      3300  -6097.9011     -6173.1171      75.215968      30635.621      449.34058      8299.469       1.5571355      0.92773051   
      3400  -6099.0992     -6175.8297      76.730523      28675.179      458.38854      8327.9206      1.5518157      0.92773051   
      3500  -6098.9796     -6173.2087      74.229056      30370.367      443.44476      8346.5665      1.548349       0.92773051   
      3600  -6098.4333     -6175.3505      76.917238      23988.061      459.50398      8351.1628      1.5474968      0.92773051   
      3700  -6099.5789     -6173.0661      73.487258      23341.886      439.01326      8340.166       1.5495373      0.92773051   
      3800  -6097.7125     -6174.7119      76.999337      31327.08       459.99444      8316.4531      1.5539555      0.92773051   
      3900  -6098.685      -6174.1093      75.424334      33942.694      450.58536      8286.1917      1.5596306      0.92773051   
      4000  -6099.3824     -6174.6598      75.277417      35679.457      449.70768      8255.3737      1.5654528      0.89392537   
      4100  -6100.072      -6175.4894      75.417455      35253.713      450.54426      8227.4368      1.5707684      0.89392537   
      4200  -6101.7202     -6178.4228      76.702569      33259.665      458.22154      8207.078       1.5746649      0.89392537   
      4300  -6102.8396     -6177.6336      74.79397       33198.316      446.81956      8195.1919      1.5769488      0.89392537   
      4400  -6099.413      -6175.9654      76.552422      33991.066      457.32456      8195.1001      1.5769664      0.89392537   
      4500  -6097.8036     -6171.8319      74.02834       33241.098      442.24569      8211.0142      1.5739101      0.89392537   
      4600  -6098.9898     -6172.2816      73.291747      27983.291      437.84527      8243.6567      1.5676778      0.89392537   
      4700  -6100.5328     -6175.3154      74.782587      27705.624      446.75156      8283.5939      1.5601197      0.89392537   
      4800  -6100.8256     -6173.9501      73.124507      27549.462      436.84618      8322.636       1.552801       0.89392537   
      4900  -6096.6457     -6172.1294      75.483637      25492.402      450.93964      8357.8451      1.5462596      0.89392537   
      5000  -6096.0099     -6174.1577      78.147809      23329.086      466.85541      8385.5664      1.5411479      0.92096566   
      5100  -6097.608      -6175.0359      77.427916      28028.307      462.55477      8396.8092      1.5390844      0.92096566   
      5200  -6096.399      -6172.3213      75.922393      23459.597      453.56077      8389.4023      1.5404432      0.92096566   
      5300  -6095.6383     -6173.9761      78.337819      25130.79       467.99053      8368.974       1.5442034      0.92096566   
      5400  -6094.0101     -6171.4485      77.4384        27628.416      462.6174       8337.0002      1.5501256      0.92096566   
      5500  -6090.5133     -6170.6599      80.146554      30828.171      478.79593      8299.7114      1.55709        0.92096566   
      5600  -6088.5494     -6170.0341      81.484774      34406.976      486.79046      8270.2601      1.562635       0.92096566   
      5700  -6093.9405     -6171.7032      77.762741      35094.383      464.55502      8253.5138      1.5658056      0.92096566   
      5800  -6090.8507     -6170.0459      79.195134      33788.512      473.11214      8251.5991      1.5661689      0.92096566   
      5900  -6094.612      -6172.0741      77.462072      31868.31       462.75881      8269.6358      1.562753       0.92096566   
      6000  -6095.3767     -6172.2933      76.916585      28050.916      459.50007      8302.621       1.5565444      0.83740548   
      6100  -6097.1076     -6171.6529      74.545349      26478.333      445.3343       8340.2333      1.5495248      0.83740548   
      6200  -6097.775      -6171.5883      73.813312      27887.137      440.96111      8374.641       1.5431584      0.83740548   
      6300  -6099.2615     -6174.402       75.140503      27243.707      448.88975      8398.9718      1.5386881      0.83740548   
      6400  -6097.3011     -6172.1902      74.889042      26830.401      447.38752      8407.2031      1.5371816      0.83740548   
      6500  -6098.6209     -6175.3653      76.74439       28208.516      458.47138      8399.0199      1.5386793      0.83740548   
      6600  -6099.9961     -6173.8858      73.88974       26324.211      441.41769      8373.2357      1.5434174      0.83740548   
      6700  -6098.9025     -6173.2462      74.343768      31501.06       444.13005      8331.0044      1.5512413      0.83740548   
      6800  -6095.8543     -6174.0297      78.175409      31304.603      467.02029      8281.0416      1.5606005      0.83740548   
      6900  -6095.9075     -6169.0164      73.108873      31215.556      436.75278      8235.8793      1.5691582      0.83740548   
      7000  -6093.1974     -6171.4712      78.27375       35542.47       467.60778      8206.0272      1.5748666      0.79087872   
      7100  -6091.5817     -6169.3038      77.722121      35612.013      464.31235      8197.0031      1.5766003      0.79087872   
      7200  -6092.9575     -6171.113       78.155545      33329.233      466.90163      8216.9857      1.5727663      0.79087872   
      7300  -6097.0533     -6175.1803      78.127032      31586.912      466.73129      8260.5393      1.5644739      0.79087872   
      7400  -6098.2036     -6173.6691      75.465514      31404.706      450.83137      8312.6879      1.5546593      0.79087872   
      7500  -6098.2824     -6175.4181      77.135696      28079.313      460.80905      8362.7976      1.5453439      0.79087872   
      7600  -6098.4016     -6174.7641      76.362482      27741.068      456.18986      8398.0252      1.5388615      0.79087872   
      7700  -6098.0563     -6173.6927      75.636404      26983.846      451.85227      8413.1954      1.5360867      0.79087872   
      7800  -6099.2035     -6173.3287      74.125195      25681.436      442.8243       8407.3521      1.5371543      0.79087872   
      7900  -6098.2079     -6173.3115      75.10364       27222.946      448.66953      8382.3992      1.5417302      0.79087872   
      8000  -6097.6831     -6174.7626      77.07949       28637.559      460.47327      8344.0762      1.5488111      0.78176723   
      8100  -6096.8594     -6171.1652      74.305779      29768.11       443.9031       8298.7583      1.5572689      0.78176723   
      8200  -6095.1259     -6172.6763      77.550422      28164.463      463.28662      8261.0967      1.5643683      0.78176723   
      8300  -6094.9179     -6172.6837      77.765829      29814.866      464.57346      8236.375       1.5690638      0.78176723   
      8400  -6097.0906     -6175.3656      78.275051      29775.729      467.61556      8228.3246      1.5705989      0.78176723   
      8500  -6097.1127     -6174.1513      77.038572      32181.284      460.22883      8232.8641      1.5697329      0.78176723   
      8600  -6097.7947     -6176.1705      78.375753      31447.755      468.21715      8249.3323      1.5665993      0.78176723   
      8700  -6097.0483     -6172.4101      75.36183       31075.596      450.21196      8273.1774      1.562084       0.78176723   
      8800  -6095.9522     -6170.2443      74.292065      30237.364      443.82118      8300.6401      1.5569158      0.78176723   
      8900  -6096.3387     -6173.6065      77.267708      31842.036      461.59769      8329.3507      1.5515493      0.78176723   
      9000  -6097.3801     -6172.5849      75.204782      28790.039      449.27375      8356.2133      1.5465615      0.91919677   
      9100  -6098.6201     -6174.5401      75.919929      27111.557      453.54605      8375.8433      1.5429369      0.91919677   
      9200  -6095.1065     -6172.1234      77.016889      26508.85       460.09929      8381.0448      1.5419793      0.91919677   
      9300  -6094.8335     -6173.278       78.444493      30132.036      468.62781      8372.8305      1.5434921      0.91919677   
      9400  -6094.2778     -6170.1588      75.88103       30312.572      453.31367      8357.0164      1.5464129      0.91919677   
      9500  -6097.8725     -6172.9857      75.113186      25634.333      448.72656      8337.848       1.549968       0.91919677   
      9600  -6095.3734     -6171.1736      75.800175      32113.719      452.83064      8317.909       1.5536835      0.91919677   
      9700  -6095.5453     -6173.0858      77.540468      27338.271      463.22716      8302.8033      1.5565102      0.91919677   
      9800  -6098.9135     -6176.6757      77.762178      29131.836      464.55165      8292.0994      1.5585194      0.91919677   
      9900  -6095.9897     -6174.0821      78.092468      34648.567      466.52481      8282.2252      1.5603775      0.91919677   
     10000  -6096.9377     -6173.5848      76.647075      32952.56       457.89002      8276.9544      1.5613712      0.78399628   
     10100  -6097.9977     -6173.4589      75.46122       28974.35       450.80572      8279.3877      1.5609123      0.78399628   
     10200  -6098.6842     -6174.0548      75.370514      28179.262      450.26384      8287.7943      1.559329       0.78399628   
     10300  -6097.8678     -6173.0519      75.1841        31413.805      449.1502       8295.8343      1.5578177      0.78399628   
     10400  -6098.7713     -6173.3259      74.554622      33070.115      445.38969      8304.5044      1.5561913      0.78399628   
     10500  -6097.3204     -6173.3117      75.991333      31266.552      453.97262      8314.0209      1.5544101      0.78399628   
     10600  -6101.5119     -6175.8067      74.294789      28914.044      443.83745      8324.1995      1.5525094      0.78399628   
     10700  -6100.1901     -6174.2286      74.03848       30761.793      442.30626      8326.5647      1.5520684      0.78399628   
     10800  -6099.2209     -6172.8379      73.617045      30849.907      439.78861      8320.2775      1.5532412      0.78399628   
     10900  -6099.1428     -6172.4928      73.350054      24587.796      438.1936       8312.0875      1.5547716      0.78399628   
     11000  -6097.5131     -6172.4042      74.891138      29653.517      447.40005      8301.9633      1.5566677      0.77368493   
     11100  -6099.6126     -6174.9058      75.293144      30883.087      449.80163      8292.6288      1.5584199      0.77368493   
     11200  -6100.1294     -6174.6426      74.513197      27829.229      445.14222      8284.5642      1.559937       0.77368493   
     11300  -6098.358      -6175.2205      76.862502      27829.115      459.17698      8279.7505      1.5608439      0.77368493   
     11400  -6097.7134     -6171.9389      74.225463      28319.366      443.4233       8276.6814      1.5614227      0.77368493   
     11500  -6098.7536     -6171.1718      72.418277      29965.083      432.62716      8275.435       1.5616578      0.77368493   
     11600  -6098.5905     -6172.4677      73.877218      34415.661      441.34288      8274.8685      1.5617647      0.77368493   
     11700  -6098.0175     -6174.8061      76.788616      34130.069      458.73559      8277.3631      1.5612941      0.77368493   
     11800  -6097.7679     -6175.5758      77.807857      29990.721      464.82454      8280.7192      1.5606613      0.77368493   
     11900  -6099.2417     -6173.7451      74.503325      26883.72       445.08325      8284.4593      1.5599567      0.77368493   
     12000  -6098.4313     -6174.8266      76.395334      27173.414      456.38612      8285.1782      1.5598214      0.82084419   
     12100  -6099.361      -6174.8935      75.532463      31858.105      451.23132      8283.7013      1.5600995      0.82084419   
     12200  -6098.9245     -6174.2986      75.37412       29410.734      450.28538      8281.0212      1.5606044      0.82084419   
     12300  -6100.9592     -6176.6788      75.719558      28024.043      452.34903      8277.4848      1.5612711      0.82084419   
     12400  -6098.7753     -6173.5884      74.813046      31057.198      446.93352      8271.2596      1.5624462      0.82084419   
     12500  -6097.3796     -6174.3669      76.987291      26895.518      459.92247      8266.8971      1.5632707      0.82084419   
     12600  -6099.1178     -6173.9749      74.857037      27887.401      447.19632      8268.1436      1.563035       0.82084419   
     12700  -6099.7385     -6175.1941      75.455625      27843.235      450.77229      8275.9318      1.5615641      0.82084419   
     12800  -6099.1091     -6174.3074      75.198268      32627.124      449.23484      8286.318       1.5596068      0.82084419   
     12900  -6097.8439     -6173.5826      75.738692      26365.907      452.46334      8300.2485      1.5569893      0.82084419   
     13000  -6100.3579     -6173.1369      72.778969      29345.123      434.78194      8313.3859      1.5545288      0.89369678   
     13100  -6100.9396     -6178.4011      77.46148       27628.213      462.75528      8324.8158      1.5523944      0.89369678   
     13200  -6101.4633     -6175.7883      74.325034      28265.932      444.01813      8327.7694      1.5518439      0.89369678   
     13300  -6101.3749     -6175.4431      74.068278      29718.765      442.48427      8321.7437      1.5529676      0.89369678   
     13400  -6101.2876     -6175.317       74.029334      29102.315      442.25162      8310.0615      1.5551507      0.89369678   
     13500  -6101.5287     -6176.1073      74.578584      28843.88       445.53285      8297.1417      1.5575723      0.89369678   
     13600  -6099.9645     -6174.6753      74.710731      27991.952      446.32229      8280.4132      1.560719       0.89369678   
     13700  -6100.1587     -6176.4575      76.298761      29189.928      455.80919      8262.1902      1.5641613      0.89369678   
     13800  -6100.364      -6174.4788      74.11475       29613.068      442.7619       8247.0129      1.5670399      0.89369678   
     13900  -6098.2968     -6174.9424      76.645534      28021.881      457.88082      8238.3246      1.5686925      0.89369678   
     14000  -6097.2301     -6173.8358      76.605705      29180.632      457.64288      8240.8985      1.5682025      0.88610547   
     14100  -6095.148      -6174.7142      79.566267      29996.097      475.32929      8254.3584      1.5656454      0.88610547   
     14200  -6099.1007     -6175.9922      76.891492      22198.858      459.35017      8274.7786      1.5617817      0.88610547   
     14300  -6098.9313     -6173.2459      74.314542      31365.326      443.95546      8295.0669      1.5579619      0.88610547   
     14400  -6101.2781     -6176.7037      75.425551      27900.272      450.59263      8315.1857      1.5541923      0.88610547   
     14500  -6099.2211     -6172.3197      73.098572      30146.994      436.69125      8326.9614      1.5519944      0.88610547   
     14600  -6098          -6174.7865      76.786534      28075.218      458.72315      8328.0212      1.551797       0.88610547   
     14700  -6100.3439     -6176.0179      75.673981      27550.576      452.07675      8318.2338      1.5536228      0.88610547   
     14800  -6096.2713     -6171.0778      74.806481      26676.075      446.8943       8302.0828      1.5566453      0.88610547   
     14900  -6096.8079     -6171.9577      75.149834      28826.968      448.9455       8283.3728      1.5601613      0.88610547   
     15000  -6096.1225     -6173.5061      77.383593      27612.338      462.28999      8268.0997      1.5630433      0.87986032   
     15100  -6094.8029     -6172.2178      77.414967      31709.821      462.47741      8257.3714      1.5650741      0.87986032   
     15200  -6094.8971     -6172.9943      78.097163      33298.489      466.55285      8255.1031      1.5655041      0.87986032   
     15300  -6094.7097     -6169.9182      75.208576      32784.567      449.29642      8261.054       1.5643764      0.87986032   
     15400  -6095.3573     -6174.802       79.444698      34182.418      474.60303      8274.8411      1.5617699      0.87986032   
     15500  -6093.4228     -6170.8023      77.379569      31312.69       462.26594      8292.0589      1.558527       0.87986032   
     15600  -6094.129      -6172.1941      78.065073      32314.214      466.36115      8314.1854      1.5543793      0.87986032   
     15700  -6096.0701     -6173.2309      77.160858      27000.259      460.95937      8337.3468      1.5500612      0.87986032   
     15800  -6094.3025     -6172.6363      78.333786      28327.508      467.96644      8355.3203      1.5467268      0.87986032   
     15900  -6095.2609     -6173.9338      78.672919      30193.33       469.99242      8364.1562      1.5450928      0.87986032   
     16000  -6093.6158     -6170.8402      77.224366      32444.998      461.33876      8360.9818      1.5456795      0.87831972   
     16100  -6095.0052     -6176.3317      81.326445      26259.763      485.8446       8352.4507      1.5472582      0.87831972   
     16200  -6093.4073     -6172.2879      78.880634      30455.833      471.23331      8336.2457      1.550266       0.87831972   
     16300  -6092.1011     -6170.4023      78.301265      33611.596      467.77216      8320.6975      1.5531628      0.87831972   
     16400  -6094.9939     -6172.2463      77.25241       25196.658      461.5063       8307.3381      1.5556605      0.87831972   
     16500  -6097.7166     -6173.9862      76.269543      28062.467      455.63464      8294.6001      1.5580495      0.87831972   
     16600  -6096.8611     -6174.6515      77.790433      27507.951      464.72045      8283.0325      1.5602254      0.87831972   
     16700  -6099.1403     -6173.9626      74.822343      28102.521      446.98906      8272.0375      1.5622992      0.87831972   
     16800  -6095.9605     -6173.9718      78.011294      32033.595      466.03987      8263.1607      1.5639776      0.87831972   
     16900  -6095.0911     -6171.0333      75.9422        38226.925      453.67909      8258.6082      1.5648397      0.87831972   
     17000  -6095.2687     -6169.3709      74.102238      33167.039      442.68715      8261.6137      1.5642704      0.78127943   
     17100  -6095.9017     -6171.3484      75.446688      31276.837      450.7189       8273.0134      1.5621149      0.78127943   
     17200  -6096.5185     -6175.4629      78.944341      30135.711      471.6139       8288.174       1.5592576      0.78127943   
     17300  -6097.0098     -6174.0729      77.063162      30445.404      460.37573      8302.7468      1.5565208      0.78127943   
     17400  -6097.9657     -6174.942       76.976357      28086.131      459.85715      8315.3052      1.55417        0.78127943   
     17500  -6096.1719     -6172.3535      76.181679      33599.782      455.10974      8323.9939      1.5525477      0.78127943   
     17600  -6097.6781     -6175.4344      77.756283      28327.91       464.51643      8329.4007      1.55154        0.78127943   
     17700  -6097.3212     -6171.3751      74.053844      28565.299      442.39805      8325.7426      1.5522216      0.78127943   
     17800  -6097.6338     -6170.3936      72.759751      31940.837      434.66713      8317.7615      1.553711       0.78127943   
     17900  -6098.6893     -6174.7599      76.070629      26506.35       454.44633      8306.0394      1.5559038      0.78127943   
     18000  -6095.4798     -6172.4247      76.944875      29207.051      459.66908      8292.1406      1.5585117      0.83604837   
     18100  -6094.6175     -6173.0616      78.444077      32145.46       468.62532      8281.3977      1.5605334      0.83604837   
     18200  -6097.2585     -6174.7489      77.490491      30831.455      462.9286       8275.1314      1.5617151      0.83604837   
     18300  -6098.1621     -6173.0242      74.862151      30005.258      447.22687      8272.321       1.5622457      0.83604837   
     18400  -6099.5059     -6174.165       74.659149      28930.684      446.01414      8275.5848      1.5616296      0.83604837   
     18500  -6101.2178     -6176.2536      75.03573       32053.124      448.26384      8280.7301      1.5606592      0.83604837   
     18600  -6100.6624     -6177.1459      76.483507      34356.33       456.91287      8281.5724      1.5605005      0.83604837   
     18700  -6099.9147     -6176.2904      76.375693      32552.227      456.26879      8276.5767      1.5614424      0.83604837   
     18800  -6099.0813     -6173.826       74.74464       26711.99       446.52487      8269.7504      1.5627313      0.83604837   
     18900  -6097.2457     -6172.9976      75.751853      28821.839      452.54196      8263.8497      1.5638472      0.83604837   
     19000  -6096.5989     -6172.0252      75.426215      31770.556      450.5966       8260.6097      1.5644605      0.7533951    
     19100  -6094.7849     -6170.6938      75.908946      28793.296      453.48044      8263.7085      1.5638739      0.7533951    
     19200  -6092.9641     -6171.7236      78.759499      27496.088      470.50965      8276.4726      1.5614621      0.7533951    
     19300  -6094.9953     -6170.5995      75.604193      32533.69       451.65984      8294.6631      1.5580377      0.7533951    
     19400  -6095.0661     -6172.9032      77.837076      31502.198      464.99909      8316.325       1.5539794      0.7533951    
     19500  -6095.8348     -6172.4206      76.585855      28616.066      457.52429      8333.5853      1.5507609      0.7533951    
     19600  -6095.8161     -6172.3128      76.496742      27163.46       456.99193      8341.8639      1.5492219      0.7533951    
     19700  -6095.4038     -6173.6882      78.284342      23430.634      467.67106      8341.4579      1.5492973      0.7533951    
     19800  -6097.0739     -6174.0153      76.941379      26090.169      459.64819      8330.8498      1.5512701      0.7533951    
     19900  -6097.7841     -6174.0322      76.248173      29894.892      455.50698      8311.7068      1.5548429      0.7533951    
     20000  -6096.434      -6172.1786      75.74458       26003.349      452.49851      8288.7996      1.5591399      0.87964568   
     20033  -6097.0542     -6173.5744      76.520164      31347.217      457.13185      8280.8755      1.5606318      0.87964568   
Loop time of 86.132 on 1 procs for 20000 steps with 1296 atoms

Performance: 10.031 ns/day, 2.393 hours/ns, 232.202 timesteps/s, 300.933 katom-step/s
99.8% CPU use with 1 MPI tasks x 1 OpenMP threads

MPI task timing breakdown:
Section |  min time  |  avg time  |  max time  |%varavg| %total
---------------------------------------------------------------
Pair    | 65.725     | 65.725     | 65.725     |   0.0 | 76.31
Neigh   | 0.87987    | 0.87987    | 0.87987    |   0.0 |  1.02
Comm    | 0.88688    | 0.88688    | 0.88688    |   0.0 |  1.03
Output  | 0.025722   | 0.025722   | 0.025722   |   0.0 |  0.03
Modify  | 18.162     | 18.162     | 18.162     |   0.0 | 21.09
Other   |            | 0.4525     |            |       |  0.53

Nlocal:           1296 ave        1296 max        1296 min
Histogram: 1 0 0 0 0 0 0 0 0 0
Nghost:           4412 ave        4412 max        4412 min
Histogram: 1 0 0 0 0 0 0 0 0 0
Neighs:              0 ave           0 max           0 min
Histogram: 1 0 0 0 0 0 0 0 0 0
FullNghs:       232328 ave      232328 max      232328 min
Histogram: 1 0 0 0 0 0 0 0 0 0

Total # of neighbors = 232328
Ave neighs/atom = 179.26543
Neighbor list builds = 1999
Dangerous builds = 1998

unfix 3
unfix 4

################## main calculation

dump 		3 all custom 1000 traj.lammpstrj id type element x y z
dump_modify     3 element H O

fix             3 all nph aniso ${pressure} ${pressure} ${pressureDamp}
fix             3 all nph aniso 30000 ${pressure} ${pressureDamp}
fix             3 all nph aniso 30000 30000 ${pressureDamp}
fix             3 all nph aniso 30000 30000 1
fix             4 all temp/csvr ${temperature} ${temperature} ${tempDamp} ${seed}
fix             4 all temp/csvr 455 ${temperature} ${tempDamp} ${seed}
fix             4 all temp/csvr 455 455 ${tempDamp} ${seed}
fix             4 all temp/csvr 455 455 0.1 ${seed}
fix             4 all temp/csvr 455 455 0.1 86327
velocity 	all create ${temperature} ${seed} dist gaussian
velocity 	all create 455 ${seed} dist gaussian
velocity 	all create 455 86327 dist gaussian

run             2000000
WARNING: Fix with atom-based arrays not compatible with Kokkos sorting on device, switching to classic host sorting (src/KOKKOS/atom_kokkos.cpp:216)
Per MPI rank memory allocation (min/avg/max) = 1140 | 1140 | 1140 Mbytes
   Step         TotEng         PotEng         KinEng         Press           Temp          Volume        Density     c_max_pace_gamma
     20033  -6097.4111     -6173.5744      76.163309      31301.187      455            8280.8755      1.5606318      0.87964568   
     20100  -6098.6593     -6171.8709      73.211617      29795.719      437.36658      8281.0352      1.5606017      0.87964568   
     20200  -6098.617      -6171.7445      73.127583      25162.061      436.86456      8279.7412      1.5608456      0.87964568   
     20300  -6097.3632     -6174.4904      77.12715       25584.133      460.75799      8271.5504      1.5623912      0.87964568   
     20400  -6096.3803     -6171.2143      74.833995      26434.014      447.05867      8258.5419      1.5648522      0.87964568   
     20500  -6096.9973     -6172.3782      75.380923      27459.001      450.32603      8249.3841      1.5665894      0.87964568   
     20600  -6097.4537     -6173.816       76.362335      29563.105      456.18898      8245.4448      1.5673379      0.87964568   
     20700  -6096.4364     -6172.6104      76.173986      31044.902      455.06379      8245.1054      1.5674024      0.87964568   
     20800  -6098.2874     -6174.8811      76.593684      30067.625      457.57106      8249.9875      1.5664749      0.87964568   
     20900  -6098.9285     -6173.3264      74.397875      30803.016      444.45329      8259.07        1.5647522      0.87964568   
     21000  -6096.7734     -6173.6332      76.859828      27958.05       459.16101      8270.692       1.5625534      0.84185066   
     21100  -6097.3796     -6174.0363      76.656678      32017.452      457.94739      8283.7675      1.560087       0.84185066   
     21200  -6096.6985     -6172.6116      75.913119      30083.067      453.50536      8298.3378      1.5573478      0.84185066   
     21300  -6097.9669     -6173.3644      75.397419      29433.218      450.42457      8310.9964      1.5549758      0.84185066   
     21400  -6099.899      -6176.3221      76.423108      26860.002      456.55204      8318.8241      1.5535126      0.84185066   
     21500  -6098.6419     -6175.9881      77.346205      26722.182      462.06662      8317.3981      1.5537789      0.84185066   
     21600  -6097.0277     -6173.9091      76.881379      27447.877      459.28975      8309.0601      1.5553381      0.84185066   
     21700  -6094.3895     -6170.7613      76.371811      33030.927      456.24559      8299.6487      1.5571018      0.84185066   
     21800  -6095.6325     -6173.4296      77.797065      29511.598      464.76007      8292.2027      1.5585         0.84185066   
     21900  -6094.6487     -6172.846       78.197257      33217.814      467.15082      8285.1433      1.5598279      0.84185066   
     22000  -6095.0519     -6172.0298      76.977904      32482.085      459.86639      8281.7024      1.560476       0.85818471   
     22100  -6095.9897     -6172.0117      76.022058      28010.561      454.15616      8280.9509      1.5606176      0.85818471   
     22200  -6096.9251     -6170.7734      73.848279      28026.486      441.17         8281.9988      1.5604202      0.85818471   
     22300  -6096.7443     -6176.5044      79.760066      28814.126      476.48704      8286.2578      1.5596181      0.85818471   
     22400  -6097.1409     -6174.1207      76.97978       30874.305      459.8776       8292.3179      1.5584783      0.85818471   
     22500  -6096.7176     -6174.1221      77.404574      27292.327      462.41533      8295.7261      1.5578381      0.85818471   
     22600  -6095.261      -6172.6484      77.387436      30048.202      462.31294      8297.3961      1.5575245      0.85818471   
     22700  -6095.6196     -6172.3089      76.689331      33235.801      458.14246      8299.8421      1.5570655      0.85818471   
     22800  -6096.0792     -6175.6478      79.568555      31798.732      475.34296      8302.6397      1.5565409      0.85818471   
     22900  -6095.0836     -6172.9785      77.8949        33431.757      465.34454      8305.5583      1.5559939      0.85818471   
     23000  -6097.5248     -6175.688       78.163191      31060.835      466.94731      8308.6131      1.5554218      0.82095143   
     23100  -6095.3715     -6171.9497      76.578202      29921.898      457.47857      8307.5288      1.5556248      0.82095143   
     23200  -6094.6832     -6171.9249      77.241756      29910.273      461.44265      8308.4303      1.555456       0.82095143   
     23300  -6096.7962     -6173.3005      76.504224      29014.206      457.03663      8309.5573      1.555245       0.82095143   
     23400  -6097.7059     -6173.2317      75.525759      30454.216      451.19127      8309.8064      1.5551984      0.82095143   
     23500  -6097.7449     -6172.4228      74.677929      31653.621      446.12633      8307.0337      1.5557175      0.82095143   
     23600  -6097.1067     -6172.0354      74.928738      32009.268      447.62467      8302.0912      1.5566437      0.82095143   
     23700  -6098.4938     -6174.6062      76.112331      29890.413      454.69546      8295.9591      1.5577943      0.82095143   
     23800  -6096.9871     -6172.5457      75.558653      29730.487      451.38778      8289.2367      1.5590576      0.82095143   
     23900  -6098.8136     -6175.0178      76.204164      27205.528      455.24407      8287.5572      1.5593736      0.82095143   
     24000  -6100.0387     -6175.1892      75.150515      25352.496      448.94956      8286.9191      1.5594937      0.7521421    
     24100  -6101.1219     -6175.2567      74.134789      26741.195      442.88161      8284.8012      1.5598923      0.7521421    
     24200  -6102.8201     -6176.8231      74.002966      26863.188      442.0941       8280.7086      1.5606633      0.7521421    
     24300  -6103.5345     -6177.3275      73.792976      30860.97       440.83962      8273.0964      1.5620993      0.7521421    
     24400  -6099.9128     -6176.4571      76.544339      31251.312      457.27628      8264.222       1.5637767      0.7521421    
     24500  -6098.1813     -6174.123       75.941654      30370.62       453.67583      8257.908       1.5649724      0.7521421    
     24600  -6098.5773     -6173.7885      75.211182      35119.278      449.31199      8256.4489      1.5652489      0.7521421    
     24700  -6099.4224     -6174.3379      74.915492      30013.712      447.54554      8265.0992      1.5636107      0.7521421    
     24800  -6099.9533     -6176.1805      76.227183      31419.905      455.38158      8278.0778      1.5611593      0.7521421    
     24900  -6095.6831     -6173.3112      77.628124      28232.091      463.75081      8291.023       1.5587217      0.7521421    
     25000  -6095.445      -6174.4385      78.993479      29894.519      471.90745      8308.4225      1.5554575      0.77864306   
     25100  -6097.0262     -6170.6867      73.66042       29984.8        440.04773      8323.8622      1.5525723      0.77864306   
     25200  -6096.7026     -6172.8427      76.140131      28592.248      454.86153      8335.8661      1.5503366      0.77864306   
     25300  -6096.4861     -6172.8026      76.316462      29918.088      455.91494      8343.0901      1.5489942      0.77864306   
     25400  -6095.0587     -6171.752       76.693243      27833.076      458.16583      8347.559       1.5481649      0.77864306   
     25500  -6091.9832     -6169.6852      77.70201       30929.076      464.19221      8348.8589      1.5479239      0.77864306   
     25600  -6090.8395     -6168.4004      77.560915      28063.733      463.3493       8350.9529      1.5475357      0.77864306   
     25700  -6095.6494     -6172.3295      76.680118      26000.181      458.08742      8353.4072      1.547081       0.77864306   
     25800  -6092.7229     -6173.371       80.64805       30239.601      481.79187      8349.5698      1.5477921      0.77864306   
     25900  -6095.688      -6171.3792      75.691248      27398.901      452.17991      8343.231       1.548968       0.77864306   
     26000  -6096.0088     -6174.0398      78.030995      29829.284      466.15756      8332.6785      1.5509296      0.90159045   
     26100  -6096.3849     -6170.7341      74.349208      31929.753      444.16255      8318.6482      1.5535454      0.90159045   
     26200  -6096.3134     -6171.4203      75.106927      28971.252      448.68917      8308.1315      1.5555119      0.90159045   
     26300  -6097.5475     -6171.6907      74.14311       26977.731      442.93132      8299.3147      1.5571645      0.90159045   
     26400  -6095.6833     -6172.8978      77.214431      29406.456      461.27941      8292.5355      1.5584374      0.90159045   
     26500  -6097.7217     -6173.7382      76.016454      30882.099      454.12269      8289.8938      1.5589341      0.90159045   
     26600  -6099.5955     -6174.7069      75.111415      32525.628      448.71598      8292.2331      1.5584943      0.90159045   
     26700  -6099.7723     -6175.8881      76.115801      30626.566      454.71619      8296.0096      1.5577848      0.90159045   
     26800  -6096.5497     -6174.4614      77.911749      30678.729      465.44519      8300.437       1.5569539      0.90159045   
     26900  -6098.1157     -6173.0755      74.959776      30127.86       447.81009      8306.1547      1.5558822      0.90159045   
     27000  -6094.9775     -6169.8354      74.857899      33584.349      447.20147      8312.8617      1.5546268      0.86394924   
     27100  -6093.2128     -6170.1401      76.927295      31620.866      459.56406      8322.919       1.5527482      0.86394924   
     27200  -6094.4764     -6173.4701      78.993713      30108.005      471.90885      8336.0144      1.550309       0.86394924   
     27300  -6097.7556     -6173.7938      76.038233      24681.349      454.2528       8342.2364      1.5491527      0.86394924   
     27400  -6097.3827     -6173.758       76.37525       28388.75       456.26614      8339.6449      1.5496341      0.86394924   
     27500  -6096.4427     -6172.3366      75.893874      28618.299      453.39039      8333.8589      1.55071        0.86394924   
     27600  -6096.4529     -6172.3003      75.847465      30032.223      453.11315      8322.773       1.5527755      0.86394924   
     27700  -6095.8834     -6172.5851      76.701723      31415.102      458.21649      8309.2721      1.5552984      0.86394924   
     27800  -6097.6069     -6173.9795      76.37254       33512.293      456.24994      8296.3017      1.55773        0.86394924   
     27900  -6097.439      -6175.0327      77.593672      34133.848      463.545        8284.9388      1.5598664      0.86394924   
     28000  -6097.4354     -6173.7271      76.291645      36140.605      455.76668      8276.3583      1.5614836      0.82053463   
     28100  -6097.4432     -6171.7215      74.278325      33245.407      443.73909      8275.0402      1.5617323      0.82053463   
     28200  -6096.8807     -6173.3699      76.489191      32443.489      456.94682      8283.0871      1.5602151      0.82053463   
     28300  -6096.722      -6171.0116      74.289624      31794.229      443.80659      8301.1516      1.5568199      0.82053463   
     28400  -6098.7805     -6173.3123      74.531827      30813.249      445.25352      8323.7053      1.5526016      0.82053463   
     28500  -6098.5658     -6174.4832      75.917388      28147.324      453.53087      8346.1638      1.5484237      0.82053463   
     28600  -6098.8655     -6172.7911      73.925594      26484.234      441.63188      8362.5437      1.5453908      0.82053463   
     28700  -6096.986      -6171.1859      74.199916      29280.983      443.27068      8372.6105      1.5435327      0.82053463   
     28800  -6095.6656     -6171.7714      76.105805      27714.445      454.65647      8377.4567      1.5426398      0.82053463   
     28900  -6095.6251     -6173.0173      77.392196      27324.16       462.34138      8374.9061      1.5431096      0.82053463   
     29000  -6096.5062     -6171.432       74.925853      31007.116      447.60743      8365.0764      1.5449229      0.84294956   
     29100  -6097.168      -6173.4784      76.310351      35348.894      455.87843      8348.5886      1.547974       0.84294956   
     29200  -6093.398      -6172.3861      78.988084      32122.935      471.87522      8328.9902      1.5516164      0.84294956   
     29300  -6093.3098     -6170.871       77.56115       30363.972      463.35071      8314.0489      1.5544048      0.84294956   
     29400  -6093.256      -6168.5395      75.283483      31148.231      449.74392      8305.5817      1.5559895      0.84294956   
     29500  -6097.2404     -6172.7898      75.54932       28064.521      451.33203      8307.5208      1.5556263      0.84294956   
     29600  -6095.541      -6174.5198      78.978804      29516.803      471.81978      8316.0339      1.5540338      0.84294956   
     29700  -6096.315      -6171.7739      75.458886      33866.993      450.79177      8329.8047      1.5514647      0.84294956   
     29800  -6099.6409     -6173.5278      73.886917      27094.347      441.40082      8344.8194      1.5486732      0.84294956   
     29900  -6096.5676     -6171.7328      75.165207      25051.673      449.03733      8356.2929      1.5465468      0.84294956   
     30000  -6097.3645     -6174.2465      76.882         24967.918      459.29347      8361.9239      1.5455053      0.7628165    
     30100  -6098.3717     -6172.9413      74.569586      25620.508      445.47909      8363.2903      1.5452528      0.7628165    
     30200  -6098.4807     -6172.0846      73.603871      28524.443      439.7099       8357.2528      1.5463692      0.7628165    
     30300  -6097.366      -6172.1775      74.811517      26887.004      446.92439      8343.4229      1.5489324      0.7628165    
     30400  -6097.6646     -6172.8353      75.170711      27261.449      449.07021      8325.9168      1.5521892      0.7628165    
     30500  -6095.6896     -6172.9507      77.261122      28029.741      461.55834      8305.1062      1.5560786      0.7628165    
     30600  -6100.0593     -6177.1496      77.09028       25611.509      460.53773      8287.1372      1.5594526      0.7628165    
     30700  -6098.1217     -6172.8972      74.775479      32167.67       446.7091       8271.6319      1.5623758      0.7628165    
     30800  -6097.5468     -6173.4942      75.947408      30035.737      453.71021      8264.5282      1.5637188      0.7628165    
     30900  -6098.8953     -6174.6785      75.783255      25111.623      452.72956      8264.8495      1.563658       0.7628165    
     31000  -6097.1566     -6171.2546      74.097987      31533.063      442.66176      8271.17        1.5624631      0.83457109   
     31100  -6099.4876     -6172.4963      73.008676      30310.381      436.15421      8284.9833      1.559858       0.83457109   
     31200  -6100.5849     -6177.6322      77.047267      27740.233      460.28077      8299.096       1.5572055      0.83457109   
     31300  -6099.0036     -6175.0556      76.052059      32474.837      454.33539      8309.6732      1.5552234      0.83457109   
     31400  -6098.2305     -6175.9641      77.733654      28734.13       464.38125      8318.6883      1.5535379      0.83457109   
     31500  -6099.7842     -6174.5894      74.805198      35158.014      446.88664      8321.3498      1.5530411      0.83457109   
     31600  -6099.4995     -6175.525       76.025523      31177.041      454.17687      8313.7533      1.5544601      0.83457109   
     31700  -6098.5811     -6175.3598      76.778697      34968.405      458.67633      8298.9984      1.5572238      0.83457109   
     31800  -6097.6491     -6174.1382      76.489018      31280.373      456.94579      8281.444       1.5605247      0.83457109   
     31900  -6099.0955     -6174.7649      75.669355      31499.441      452.04912      8265.2471      1.5635828      0.83457109   
     32000  -6097.8671     -6171.0016      73.134544      31870.47       436.90614      8251.6424      1.5661607      0.86856758   
     32100  -6099.1028     -6175.1966      76.093754      27303.071      454.58448      8243.25        1.5677552      0.86856758   
     32200  -6098.707      -6172.2106      73.503583      30814.574      439.11078      8237.5433      1.5688413      0.86856758   
     32300  -6101.16       -6177.3774      76.21746       32599.188      455.3235       8239.2055      1.5685248      0.86856758   
     32400  -6098.6136     -6173.8949      75.281273      32699.893      449.73072      8244.4523      1.5675266      0.86856758   
     32500  -6097.7669     -6175.7928      78.025912      27477.823      466.1272       8256.3772      1.5652625      0.86856758   
     32600  -6099.6075     -6176.0278      76.420291      29208.148      456.53521      8270.8395      1.5625255      0.86856758   
     32700  -6100.6577     -6175.105       74.447324      33739.631      444.74869      8285.7158      1.5597201      0.86856758   
     32800  -6099.6491     -6177.0985      77.449368      33682.01       462.68292      8297.2911      1.5575442      0.86856758   
     32900  -6098.5913     -6177.3683      78.776988      33124.18       470.61413      8300.6692      1.5569104      0.86856758   
     33000  -6100.8589     -6174.6686      73.809729      31896.8        440.9397       8295.3842      1.5579023      0.82855951   
     33100  -6101.0133     -6175.7215      74.708206      26913.717      446.30721      8286.9528      1.5594873      0.82855951   
     33200  -6100.9993     -6176.2446      75.245244      27012.975      449.51547      8278.1307      1.5611493      0.82855951   
     33300  -6101.1558     -6175.3284      74.172598      28475.324      443.10748      8269.0538      1.562863       0.82855951   
     33400  -6101.5165     -6175.8925      74.376001      32636.153      444.32261      8261.8952      1.5642171      0.82855951   
     33500  -6101.9292     -6176.5289      74.599707      32610.875      445.65903      8258.192       1.5649185      0.82855951   
     33600  -6100.4169     -6174.2584      73.84156       35156.564      441.12986      8257.898       1.5649743      0.82855951   
     33700  -6100.8896     -6178.1484      77.258734      27771.895      461.54407      8261.6592      1.5642618      0.82855951   
     33800  -6101.6389     -6174.674       73.035086      28123.796      436.31198      8267.7569      1.5631081      0.82855951   
     33900  -6099.5334     -6173.6226      74.089242      28719.583      442.60952      8276.3795      1.5614796      0.82855951   
     34000  -6097.8773     -6174.3821      76.504765      26052.625      457.03986      8289.4214      1.5590229      0.74587476   
     34100  -6096.162      -6174.8148      78.652882      20678.454      469.87272      8304.1145      1.5562644      0.74587476   
     34200  -6099.5557     -6174.9694      75.413644      24123.111      450.5215       8315.5892      1.5541169      0.74587476   
     34300  -6098.536      -6171.6253      73.089358      28589.507      436.6362       8321.1366      1.5530808      0.74587476   
     34400  -6100.8104     -6175.9003      75.089904      29270.546      448.58747      8318.802       1.5535167      0.74587476   
     34500  -6098.5483     -6174.1929      75.644507      32053.12       451.90067      8306.2512      1.5558641      0.74587476   
     34600  -6096.8031     -6171.5814      74.778306      30028.73       446.72598      8288.2766      1.5592382      0.74587476   
     34700  -6099.0972     -6173.7147      74.617491      27841.786      445.76528      8272.6719      1.5621794      0.74587476   
     34800  -6095.604      -6172.3569      76.752929      29236.851      458.52239      8259.3406      1.5647009      0.74587476   
     34900  -6096.0475     -6174.6363      78.588771      29707.633      469.48972      8252.0062      1.5660916      0.74587476   
     35000  -6095.7931     -6172.7805      76.987396      31917.121      459.9231       8252.8027      1.5659405      0.8105621    
     35100  -6094.749      -6172.2545      77.505504      30558.538      463.01828      8261.5435      1.5642837      0.8105621    
     35200  -6095.2659     -6171.5927      76.326805      31598.406      455.97673      8276.8139      1.5613977      0.8105621    
     35300  -6095.3345     -6171.6236      76.289009      30006.368      455.75093      8299.1142      1.5572021      0.8105621    
     35400  -6096.1071     -6173.7584      77.651307      30858.265      463.88931      8325.7798      1.5522147      0.8105621    
     35500  -6093.9224     -6170.5387      76.616227      26444.668      457.70573      8350.0819      1.5476971      0.8105621    
     35600  -6094.4683     -6172.3279      77.859621      28726.504      465.13378      8371.9471      1.543655       0.8105621    
     35700  -6095.9673     -6171.6872      75.719827      26218.851      452.35063      8386.4849      1.5409791      0.8105621    
     35800  -6094.4505     -6171.4363      76.98579       29686.058      459.91351      8389.4729      1.5404303      0.8105621    
     35900  -6095.2297     -6173.4251      78.195345      30456.378      467.13939      8377.7174      1.5425918      0.8105621    
     36000  -6092.963      -6170.5453      77.582261      27362.001      463.47683      8354.4473      1.5468884      0.83000222   
     36100  -6094.436      -6173.3258      78.88977       26676.372      471.28789      8327.0266      1.5519823      0.83000222   
     36200  -6092.5383     -6169.8791      77.340803      30829.687      462.03435      8297.4463      1.5575151      0.83000222   
     36300  -6091.3088     -6170.0731      78.764323      36415.384      470.53847      8275.2336      1.5616958      0.83000222   
     36400  -6095.086      -6173.7423      78.656266      33986.698      469.89294      8264.6893      1.5636883      0.83000222   
     36500  -6097.5271     -6174.9912      77.464101      29621.603      462.77094      8265.3625      1.5635609      0.83000222   
     36600  -6097.7518     -6172.7531      75.001278      28023.813      448.05802      8273.5086      1.5620214      0.83000222   
     36700  -6100.194      -6175.7558      75.561766      30337.55       451.40638      8282.2576      1.5603714      0.83000222   
     36800  -6096.6381     -6174.6093      77.971204      30617.749      465.80037      8291.9334      1.5585506      0.83000222   
     36900  -6096.2296     -6174.173       77.943412      26727.782      465.63434      8304.2584      1.5562374      0.83000222   
     37000  -6096.4101     -6173.176       76.765932      28648.78       458.60008      8316.4423      1.5539575      0.81691739   
     37100  -6096.5075     -6173.7905      77.282961      24467.474      461.68881      8328.1607      1.5517709      0.81691739   
     37200  -6096.9179     -6172.4269      75.509003      24900.047      451.09117      8335.416       1.5504203      0.81691739   
     37300  -6096.9236     -6174.3327      77.409028      29932.467      462.44193      8338.068       1.5499271      0.81691739   
     37400  -6096.8235     -6171.9918      75.168296      30606.559      449.05579      8334.6044      1.5505712      0.81691739   
     37500  -6095.7125     -6173.5419      77.82944       24115.079      464.95348      8328.0757      1.5517868      0.81691739   
     37600  -6096.8959     -6173.4843      76.588396      29048.355      457.53947      8315.1735      1.5541946      0.81691739   
     37700  -6096.2225     -6169.5418      73.319277      27822.168      438.00974      8298.6134      1.5572961      0.81691739   
     37800  -6096.7576     -6172.1344      75.376895      31078.371      450.30196      8286.4496      1.559582       0.81691739   
     37900  -6098.1847     -6174.6312      76.446498      28245.685      456.69177      8276.4469      1.5614669      0.81691739   
     38000  -6095.5135     -6171.5015      75.987957      32572.44       453.95245      8271.3254      1.5624337      0.78177855   
     38100  -6094.7957     -6172.2601      77.464393      30428.953      462.77268      8278.0415      1.5611661      0.78177855   
     38200  -6097.2983     -6174.5825      77.284295      30147.967      461.69677      8296.1911      1.5577508      0.78177855   
     38300  -6098.7984     -6175.161       76.362659      34368.066      456.19092      8319.0224      1.5534755      0.78177855   
     38400  -6100.3371     -6175.4742      75.137027      33610.696      448.86899      8340.635       1.5494501      0.78177855   
     38500  -6101.7245     -6176.0196      74.295124      30236          443.83945      8356.9105      1.5464325      0.78177855   
     38600  -6100.703      -6173.7643      73.061337      29039.419      436.46881      8363.0013      1.5453062      0.78177855   
     38700  -6099.7914     -6175.1971      75.405703      29731.93       450.47406      8357.6118      1.5463027      0.78177855   
     38800  -6098.9071     -6172.2703      73.363209      27876.069      438.27219      8344.5436      1.5487244      0.78177855   
     38900  -6096.5948     -6174.3446      77.749811      26421.26       464.47777      8328.5366      1.5517009      0.78177855   
     39000  -6095.9489     -6173.3191      77.370249      32978.178      462.21027      8310.4539      1.5550773      0.78097584   
     39100  -6093.9832     -6171.9291      77.945811      30871.108      465.64868      8296.2978      1.5577307      0.78097584   
     39200  -6091.6714     -6170.7406      79.069228      36814.014      472.35998      8290.5132      1.5588176      0.78097584   
     39300  -6093.9535     -6170.6431      76.689587      33398.879      458.14399      8295.9715      1.557792       0.78097584   
     39400  -6094.0097     -6172.2207      78.211007      32782.732      467.23296      8308.9199      1.5553644      0.78097584   
     39500  -6094.8813     -6172.0836      77.202208      29879.711      461.20639      8328.6645      1.5516771      0.78097584   
     39600  -6095.0981     -6171.7484      76.650243      30611.445      457.90895      8351.1352      1.5475019      0.78097584   
     39700  -6095.443      -6174.3593      78.916354      29835.504      471.4467       8369.6715      1.5440747      0.78097584   
     39800  -6097.1075     -6171.8134      74.705958      27532.838      446.29378      8378.8737      1.5423789      0.78097584   
     39900  -6097.6141     -6173.4284      75.814311      23317.65       452.91508      8379.4855      1.5422663      0.78097584   
     40000  -6096.7393     -6173.6843      76.945019      32563.173      459.66994      8369.1663      1.5441679      0.80484741   
     40100  -6095.6768     -6172.3014      76.624625      35009.193      457.7559       8350.3508      1.5476473      0.80484741   
     40200  -6096.5764     -6175.1126      78.536181      36002.165      469.17555      8329.3779      1.5515442      0.80484741   
     40300  -6097.0791     -6175.9946      78.915431      30356.165      471.44119      8307.899       1.5555555      0.80484741   
     40400  -6097.1878     -6175.4919      78.304074      31838.547      467.78894      8291.4476      1.5586419      0.80484741   
     40500  -6096.1834     -6172.4422      76.258784      29000.548      455.57037      8283.2245      1.5601893      0.80484741   
     40600  -6095.1576     -6171.1604      76.00274       31144.315      454.04076      8283.2673      1.5601812      0.80484741   
     40700  -6096.7981     -6173.8792      77.081072      29855.808      460.48272      8289.4066      1.5590257      0.80484741   
     40800  -6095.0364     -6175.7317      80.695256      31674.418      482.07388      8302.4044      1.556585       0.80484741   
     40900  -6097.5917     -6171.592       74.000284      32389.991      442.07808      8317.2306      1.5538102      0.80484741   
     41000  -6099.1354     -6172.1553      73.01995       32158.93       436.22156      8332.747       1.5509169      0.83456908   
     41100  -6096.3386     -6173.0506      76.712008      30711.915      458.27793      8342.5138      1.5491012      0.83456908   
     41200  -6097.6133     -6176.0613      78.448091      28927.175      468.6493       8345.6256      1.5485236      0.83456908   
     41300  -6099.3847     -6177.213       77.828315      26705.826      464.94675      8343.8268      1.5488574      0.83456908   
     41400  -6098.2569     -6174.5371      76.28023       29716.898      455.69848      8332.9206      1.5508846      0.83456908   
     41500  -6098.6097     -6173.2522      74.642534      31985.448      445.91488      8313.9859      1.5544166      0.83456908   
     41600  -6098.0712     -6172.9703      74.899071      31809.465      447.44744      8297.6644      1.5574742      0.83456908   
     41700  -6097.6763     -6174.758       77.08165       31785.22       460.48617      8283.599       1.5601187      0.83456908   
     41800  -6096.5991     -6173.8168      77.2177        27545.517      461.29894      8272.5178      1.5622085      0.83456908   
     41900  -6097.2671     -6173.3771      76.109993      30201.005      454.68149      8267.2073      1.563212       0.83456908   
     42000  -6098.9544     -6174.202       75.247627      26039.055      449.52971      8269.5715      1.5627651      0.80131132   
     42100  -6099.825      -6174.433       74.608084      26725.737      445.70908      8274.2521      1.5618811      0.80131132   
     42200  -6095.7589     -6169.8966      74.137708      30133.846      442.89905      8278.8637      1.5610111      0.80131132   
     42300  -6098.0672     -6171.9436      73.876375      30796.396      441.33785      8286.873       1.5595024      0.80131132   
     42400  -6094.9808     -6172.5869      77.606157      32058.682      463.61958      8297.5578      1.5574942      0.80131132   
     42500  -6095.3392     -6170.2154      74.876254      34526.863      447.31113      8310.2054      1.5551238      0.80131132   
     42600  -6093.9844     -6172.6866      78.702251      30281.239      470.16765      8325.0786      1.5523455      0.80131132   
     42700  -6094.6402     -6174.5419      79.901772      30655.139      477.3336       8340.0656      1.5495559      0.80131132   
     42800  -6096.3134     -6173.096       76.782565      30621.974      458.69944      8348.0886      1.5480667      0.80131132   
     42900  -6096.1468     -6172.4717      76.32483       26768.717      455.96493      8348.2177      1.5480428      0.80131132   
     43000  -6094.407      -6171.1198      76.712841      25302.225      458.28291      8342.1732      1.5491644      0.80511711   
     43100  -6093.5276     -6172.1415      78.613905      29455.606      469.63988      8335.4354      1.5504167      0.80511711   
     43200  -6093.9528     -6171.5762      77.623384      32069.114      463.7225       8328.2174      1.5517604      0.80511711   
     43300  -6094.5079     -6169.8429      75.334922      27359.064      450.05121      8324.4437      1.5524638      0.80511711   
     43400  -6097.5653     -6175.7937      78.228353      23551.894      467.33658      8323.1219      1.5527104      0.80511711   
     43500  -6098.6002     -6175.0587      76.458463      28454.971      456.76325      8319.372       1.5534103      0.80511711   
     43600  -6098.9916     -6174.8696      75.878038      30437.511      453.29579      8312.9067      1.5546184      0.80511711   
     43700  -6097.8885     -6173.7114      75.822854      30678.721      452.96612      8303.2275      1.5564307      0.80511711   
     43800  -6095.4857     -6173.1419      77.656172      34483.506      463.91837      8295.311       1.557916       0.80511711   
     43900  -6094.9352     -6172.7837      77.848522      31967.021      465.06747      8292.4559      1.5584524      0.80511711   
     44000  -6096.0306     -6174.9418      78.911149      29418.073      471.41561      8296.7054      1.5576542      0.90267414   
     44100  -6096.756      -6171.8169      75.060959      33957.262      448.41456      8304.9986      1.5560987      0.90267414   
     44200  -6096.6195     -6174.4211      77.801569      30078.744      464.78697      8317.3755      1.5537831      0.90267414   
     44300  -6095.9075     -6171.8702      75.962687      31391.442      453.80148      8331.0481      1.5512331      0.90267414   
     44400  -6097.7307     -6172.2069      74.476145      27661.734      444.92087      8341.8357      1.5492271      0.90267414   
     44500  -6098.5523     -6174.0045      75.452142      26011.36       450.75149      8345.2252      1.5485979      0.90267414   
     44600  -6097.0755     -6172.1843      75.108735      24322.39       448.69997      8339.8393      1.5495979      0.90267414   
     44700  -6094.01       -6169.9931      75.98305       29181.817      453.92313      8327.4148      1.5519099      0.90267414   
     44800  -6095.0873     -6171.0655      75.978161      31956.256      453.89392      8311.6062      1.5548617      0.90267414   
     44900  -6094.3994     -6169.8206      75.421143      31483.828      450.56629      8298.1058      1.5573913      0.90267414   
     45000  -6097.9698     -6175.6208      77.651011      29852.498      463.88754      8290.4744      1.5588249      0.83360898   
     45100  -6101.9838     -6176.1988      74.214957      33768.254      443.36054      8285.0582      1.5598439      0.83360898   
     45200  -6101.3828     -6175.1999      73.817045      22791.204      440.98341      8279.4044      1.5609091      0.83360898   
     45300  -6099.6648     -6174.1465      74.481662      29392.236      444.95383      8273.1962      1.5620804      0.83360898   
     45400  -6098.1699     -6173.2903      75.120401      28870.205      448.76966      8275.0618      1.5617283      0.83360898   
     45500  -6098.6026     -6173.8749      75.272263      30338.073      449.67689      8285.6348      1.5597354      0.83360898   
     45600  -6098.6475     -6174.0415      75.393967      30427.637      450.40394      8300.9928      1.5568497      0.83360898   
     45700  -6098.4516     -6173.8271      75.375482      30811.678      450.29352      8319.6369      1.5533608      0.83360898   
     45800  -6099.5611     -6175.4201      75.859039      28941.872      453.18229      8339.0193      1.5497503      0.83360898   
     45900  -6099.781      -6174.5938      74.812834      26321.03       446.93226      8349.2182      1.5478573      0.83360898   
     46000  -6097.2693     -6172.244       74.974731      25657.492      447.89943      8349.5334      1.5477988      0.84959425   
     46100  -6096.254      -6173.9084      77.65442       29463.042      463.90791      8341.5049      1.5492885      0.84959425   
     46200  -6097.4693     -6173.8644      76.395124      27661.472      456.38486      8327.8832      1.5518227      0.84959425   
     46300  -6097.6672     -6173.7461      76.078838      30590.026      454.49537      8306.6923      1.5557815      0.84959425   
     46400  -6097.6507     -6170.1653      72.514617      30328.255      433.20269      8284.4836      1.5599521      0.84959425   
     46500  -6097.3584     -6172.9182      75.559815      32486.096      451.39473      8267.2947      1.5631955      0.84959425   
     46600  -6096.8772     -6175.7074      78.830256      31514.248      470.93236      8259.7313      1.5646269      0.84959425   
     46700  -6098.2184     -6173.999       75.780653      29815.46       452.71401      8260.1148      1.5645543      0.84959425   
     46800  -6098.8263     -6174.812       75.98579       32484.285      453.9395       8268.3626      1.5629936      0.84959425   
     46900  -6099.2197     -6175.1818      75.962084      28543.17       453.79788      8282.6838      1.5602911      0.84959425   
     47000  -6100.3778     -6175.7976      75.419818      26546.11       450.55838      8299.3655      1.5571549      0.98293751   
     47100  -6100.095      -6173.7998      73.704853      31255.735      440.31317      8314.2075      1.5543752      0.98293751   
     47200  -6098.4553     -6175.1896      76.73425       31960.221      458.4108       8326.0284      1.5521684      0.98293751   
     47300  -6099.8245     -6175.0454      75.22097       29216.576      449.37046      8335.0452      1.5504892      0.98293751   
     47400  -6099.6378     -6174.3533      74.715506      28393.461      446.35082      8337.335       1.5500634      0.98293751   
     47500  -6100.7218     -6176.5531      75.831265      25068.23       453.01637      8331.6402      1.5511229      0.98293751   
     47600  -6095.9886     -6173.4403      77.45169       28410.65       462.69679      8315.5721      1.5541201      0.98293751   
     47700  -6096.3944     -6173.4898      77.095347      31566.852      460.568        8303.0248      1.5564687      0.98293751   
     47800  -6095.4196     -6173.9596      78.540037      28878.258      469.19859      8296.167       1.5577553      0.98293751   
     47900  -6095.1567     -6170.5915      75.434764      36064.937      450.64767      8294.8539      1.5580019      0.98293751   
     48000  -6094.919      -6172.9776      78.058581      33074.143      466.32237      8302.6461      1.5565397      0.77782498   
     48100  -6098.4331     -6172.4735      74.040354      27179.959      442.31746      8314.4789      1.5543244      0.77782498   
     48200  -6097.9378     -6174.6048      76.667011      29733.925      458.00912      8327.4509      1.5519032      0.77782498   
     48300  -6096.2976     -6171.2536      74.95601       29795.129      447.78759      8338.3783      1.5498695      0.77782498   
     48400  -6095.0389     -6172.8681      77.829172      29862.969      464.95188      8346.7924      1.5483071      0.77782498   
     48500  -6097.8986     -6176.3863      78.487651      29522.425      468.88563      8352.8809      1.5471785      0.77782498   
     48600  -6097.9706     -6170.9634      72.992839      29862.963      436.0596       8351.1603      1.5474973      0.77782498   
     48700  -6096.3122     -6171.8626      75.550391      32505.391      451.33842      8345.8452      1.5484828      0.77782498   
     48800  -6097.8656     -6174.7305      76.864851      33527.221      459.19101      8338.5425      1.5498389      0.77782498   
     48900  -6099.4271     -6175.1861      75.758981      30156.141      452.58454      8328.3263      1.5517401      0.77782498   
     49000  -6102.0958     -6177.4507      75.35491       28380.457      450.17062      8316.0986      1.5540217      0.84108844   
     49100  -6098.1039     -6173.3908      75.286961      36730.164      449.76469      8299.8043      1.5570726      0.84108844   
     49200  -6096.4538     -6176.2513      79.797452      33008.264      476.71039      8289.0678      1.5590894      0.84108844   
     49300  -6096.655      -6172.8319      76.176902      32255.463      455.0812       8282.851       1.5602596      0.84108844   
     49400  -6097.0214     -6175.2976      78.276233      28039.66       467.62262      8283.9842      1.5600462      0.84108844   
     49500  -6096.371      -6174.3488      77.977771      26527.995      465.83961      8288.0448      1.5592819      0.84108844   
     49600  -6096.1188     -6172.9164      76.797662      31443.018      458.78963      8295.2766      1.5579225      0.84108844   
     49700  -6093.4766     -6174.553       81.076421      31098.451      484.35096      8308.1409      1.5555102      0.84108844   
     49800  -6093.5427     -6168.1206      74.577903      34077.019      445.52878      8325.2478      1.5523139      0.84108844   
     49900  -6095.3549     -6173.0817      77.72682       29784.481      464.34043      8344.8742      1.548663       0.84108844   
     50000  -6093.4455     -6171.7828      78.337233      28883.47       467.98703      8357.7769      1.5462722      1.0043749    
     50100  -6096.3876     -6172.9004      76.512827      28357.124      457.08802      8363.904       1.5451394      1.0043749    
     50200  -6099.2577     -6173.0469      73.789221      26125.617      440.81719      8361.24        1.5456317      1.0043749    
     50300  -6101.6158     -6177.2216      75.60573       25866.247      451.66902      8346.7852      1.5483084      1.0043749    
     50400  -6101.8336     -6174.2545      72.420911      28713.659      432.6429       8318.5831      1.5535576      1.0043749    
     50500  -6101.6905     -6177.1202      75.429712      28157.593      450.61749      8285.8758      1.55969        1.0043749    
     50600  -6103.1918     -6178.1334      74.941528      32109.541      447.70108      8251.9902      1.5660947      1.0043749    
     50700  -6103.2038     -6175.2712      72.067398      32067.966      430.53101      8221.0455      1.5719896      1.0043749    
     50800  -6101.5718     -6177.067       75.495161      33549.202      451.00848      8201.2208      1.5757895      1.0043749    
     50900  -6100.4292     -6173.9875      73.558245      35993.319      439.43734      8196.6069      1.5766765      1.0043749    
     51000  -6099.5838     -6176.1891      76.605274      31450.504      457.6403       8206.5247      1.5747711      0.86664263   
     51100  -6101.3419     -6174.7637      73.42187       30629.508      438.62263      8226.3588      1.5709743      0.86664263   
     51200  -6102.108      -6176.8773      74.769319      27837.366      446.6723       8252.7877      1.5659433      0.86664263   
     51300  -6100.223      -6174.9083      74.685239      23554.59       446.17         8282.9315      1.5602445      0.86664263   
     51400  -6100.9299     -6175.4241      74.494261      30439.252      445.0291       8309.3014      1.555293       0.86664263   
     51500  -6099.729      -6176.6267      76.89777       28608.557      459.38768      8327.4523      1.551903       0.86664263   
     51600  -6100.7402     -6172.9697      72.229499      25495.708      431.4994       8334.8202      1.5505311      0.86664263   
     51700  -6101.8989     -6176.3446      74.445617      22752.046      444.7385       8329.1814      1.5515808      0.86664263   
     51800  -6101.5081     -6173.8564      72.348284      28340.869      432.20902      8309.3593      1.5552821      0.86664263   
     51900  -6100.9122     -6176.6732      75.76101       31610.211      452.59666      8282.1623      1.5603894      0.86664263   
     52000  -6100.3066     -6173.2291      72.922436      31358.916      435.63901      8250.6187      1.566355       0.95980115   
     52100  -6099.3089     -6176.5731      77.264232      27623.263      461.57692      8223.7397      1.5714746      0.95980115   
     52200  -6100.7578     -6176.726       75.968161      33789.962      453.83419      8203.1042      1.5754277      0.95980115   
     52300  -6100.4763     -6174.0127      73.536386      34028.26       439.30675      8191.5455      1.5776508      0.95980115   
     52400  -6100.897      -6175.6131      74.71618       35312.505      446.35485      8192.1186      1.5775404      0.95980115   
     52500  -6101.9386     -6177.9677      76.02904       31123.517      454.19788      8203.635       1.5753258      0.95980115   
     52600  -6101.3308     -6176.4815      75.150747      32454.2        448.95095      8222.6617      1.5716806      0.95980115   
     52700  -6101.8577     -6177.6396      75.781874      32073.552      452.72131      8247.8401      1.5668827      0.95980115   
     52800  -6101.6741     -6175.9494      74.275312      29089.328      443.7211       8273.8212      1.5619624      0.95980115   
     52900  -6101.4822     -6175.3485      73.86637       30047.413      441.27807      8297.8637      1.5574368      0.95980115   
     53000  -6099.847      -6175.293       75.445966      29299.066      450.71459      8316.0195      1.5540365      0.75140993   
     53100  -6100.778      -6177.0162      76.238163      28779.532      455.44718      8324.6777      1.5524202      0.75140993   
[...]
   2006100  -6095.8821     -6174.4057      78.523598      27008.507      469.10038      8378.4423      1.5424583      0.77050488   
   2006200  -6095.3514     -6173.9621      78.610718      31037.502      469.62084      8402.4228      1.5380561      0.77050488   
   2006300  -6095.0852     -6174.3951      79.309905      30281.081      473.79778      8415.2889      1.5357046      0.77050488   
   2006400  -6095.666      -6176.3908      80.724855      29963.618      482.2507       8414.7611      1.5358009      0.77050488   
   2006500  -6095.8377     -6173.9171      78.079365      27320.413      466.44653      8399.5193      1.5385878      0.77050488   
   2006600  -6095.5699     -6172.821       77.251106      29361.741      461.49851      8375.0182      1.5430889      0.77050488   
   2006700  -6095.1002     -6175.5966      80.49639       31486.947      480.88585      8347.129       1.5482447      0.77050488   
   2006800  -6094.9931     -6170.3768      75.383696      32339.33       450.34259      8317.9592      1.5536741      0.77050488   
   2006900  -6094.3573     -6172.8779      78.520604      33142.691      469.08249      8295.9161      1.5578024      0.77050488   
   2007000  -6093.4438     -6172.5646      79.120809      29403.496      472.66812      8284.0503      1.5600337      0.78007051   
   2007100  -6095.437      -6173.6244      78.187384      28413.181      467.09184      8286.3034      1.5596095      0.78007051   
   2007200  -6092.007      -6171.3616      79.354652      31917.665      474.0651       8298.5001      1.5573173      0.78007051   
   2007300  -6092.9581     -6170.4765      77.51836       28391.43       463.09508      8317.4324      1.5537725      0.78007051   
   2007400  -6091.5979     -6171.4588      79.860893      26320.909      477.08939      8341.6909      1.549254       0.78007051   
   2007500  -6094.9652     -6174.2906      79.325368      27850.127      473.89015      8365.529       1.5448393      0.78007051   
   2007600  -6097.705      -6174.3971      76.692054      25850.676      458.15873      8380.6047      1.5420603      0.78007051   
   2007700  -6100.4927     -6176.6883      76.195579      26362.076      455.19278      8381.6691      1.5418645      0.78007051   
   2007800  -6097.1286     -6174.2017      77.073079      30076.172      460.43497      8367.5436      1.5444674      0.78007051   
   2007900  -6093.5972     -6173.1768      79.579567      29784.923      475.40875      8344.6753      1.5486999      0.78007051   
   2008000  -6096.6486     -6175.2132      78.56462       30028.791      469.34544      8320.0046      1.5532922      0.83818916   
   2008100  -6099.7527     -6175.5396      75.786836      28171.139      452.75095      8295.5967      1.5578624      0.83818916   
   2008200  -6098.1633     -6175.6434      77.480047      32313.619      462.8662       8272.0624      1.5622945      0.83818916   
   2008300  -6097.4819     -6175.9412      78.459326      34229.45       468.71642      8253.0072      1.5659017      0.83818916   
   2008400  -6096.0002     -6171.6919      75.691697      35175.267      452.18259      8241.4181      1.5681037      0.83818916   
   2008500  -6098.3943     -6175.7066      77.312224      31791.913      461.86363      8243.3874      1.5677291      0.83818916   
   2008600  -6097.9645     -6174.825       76.860461      30842.252      459.16479      8255.9975      1.5653345      0.83818916   
   2008700  -6099.1902     -6175.2341      76.043876      32202.907      454.2865       8276.0308      1.5615454      0.83818916   
   2008800  -6099.1674     -6175.7234      76.555988      28417.188      457.34587      8297.2812      1.5575461      0.83818916   
   2008900  -6098.2881     -6176.7633      78.475225      22118.951      468.8114       8316.1696      1.5540085      0.83818916   
   2009000  -6097.7715     -6172.8253      75.053749      29252.247      448.37148      8331.0915      1.5512251      0.80112766   
   2009100  -6097.9919     -6176.0043      78.0124        32674.033      466.04648      8341.6687      1.5492581      0.80112766   
   2009200  -6097.8299     -6177.2795      79.449561      27816.836      474.63208      8345.4271      1.5485604      0.80112766   
   2009300  -6097.3308     -6174.607       77.276183      28844.695      461.64832      8340.3478      1.5495035      0.80112766   
   2009400  -6098.5476     -6177.0841      78.536469      30483.238      469.17727      8330.8928      1.5512621      0.80112766   
   2009500  -6097.5762     -6174.6549      77.078705      25445.586      460.46858      8312.9916      1.5546025      0.80112766   
   2009600  -6097.5013     -6173.951       76.449778      27720.256      456.71137      8293.9995      1.5581624      0.80112766   
   2009700  -6097.9088     -6176.0463      78.137501      26698.408      466.79383      8279.2521      1.5609378      0.80112766   
   2009800  -6099.2026     -6175.2593      76.056632      29270.984      454.36271      8271.2167      1.5624543      0.80112766   
   2009900  -6099.428      -6176.5657      77.137683      27143.26       460.82092      8268.8935      1.5628933      0.80112766   
   2010000  -6101.5745     -6177.122       75.547451      27875.797      451.32086      8270.1592      1.5626541      0.93379086   
   2010100  -6103.1113     -6175.751       72.639632      32366.59       433.94953      8273.9327      1.5619414      0.93379086   
   2010200  -6103.0804     -6177.6102      74.52981       28449.218      445.24147      8276.8842      1.5613844      0.93379086   
   2010300  -6104.9101     -6177.4122      72.50207       32956.087      433.12774      8279.3319      1.5609228      0.93379086   
   2010400  -6104.5598     -6179.8769      75.317142      32669.82       449.94499      8281.9117      1.5604366      0.93379086   
   2010500  -6105.656      -6179.3337      73.677682      30989.945      440.15085      8281.5654      1.5605018      0.93379086   
   2010600  -6105.497      -6178.858       73.36098       28380.331      438.25887      8277.2138      1.5613222      0.93379086   
   2010700  -6103.8561     -6173.9919      70.135772      31748.373      418.99147      8269.7612      1.5627293      0.93379086   
   2010800  -6104.2308     -6179.0656      74.834736      32591.837      447.0631       8261.6415      1.5642651      0.93379086   
   2010900  -6104.1675     -6177.2167      73.049229      34176.556      436.39647      8251.8633      1.5661188      0.93379086   
   2011000  -6103.9607     -6178.3197      74.359047      36548.932      444.22133      8244.5602      1.567506       0.92718575   
   2011100  -6101.0711     -6179.0613      77.990176      29971.479      465.91371      8243.614       1.567686       0.92718575   
   2011200  -6099.4414     -6177.9207      78.479324      29047.872      468.83589      8250.5101      1.5663756      0.92718575   
   2011300  -6100.738      -6175.9925      75.254505      33285.247      449.5708       8264.2839      1.563765       0.92718575   
   2011400  -6101.0019     -6176.572       75.570165      30484.056      451.45655      8284.1609      1.5600129      0.92718575   
   2011500  -6101.6392     -6177.0717      75.432482      27049.799      450.63404      8305.5556      1.5559944      0.92718575   
   2011600  -6099.5182     -6176.3403      76.82211       27015.992      458.93568      8324.5128      1.552451       0.92718575   
   2011700  -6100.18       -6177.3008      77.120892      26720.337      460.72061      8337.2997      1.55007        0.92718575   
   2011800  -6099.8195     -6174.8309      75.011392      24775.849      448.11844      8338.1224      1.549917       0.92718575   
   2011900  -6101.4196     -6175.777       74.357349      27142.067      444.21119      8327.821       1.5518343      0.92718575   
   2012000  -6100.8529     -6176.6045      75.751648      24627.888      452.54073      8305.9289      1.5559245      0.86732351   
   2012100  -6099.9189     -6176.3166      76.397735      23081.295      456.40046      8276.9117      1.5613792      0.86732351   
   2012200  -6100.4566     -6174.2522      73.795535      30096.406      440.85491      8243.8601      1.5676392      0.86732351   
   2012300  -6101.2627     -6178.3166      77.053978      29717.69       460.32086      8215.5818      1.573035       0.86732351   
   2012400  -6100.5092     -6177.8002      77.290998      33883.472      461.73682      8195.1799      1.5769511      0.86732351   
   2012500  -6097.4875     -6175.4884      78.000866      32960.284      465.97758      8188.0834      1.5783178      0.86732351   
   2012600  -6098.2194     -6175.3793      77.159833      28409.314      460.95324      8200.0977      1.5760054      0.86732351   
   2012700  -6098.6665     -6176.5731      77.906568      30577.818      465.41424      8230.6487      1.5701554      0.86732351   
   2012800  -6101.9204     -6176.6168      74.696391      27179.713      446.23663      8269.6305      1.562754       0.86732351   
   2012900  -6102.6591     -6176.2877      73.628563      29612.467      439.85741      8307.4902      1.555632       0.86732351   
   2013000  -6100.9282     -6177.5376      76.609358      28967.851      457.6647       8335.0966      1.5504797      0.89435686   
   2013100  -6100.6767     -6177.0903      76.413593      31015.604      456.4952       8347.8611      1.5481089      0.89435686   
   2013200  -6098.8265     -6175.9166      77.090025      28279.088      460.53621      8346.259       1.548406       0.89435686   
   2013300  -6102.0867     -6176.7493      74.662657      28818.771      446.0351       8328.5938      1.5516903      0.89435686   
   2013400  -6100.8074     -6176.7304      75.92298       26825.355      453.56427      8297.2354      1.5575547      0.89435686   
   2013500  -6100.8875     -6175.9404      75.052958      31088.351      448.36676      8256.5478      1.5652302      0.89435686   
   2013600  -6097.6517     -6174.2937      76.641952      25115.315      457.85941      8217.6567      1.5726378      0.89435686   
   2013700  -6098.4901     -6176.2779      77.787802      33152.734      464.70473      8190.115       1.5779263      0.89435686   
   2013800  -6096.5978     -6172.8473      76.24955       34002.302      455.5152       8179.7212      1.5799313      0.89435686   
   2013900  -6096.8553     -6174.3708      77.515435      31006.392      463.07761      8191.6912      1.5776227      0.89435686   
   2014000  -6097.0188     -6175.7662      78.747466      31328.005      470.43777      8221.8837      1.5718293      0.80789692   
   2014100  -6100.5636     -6175.9875      75.423872      34607.427      450.5826       8262.4458      1.5641129      0.80789692   
   2014200  -6102.2579     -6177.0859      74.827943      30855.959      447.02252      8303.2648      1.5564237      0.80789692   
   2014300  -6104.0547     -6176.0564      72.00162       30427.588      430.13805      8335.5487      1.5503956      0.80789692   
   2014400  -6105.288      -6179.5792      74.291184      24738.359      443.81592      8351.9563      1.5473498      0.80789692   
   2014500  -6103.6915     -6178.5364      74.844978      26452.79       447.12428      8345.6115      1.5485262      0.80789692   
   2014600  -6103.5317     -6177.3826      73.850929      25468.201      441.18583      8321.6181      1.552991       0.80789692   
   2014700  -6102.1687     -6177.4145      75.24587       26860.687      449.51921      8284.0846      1.5600273      0.80789692   
   2014800  -6104.772      -6176.8961      72.124052      29728.612      430.86946      8241.5661      1.5680755      0.80789692   
   2014900  -6100.3417     -6177.3353      76.993646      32080.443      459.96044      8201.5272      1.5757307      0.80789692   
   2015000  -6097.3351     -6173.6423      76.307155      33808.772      455.85934      8174.8164      1.5808793      0.86538448   
   2015100  -6096.1168     -6174.804       78.687139      35577.353      470.07737      8170.5442      1.5817059      0.86538448   
   2015200  -6098.9851     -6174.659       75.673895      32483.597      452.07624      8187.2901      1.5784707      0.86538448   
   2015300  -6099.8454     -6176.2769      76.431528      29802.602      456.60234      8220.1888      1.5721534      0.86538448   
   2015400  -6097.9321     -6176.3597      78.427697      31099.293      468.52746      8261.4689      1.5642978      0.86538448   
   2015500  -6100.6278     -6177.4687      76.840921      29767.856      459.04806      8306.063       1.5558993      0.86538448   
   2015600  -6101.9373     -6178.3428      76.40545       31281.985      456.44655      8342.5361      1.549097       0.86538448   
   2015700  -6101.505      -6176.7729      75.26788       25964.342      449.6507       8361.6752      1.5455513      0.86538448   
   2015800  -6099.4861     -6175.0831      75.597006      27222.861      451.61691      8364.1849      1.5450875      0.86538448   
   2015900  -6098.9343     -6176.1031      77.168803      26384.381      461.00682      8354.1514      1.5469432      0.86538448   
   2016000  -6101.2828     -6177.0829      75.800031      27787.349      452.82978      8333.9904      1.5506855      0.82097901   
   2016100  -6100.5337     -6176.165       75.631346      27105.516      451.82205      8304.744       1.5561464      0.82097901   
   2016200  -6099.4969     -6174.3218      74.824917      32255.391      447.00444      8272.2527      1.5622586      0.82097901   
   2016300  -6102.1292     -6178.2228      76.093629      31322.335      454.58373      8243.2115      1.5677625      0.82097901   
   2016400  -6099.5199     -6177.3593      77.839404      32207.124      465.013        8219.7537      1.5722366      0.82097901   
   2016500  -6098.8466     -6175.2356      76.389008      32284.701      456.34833      8207.2303      1.5746357      0.82097901   
   2016600  -6097.8468     -6175.5862      77.739446      32973.468      464.41585      8212.0436      1.5737128      0.82097901   
   2016700  -6098.7458     -6172.7685      74.022695      33116.947      442.21196      8231.6065      1.5699727      0.82097901   
   2016800  -6102.9035     -6177.1723      74.268806      25949.015      443.68223      8260.9162      1.5644025      0.82097901   
   2016900  -6104.4279     -6176.2425      71.814644      28991.803      429.02105      8289.0311      1.5590963      0.82097901   
   2017000  -6105.7879     -6178.4956      72.707646      27085.696      434.35585      8311.5906      1.5548646      0.85787883   
   2017100  -6105.3136     -6180.2836      74.970075      19375.989      447.87162      8324.314       1.552488       0.85787883   
   2017200  -6101.6279     -6176.4978      74.869897      25976.974      447.27315      8326.7288      1.5520378      0.85787883   
   2017300  -6101.1368     -6176.8643      75.727569      27018.574      452.39689      8321.6776      1.5529799      0.85787883   
   2017400  -6100.5665     -6174.6933      74.126743      28890.649      442.83355      8310.0637      1.5551503      0.85787883   
   2017500  -6098.9984     -6177.0921      78.093751      28384.437      466.53247      8295.6631      1.5578499      0.85787883   
   2017600  -6097.0987     -6173.66        76.561249      31072.664      457.3773       8283.7357      1.560093       0.85787883   
   2017700  -6100.2448     -6175.1897      74.944903      31029.846      447.72123      8277.253       1.5613148      0.85787883   
   2017800  -6100.1561     -6177.6726      77.51652       33323.096      463.08409      8274.7048      1.5617956      0.85787883   
   2017900  -6100.5396     -6178.4934      77.953843      33341.773      465.69666      8276.5558      1.5614464      0.85787883   
   2018000  -6102.5294     -6178.3295      75.800135      32026.577      452.83039      8282.5014      1.5603255      0.89873993   
   2018100  -6104.2589     -6179.3286      75.06969       33276.377      448.46672      8286.6334      1.5595474      0.89873993   
   2018200  -6101.0738     -6177.1765      76.102746      28662.478      454.63819      8288.6989      1.5591588      0.89873993   
   2018300  -6100.2181     -6177.5958      77.377743      29304.957      462.25504      8289.7601      1.5589592      0.89873993   
   2018400  -6100.5886     -6177.4409      76.852317      29269.504      459.11614      8288.6565      1.5591668      0.89873993   
   2018500  -6096.6083     -6174.1936      77.585296      25311.342      463.49496      8284.7507      1.5599018      0.89873993   
   2018600  -6098.302      -6175.1538      76.8518        26471.595      459.11305      8282.9894      1.5602335      0.89873993   
   2018700  -6098.1887     -6174.6763      76.487619      34817.891      456.93743      8283.1153      1.5602098      0.89873993   
   2018800  -6099.9103     -6175.0765      75.166164      29635.633      449.04305      8285.8306      1.5596985      0.89873993   
   2018900  -6100.5877     -6175.3466      74.75888       24010.056      446.60993      8287.8271      1.5593228      0.89873993   
   2019000  -6099.818      -6176.4166      76.598552      25428.051      457.60015      8288.8306      1.559134       0.87152444   
   2019100  -6098.7124     -6174.2939      75.581491      24962.776      451.52422      8291.7467      1.5585857      0.87152444   
   2019200  -6098.4756     -6174.1456      75.670015      28742.261      452.05306      8297.5177      1.5575017      0.87152444   
   2019300  -6097.1445     -6175.6663      78.521804      32098.861      469.08966      8303.369       1.5564041      0.87152444   
   2019400  -6097.1403     -6174.1123      76.972008      33140.225      459.83117      8308.2162      1.5554961      0.87152444   
   2019500  -6095.9662     -6173.4465      77.4803        31582.445      462.86771      8313.7071      1.5544688      0.87152444   
   2019600  -6100.946      -6173.5672      72.621214      30756.844      433.8395       8317.6778      1.5537267      0.87152444   
   2019700  -6101.2829     -6177.7893      76.506445      28841.487      457.0499       8316.4335      1.5539591      0.87152444   
   2019800  -6098.0219     -6175.7878      77.765856      33381.597      464.57363      8305.0463      1.5560898      0.87152444   
   2019900  -6098.339      -6175.3972      77.058171      29063.912      460.34591      8291.0594      1.5587149      0.87152444   
   2020000  -6097.117      -6174.8665      77.749499      30163.968      464.47591      8276.9221      1.5613773      0.81643478   
   2020033  -6096.9875     -6174.1567      77.169219      27270.455      461.00931      8272.8771      1.5621407      0.81643478   
Loop time of 8607.08 on 1 procs for 2000000 steps with 1296 atoms

Performance: 10.038 ns/day, 2.391 hours/ns, 232.367 timesteps/s, 301.147 katom-step/s
99.8% CPU use with 1 MPI tasks x 1 OpenMP threads

MPI task timing breakdown:
Section |  min time  |  avg time  |  max time  |%varavg| %total
---------------------------------------------------------------
Pair    | 6589.6     | 6589.6     | 6589.6     |   0.0 | 76.56
Neigh   | 87.657     | 87.657     | 87.657     |   0.0 |  1.02
Comm    | 87.731     | 87.731     | 87.731     |   0.0 |  1.02
Output  | 5.2522     | 5.2522     | 5.2522     |   0.0 |  0.06
Modify  | 1792.1     | 1792.1     | 1792.1     |   0.0 | 20.82
Other   |            | 44.8       |            |       |  0.52

Nlocal:           1296 ave        1296 max        1296 min
Histogram: 1 0 0 0 0 0 0 0 0 0
Nghost:           4417 ave        4417 max        4417 min
Histogram: 1 0 0 0 0 0 0 0 0 0
Neighs:              0 ave           0 max           0 min
Histogram: 1 0 0 0 0 0 0 0 0 0
FullNghs:       233436 ave      233436 max      233436 min
Histogram: 1 0 0 0 0 0 0 0 0 0

Total # of neighbors = 233436
Ave neighs/atom = 180.12037
Neighbor list builds = 200000
Dangerous builds = 200000

unfix		3
unfix		4
Total wall time: 2:24:54
