LAMMPS (27 Jun 2024)
KOKKOS mode with Kokkos version 4.3.1 is enabled (src/KOKKOS/kokkos.cpp:72)
  will use up to 1 GPU(s) per node
WARNING: When using a single thread, the Kokkos Serial backend (i.e. Makefile.kokkos_mpi_only) gives better performance than the OpenMP backend (src/KOKKOS/kokkos.cpp:202)
  using 1 OpenMP thread(s) per MPI task
package kokkos
package kokkos newton on neigh half

units		metal						## E in [eV], t in [ps], P in [10000 Pa], l in [A]
atom_style	atomic						## mass x y z vx vy vz

neighbor	0.5 bin						## neighbor list, skin = 0.5 Angstrom
neigh_modify	every 2 delay 10 check yes			## update of neighbor list

############################## main variables
variable        seed equal 56297

variable	temperature equal 265
variable	tempDamp equal 0.1

variable        pressure equal 5000
variable        pressureDamp equal 1.0 				# This is 1 ps

##############################

read_data water.dat
Reading data file ...
  triclinic box = (0 0 0) to (23.34 21.468634 16.394175) with tilt (-9.157148 -9.15715 7.607424)
WARNING: Triclinic box skew is large. LAMMPS will run inefficiently. (src/domain.cpp:221)
  1 by 1 by 1 MPI processor grid
  reading atoms ...
  972 atoms
  read_data CPU = 0.008 seconds

mass		1 1.008    # H
mass		2 15.9994  # O


pair_style	pace/extrapolation
ACE/AL version: 2023.11.25
pair_coeff	* * /pc2/users/a/acepdw01/work/phase_diagram/pot_dir/interim_potential_ladder_step_1.yaml /pc2/users/a/acepdw01/work/phase_diagram/pot_dir/interim_potential_ladder_step_1.asi H O
Loading /pc2/users/a/acepdw01/work/phase_diagram/pot_dir/interim_potential_ladder_step_1.yaml
Total number of basis functions
	H: 23 (r=1) 664 (r>1)
	O: 23 (r=1) 664 (r>1)
Mapping LAMMPS atom type #1(H) -> ACE species type #0
Mapping LAMMPS atom type #2(O) -> ACE species type #1
Loading ASI /pc2/users/a/acepdw01/work/phase_diagram/pot_dir/interim_potential_ladder_step_1.asi
LINEAR ASI is loaded

fix pace_gamma all pair 1000 pace/extrapolation gamma 1
compute max_pace_gamma all reduce max f_pace_gamma
variable dump_skip equal "c_max_pace_gamma < 10"

dump pace_dump all custom 1000 extrapolative_structures.dump id type x y z f_pace_gamma
dump_modify pace_dump skip v_dump_skip
dump_modify pace_dump element H O

variable max_pace_gamma equal c_max_pace_gamma

timestep	0.0005						## timestep = 0.0005*ps = 0.5 fs

thermo		100
thermo_style custom step etotal pe ke press temp vol density c_max_pace_gamma


min_style cg
minimize 0.0 5.0e-4 10000 100000

CITE-CITE-CITE-CITE-CITE-CITE-CITE-CITE-CITE-CITE-CITE-CITE-CITE

Your simulation uses code contributions which should be cited:

- Type Label Framework: https://doi.org/10.1021/acs.jpcb.3c08419

@Article{Gissinger24,
 author = {Jacob R. Gissinger, Ilia Nikiforov, Yaser Afshar, Brendon Waters, Moon-ki Choi, Daniel S. Karls, Alexander Stukowski, Wonpil Im, Hendrik Heinz, Axel Kohlmeyer, and Ellad B. Tadmor},
 title = {Type Label Framework for Bonded Force Fields in LAMMPS},
 journal = {J. Phys. Chem. B},
 year =    2024,
 volume =  128,
 number =  13,
 pages =   {3282–-3297}
}

CITE-CITE-CITE-CITE-CITE-CITE-CITE-CITE-CITE-CITE-CITE-CITE-CITE

Switching to 'neigh_modify every 1 delay 0 check yes' setting during minimization
Neighbor list info ...
  update: every = 1 steps, delay = 0 steps, check = yes
  max neighbors/atom: 2000, page size: 100000
  master list distance cutoff = 6.5
  ghost atom cutoff = 6.5
  binsize = 6.5, bins = 7 5 3
  1 neighbor lists, perpetual/occasional/extra = 1 0 0
  (1) pair pace/extrapolation/kk, perpetual
      attributes: full, newton on, kokkos_device
      pair build: full/bin/kk/device
      stencil: full/bin/3d
      bin: kk/device
WARNING: Fix with atom-based arrays not compatible with sending data in Kokkos communication, switching to classic exchange/border communication (src/KOKKOS/comm_kokkos.cpp:754)
WARNING: Fix with atom-based arrays not compatible with Kokkos sorting on device, switching to classic host sorting (src/KOKKOS/atom_kokkos.cpp:216)
Per MPI rank memory allocation (min/avg/max) = 777.8 | 777.8 | 777.8 Mbytes
   Step         TotEng         PotEng         KinEng         Press           Temp          Volume        Density     c_max_pace_gamma
         0  -4629.8845     -4629.8845      0              19281.688      0              8214.7591      1.1798944      7.700355     
       100  -4698.3625     -4698.3625      0             -7998.344       0              8214.7591      1.1798944      7.700355     
       200  -4698.384      -4698.384       0             -8095.8802      0              8214.7591      1.1798944      7.700355     
       211  -4698.384      -4698.384       0             -8095.9653      0              8214.7591      1.1798944      7.700355     
Loop time of 1.13401 on 1 procs for 211 steps with 972 atoms

99.7% CPU use with 1 MPI tasks x 1 OpenMP threads

Minimization stats:
  Stopping criterion = force tolerance
  Energy initial, next-to-last, final = 
     -4629.88450587203  -4698.38398317786  -4698.38398318377
  Force two-norm initial, final = 81.896981 0.00036013337
  Force max component initial, final = 12.801874 1.9928813e-05
  Final line search alpha, max atom move = 1 1.9928813e-05
  Iterations, force evaluations = 211 419

MPI task timing breakdown:
Section |  min time  |  avg time  |  max time  |%varavg| %total
---------------------------------------------------------------
Pair    | 0.97316    | 0.97316    | 0.97316    |   0.0 | 85.82
Neigh   | 0.0025735  | 0.0025735  | 0.0025735  |   0.0 |  0.23
Comm    | 0.013299   | 0.013299   | 0.013299   |   0.0 |  1.17
Output  | 0.00026559 | 0.00026559 | 0.00026559 |   0.0 |  0.02
Modify  | 0.089542   | 0.089542   | 0.089542   |   0.0 |  7.90
Other   |            | 0.05517    |            |       |  4.86

Nlocal:            972 ave         972 max         972 min
Histogram: 1 0 0 0 0 0 0 0 0 0
Nghost:           3683 ave        3683 max        3683 min
Histogram: 1 0 0 0 0 0 0 0 0 0
Neighs:              0 ave           0 max           0 min
Histogram: 1 0 0 0 0 0 0 0 0 0
FullNghs:       131994 ave      131994 max      131994 min
Histogram: 1 0 0 0 0 0 0 0 0 0

Total # of neighbors = 131994
Ave neighs/atom = 135.7963
Neighbor list builds = 6
Dangerous builds = 0

################## equilibration of main calculation
# Equilibrate to specified number of ice

fix             3 all nph tri ${pressure} ${pressure} ${pressureDamp}
fix             3 all nph tri 5000 ${pressure} ${pressureDamp}
fix             3 all nph tri 5000 5000 ${pressureDamp}
fix             3 all nph tri 5000 5000 1
fix             4 all temp/csvr ${temperature} ${temperature} ${tempDamp} ${seed}
fix             4 all temp/csvr 265 ${temperature} ${tempDamp} ${seed}
fix             4 all temp/csvr 265 265 ${tempDamp} ${seed}
fix             4 all temp/csvr 265 265 0.1 ${seed}
fix             4 all temp/csvr 265 265 0.1 56297
velocity 	all create ${temperature} ${seed} dist gaussian
velocity 	all create 265 ${seed} dist gaussian
velocity 	all create 265 56297 dist gaussian

run 200000
WARNING: Fix with atom-based arrays not compatible with Kokkos sorting on device, switching to classic host sorting (src/KOKKOS/atom_kokkos.cpp:216)
Per MPI rank memory allocation (min/avg/max) = 779.6 | 779.6 | 779.6 Mbytes
   Step         TotEng         PotEng         KinEng         Press           Temp          Volume        Density     c_max_pace_gamma
       211  -4665.1234     -4698.384       33.260574     -3771.285       265            8214.7591      1.1798944      7.700355     
       300  -4659.5349     -4675.5066      15.971635     -5365.755       127.25226      8166.442       1.1868753      7.700355     
       400  -4653.4424     -4674.5031      21.060652      753.10878      167.79845      8037.1075      1.2059747      7.700355     
       500  -4647.8998     -4671.8584      23.958555      2898.0643      190.88718      7880.9263      1.2298743      7.700355     
       600  -4643.0903     -4672.0271      28.936756      7661.3549      230.55045      7766.5844      1.2479808      7.700355     
       700  -4641.8459     -4670.3728      28.52684       10714.318      227.28449      7723.6733      1.2549143      7.700355     
       800  -4640.5144     -4669.2861      28.771755      7869.5104      229.23582      7745.9496      1.2513054      7.700355     
       900  -4638.04       -4668.6386      30.598615      9554.1389      243.79113      7815.6737      1.2401424      7.700355     
      1000  -4636.9159     -4667.8591      30.943226      5217.3531      246.53678      7904.8723      1.2261486      0.64181944   
      1100  -4635.6982     -4666.7297      31.031435      3549.2381      247.23958      7991.7214      1.2128236      0.64181944   
      1200  -4634.5735     -4666.5917      32.018199      5899.1526      255.10151      8056.7575      1.2030334      0.64181944   
      1300  -4635.4509     -4666.3503      30.899347      315.82799      246.18718      8094.1744      1.1974721      0.64181944   
      1400  -4635.6959     -4667.1801      31.484237      879.07687      250.84723      8098.3771      1.1968507      0.64181944   
      1500  -4636.0333     -4666.8935      30.860175      4544.1578      245.87508      8074.041       1.2004582      0.64181944   
      1600  -4635.8581     -4666.2108      30.352738      3455.0848      241.83213      8031.6693      1.2067913      0.64181944   
      1700  -4633.3105     -4665.0338      31.723229      4522.6391      252.75137      7983.2318      1.2141134      0.64181944   
      1800  -4632.9259     -4665.8947      32.968866      6644.7273      262.67585      7943.102       1.2202473      0.64181944   
      1900  -4633.0069     -4666.6769      33.67002       7879.9285      268.26222      7920.7731      1.2236872      0.64181944   
      2000  -4634.0848     -4666.8481      32.763237      7633.7794      261.03752      7922.331       1.2234465      0.61683551   
      2100  -4633.4646     -4666.1621      32.697489      7954.6702      260.51368      7943.9385      1.2201188      0.61683551   
      2200  -4632.0859     -4664.3298      32.243889      3080.9963      256.89967      7977.2533      1.2150233      0.61683551   
      2300  -4632.5394     -4665.294       32.754565      6165.6516      260.96843      8012.3607      1.2096995      0.61683551   
      2400  -4632.5315     -4665.9163      33.384813      4890.2115      265.98986      8040.4571      1.2054723      0.61683551   
      2500  -4632.2349     -4665.0464      32.811564      5254.289       261.42256      8056.7802      1.20303        0.61683551   
      2600  -4632.4839     -4665.1585      32.674539      4527.6967      260.33082      8059.6368      1.2026036      0.61683551   
      2700  -4631.3789     -4664.5948      33.215909      870.52763      264.64413      8045.348       1.2047395      0.61683551   
      2800  -4631.659      -4665.4831      33.824108      2127.1788      269.48989      8019.7311      1.2085877      0.61683551   
      2900  -4631.1415     -4664.2899      33.148347      6641.1128      264.10584      7984.5288      1.2139161      0.61683551   
      3000  -4630.4419     -4664.0543      33.612422      5551.0515      267.80331      7950.5733      1.2191006      0.77232212   
      3100  -4630.0407     -4664.8272      34.786483      6490.9677      277.15752      7930.3186      1.2222143      0.77232212   
      3200  -4631.7579     -4666.1507      34.392848      6317.8078      274.02127      7932.4733      1.2218823      0.77232212   
      3300  -4632.1668     -4664.2132      32.046411      5746.102       255.32629      7954.1728      1.2185489      0.77232212   
      3400  -4632.503      -4665.8437      33.340737      3830.5628      265.63869      7991.9473      1.2127893      0.77232212   
      3500  -4630.5831     -4664.9327      34.349642      3313.5982      273.67703      8031.4107      1.2068301      0.77232212   
      3600  -4631.0805     -4663.8896      32.809128      1978.9701      261.40316      8063.3918      1.2020436      0.77232212   
      3700  -4632.0261     -4665.3125      33.286433      4361.1382      265.20603      8080.9317      1.1994345      0.77232212   
      3800  -4632.326      -4666.3927      34.066647      4000.7276      271.4223       8077.445       1.1999523      0.77232212   
      3900  -4632.8683     -4665.5752      32.706893      3517.2298      260.5886       8055.437       1.2032306      0.77232212   
      4000  -4630.6539     -4664.0852      33.431316      2624.0357      266.36037      8019.4711      1.2086269      0.74657203   
      4100  -4631.2347     -4664.8011      33.566363      6352.6722      267.43634      7977.3826      1.2150036      0.74657203   
      4200  -4630.5528     -4664.0323      33.479504      8083.9809      266.7443       7938.2636      1.220991       0.74657203   
      4300  -4630.6219     -4665.1738      34.551893      6143.8831      275.28844      7916.474       1.2243517      0.74657203   
      4400  -4629.5557     -4663.8114      34.255764      7874.0987      272.92907      7915.2046      1.2245481      0.74657203   
      4500  -4629.526      -4663.1654      33.639349      7827.0993      268.01784      7942.5488      1.2203323      0.74657203   
      4600  -4630.4907     -4664.9257      34.435041      5011.1405      274.35743      7997.0057      1.2120222      0.74657203   
      4700  -4630.9462     -4663.1396      32.193354      3316.7458      256.49704      8058.8185      1.2027257      0.74657203   
      4800  -4630.6584     -4665.2628      34.604422      2459.1485      275.70696      8111.8732      1.1948595      0.74657203   
      4900  -4632.3201     -4664.2842      31.964035      5468.3227      254.66996      8138.4489      1.1909577      0.74657203   
      5000  -4631.0396     -4664.7104      33.670719      3634.1945      268.26778      8129.2519      1.1923051      0.68222036   
      5100  -4630.8554     -4663.3899      32.534501      2487.0345      259.21509      8082.0353      1.1992707      0.68222036   
      5200  -4630.9623     -4664.6171      33.654867      4464.3484      268.14148      8006.5371      1.2105793      0.68222036   
      5300  -4631.049      -4665.0729      34.023818      7283.9786      271.08106      7920.8958      1.2236682      0.68222036   
      5400  -4631.2186     -4664.5011      33.282545      9479.7178      265.17505      7851.8626      1.2344266      0.68222036   
      5500  -4630.5823     -4663.4738      32.891443      8809.3495      262.05898      7821.9656      1.2391449      0.68222036   
      5600  -4630.7673     -4665.46        34.692704      8147.0724      276.41034      7839.5375      1.2363674      0.68222036   
      5700  -4632.2213     -4665.214       32.992683      6834.1544      262.86561      7900.5678      1.2268167      0.68222036   
      5800  -4631.6705     -4663.9528      32.282347      5785.2338      257.20608      7983.1246      1.2141297      0.68222036   
      5900  -4632.2526     -4664.3703      32.117673      1998.5949      255.89406      8066.353       1.2016023      0.68222036   
      6000  -4631.7439     -4665.1767      33.4328        5251.2235      266.37219      8123.2656      1.1931837      0.66172601   
      6100  -4631.9667     -4664.2601      32.293327     -757.00116      257.29356      8140.1461      1.1907094      0.66172601   
      6200  -4632.5006     -4665.3685      32.86787       204.02307      261.87117      8116.2989      1.1942079      0.66172601   
      6300  -4630.516      -4664.2054      33.689375      3033.0304      268.41642      8061.2182      1.2023677      0.66172601   
      6400  -4630.9184     -4665.0618      34.143344      4295.2393      272.03337      7993.9316      1.2124883      0.66172601   
      6500  -4630.7436     -4664.2503      33.506699      3919.6151      266.96097      7935.6952      1.2213862      0.66172601   
      6600  -4630.0781     -4663.8619      33.783734      10399.897      269.16821      7901.5046      1.2266712      0.66172601   
      6700  -4630.1917     -4663.9936      33.801947      6687.7776      269.31333      7898.9757      1.227064       0.66172601   
      6800  -4630.5237     -4663.6541      33.130474      4668.6969      263.96344      7922.5497      1.2234128      0.66172601   
      6900  -4630.9672     -4664.7666      33.799348      5485.4126      269.29262      7967.6818      1.2164829      0.66172601   
      7000  -4631.9029     -4664.772       32.869122      6109.8954      261.88115      8017.9321      1.2088589      0.6637927    
      7100  -4632.7993     -4665.465       32.665747      1250.4356      260.26078      8060.7214      1.2024418      0.6637927    
      7200  -4630.7055     -4663.0763      32.370784      2863.2474      257.9107       8085.2288      1.198797       0.6637927    
      7300  -4631.208      -4663.6395      32.431496      4797.5838      258.39441      8090.0711      1.1980795      0.6637927    
      7400  -4631.1488     -4664.9311      33.782239      2918.7443      269.15631      8076.51        1.2000912      0.6637927    
      7500  -4630.7368     -4663.8456      33.10876       9191.7845      263.79043      8044.957       1.204798       0.6637927    
      7600  -4630.5803     -4664.516       33.935707      6473.2135      270.37905      8005.5146      1.210734       0.6637927    
      7700  -4629.429      -4664.1662      34.737153      4317.9216      276.76448      7971.3238      1.2159271      0.6637927    
      7800  -4631.0903     -4664.1484      33.058053      7580.201       263.38643      7949.4023      1.2192801      0.6637927    
      7900  -4631.1495     -4665.0247      33.875191      6110.8358      269.89689      7944.7471      1.2199946      0.6637927    
      8000  -4630.4458     -4664.7848      34.338965      5420.4743      273.59196      7955.6744      1.2183189      0.65908405   
      8100  -4630.1056     -4665.4919      35.386274      4126.6275      281.93628      7984.8166      1.2138724      0.65908405   
      8200  -4631.2696     -4663.5764      32.306843      4026.8065      257.40125      8018.9911      1.2086992      0.65908405   
      8300  -4631.979      -4664.5504      32.57144       1231.103       259.5094       8047.2828      1.2044498      0.65908405   
      8400  -4631.683      -4664.3933      32.710276      2852.4054      260.61556      8062.616       1.2021593      0.65908405   
      8500  -4631.7064     -4664.2914      32.584993      3942.9589      259.61738      8060.0755      1.2025382      0.65908405   
      8600  -4630.6998     -4664.055       33.355235      3855.4573      265.7542       8038.6341      1.2057457      0.65908405   
      8700  -4630.1175     -4663.9274      33.809844      6475.7368      269.37625      8006.4498      1.2105925      0.65908405   
      8800  -4630.883      -4664.1692      33.286225      5424.6031      265.20437      7974.433       1.215453       0.65908405   
      8900  -4631.1301     -4664.382       33.251909      6473.1559      264.93096      7946.8334      1.2196743      0.65908405   
      9000  -4633.1767     -4666.0469      32.870203      8387.6657      261.88976      7932.1673      1.2219294      0.71012886   
      9100  -4633.6898     -4666.118       32.428253      5887.5055      258.36857      7932.861       1.2218225      0.71012886   
      9200  -4632.8375     -4664.5637      31.726183      6445.0583      252.7749       7949.9014      1.2192036      0.71012886   
      9300  -4632.44       -4665.7317      33.291657      4684.6438      265.24765      7980.9661      1.214458       0.71012886   
      9400  -4633.0128     -4666.0554      33.042552      6679.3587      263.26294      8021.6526      1.2082982      0.71012886   
      9500  -4632.7328     -4665.1552      32.422447      3918.1891      258.32231      8053.8976      1.2034606      0.71012886   
      9600  -4631.8184     -4665.9651      34.146741      3348.949       272.06043      8070.5453      1.2009781      0.71012886   
      9700  -4633.415      -4665.4713      32.056325      3448.7976      255.40528      8063.7785      1.2019859      0.71012886   
      9800  -4633.5844     -4665.0989      31.514453      2649.1273      251.08797      8040.2046      1.2055102      0.71012886   
      9900  -4632.9815     -4665.5035      32.521986      6386.7341      259.11538      8001.622       1.211323       0.71012886   
     10000  -4632.5104     -4665.9416      33.431122      7828.4515      266.35882      7960.3959      1.2175963      0.65494755   
     10100  -4632.8112     -4664.894       32.082801      5806.8278      255.61622      7928.1342      1.222551       0.65494755   
     10200  -4632.8088     -4664.6939      31.885128      6398.3798      254.04129      7913.7695      1.2247701      0.65494755   
     10300  -4631.7043     -4665.6495      33.945153      3811.3442      270.45431      7921.0522      1.223644       0.65494755   
     10400  -4631.1622     -4664.7139      33.551631      4050.6905      267.31897      7948.471       1.219423       0.65494755   
     10500  -4631.8662     -4664.214       32.347804      3760.3312      257.7276       7989.8339      1.2131101      0.65494755   
     10600  -4632.7912     -4665.3927      32.601487      2731.7476      259.74879      8035.832       1.2061661      0.65494755   
     10700  -4634.0989     -4666.2393      32.140405      2347.2788      256.07518      8070.9147      1.2009232      0.65494755   
     10800  -4634.5772     -4665.9927      31.415518      3969.5198      250.29972      8082.7977      1.1991576      0.65494755   
     10900  -4633.0306     -4665.4293      32.398712      3237.1953      258.13321      8070.8311      1.2009356      0.65494755   
     11000  -4631.9216     -4664.4048      32.483218      1628.3178      258.8065       8041.7432      1.2052795      0.66299379   
     11100  -4631.2339     -4665.137       33.903044      4502.362       270.11881      8006.2111      1.2106286      0.66299379   
     11200  -4631.5406     -4665.251       33.710377      7453.6059      268.58375      7970.6224      1.2160341      0.66299379   
     11300  -4630.04       -4663.3697      33.329704      4515.7094      265.55078      7945.8154      1.2198306      0.66299379   
     11400  -4630.981      -4664.8553      33.874273      6631.2544      269.88958      7939.2814      1.2208345      0.66299379   
     11500  -4630.3862     -4662.8512      32.464991      4629.104       258.66128      7953.5446      1.2186451      0.66299379   
     11600  -4631.1289     -4665.3118      34.182896      5898.323       272.3485       7986.2926      1.213648       0.66299379   
     11700  -4630.2347     -4664.5364      34.301693      8014.4947      273.295        8026.9971      1.2074937      0.66299379   
     11800  -4631.461      -4665.3172      33.856271      3109.9905      269.74615      8064.5702      1.2018679      0.66299379   
     11900  -4631.4438     -4664.461       33.017127      841.11924      263.06036      8084.967       1.1988359      0.66299379   
     12000  -4632.83       -4665.8744      33.044434      3915.2109      263.27793      8082.9443      1.1991359      0.63718099   
     12100  -4632.9172     -4665.6477      32.730501      3810.1658      260.7767       8057.9212      1.2028597      0.63718099   
     12200  -4632.2711     -4664.7123      32.441224      3059.0411      258.47191      8014.5454      1.2093697      0.63718099   
     12300  -4631.7865     -4663.6088      31.822318      5373.4508      253.54085      7965.9139      1.2167528      0.63718099   
     12400  -4631.4758     -4664.4165      32.940747      8551.5979      262.45181      7927.7683      1.2226074      0.63718099   
     12500  -4632.397      -4665.1972      32.800189      6011.1059      261.33193      7910.6912      1.2252467      0.63718099   
     12600  -4632.6636     -4665.8984      33.234826      6525.5913      264.79485      7918.0192      1.2241128      0.63718099   
     12700  -4633.692      -4666.3289      32.636889      7547.8762      260.03086      7941.8661      1.2204371      0.63718099   
     12800  -4632.6046     -4664.9113      32.306723      8430.3164      257.40029      7975.3286      1.2153165      0.63718099   
     12900  -4633.4134     -4665.9301      32.516746      6071.8017      259.07363      8012.9737      1.2096069      0.63718099   
     13000  -4633.0193     -4665.5671      32.547718      716.26907      259.32039      8043.2108      1.2050596      0.65814757   
     13100  -4632.823      -4666.2074      33.384346      3742.3685      265.98614      8056.2415      1.2031105      0.65814757   
     13200  -4631.6067     -4665.8643      34.257669      2849.6471      272.94424      8050.8854      1.2039109      0.65814757   
     13300  -4630.6863     -4663.6449      32.958551      6328.4478      262.59367      8030.2159      1.2070097      0.65814757   
     13400  -4630.0485     -4663.7335      33.684996      6179.3835      268.38153      8006.2637      1.2106207      0.65814757   
     13500  -4630.0788     -4664.4341      34.355253      6053.1322      273.72173      7983.8413      1.2140207      0.65814757   
     13600  -4630.8067     -4665.6012      34.794458      6187.9253      277.22105      7966.8486      1.2166101      0.65814757   
     13700  -4630.9602     -4663.9967      33.036576      7482.9193      263.21532      7960.7113      1.217548       0.65814757   
     13800  -4630.3051     -4664.0549      33.749794      7184.662       268.8978       7970.4437      1.2160613      0.65814757   
     13900  -4630.2648     -4665.3074      35.042615      4868.4118      279.19821      7994.0527      1.2124699      0.65814757   
     14000  -4630.3247     -4664.5675      34.242788      2855.8814      272.82568      8024.5327      1.2078645      0.63409218   
     14100  -4631.0477     -4664.87        33.82227       1601.1785      269.47525      8053.2523      1.203557       0.63409218   
     14200  -4629.7234     -4664.2147      34.491293      3502.3656      274.80562      8070.3601      1.2010057      0.63409218   
     14300  -4630.0312     -4664.1199      34.088704     -757.86522      271.59803      8075.4155      1.2002538      0.63409218   
     14400  -4630.2298     -4663.6346      33.404827      4610.9251      266.14932      8065.0312      1.2017992      0.63409218   
     14500  -4630.8268     -4666.1376      35.310771      3675.4651      281.33472      8040.1724      1.205515       0.63409218   
     14600  -4628.4832     -4663.5698      35.086537      6244.9548      279.54816      8005.28        1.2107694      0.63409218   
     14700  -4627.2131     -4662.5392      35.326093      7516.9543      281.4568       7969.7995      1.2161596      0.63409218   
     14800  -4627.5002     -4663.069       35.568789      6687.5003      283.39045      7946.0566      1.2197935      0.63409218   
     14900  -4627.2504     -4662.9223      35.67183       5542.3715      284.21142      7941.1194      1.2205519      0.63409218   
     15000  -4629.0746     -4664.1962      35.121515      5798.067       279.82684      7956.3979      1.2182081      0.71899411   
     15100  -4630.1462     -4663.8884      33.742173      3631.9744      268.83708      7981.7169      1.2143438      0.71899411   
     15200  -4631.2443     -4664.6547      33.410372      5954.2721      266.1935       8006.94        1.2105184      0.71899411   
     15300  -4632.0622     -4664.0831      32.020906      3856.6857      255.12308      8027.6206      1.2073999      0.71899411   
     15400  -4631.6914     -4665.2582      33.5668        4651.3225      267.43982      8036.5174      1.2060633      0.71899411   
     15500  -4632.6024     -4665.4079      32.805472      3758.4915      261.37402      8029.9494      1.2070498      0.71899411   
     15600  -4631.8945     -4664.9206      33.026103      5085.3745      263.13188      8007.3113      1.2104623      0.71899411   
     15700  -4631.5889     -4665.5396      33.950709      4726.6941      270.49858      7975.7525      1.2152519      0.71899411   
     15800  -4632.4567     -4665.5177      33.06103       4382.0331      263.41015      7947.6926      1.2195424      0.71899411   
     15900  -4631.8795     -4664.6632      32.783703      5327.2383      261.20058      7927.6998      1.222618       0.71899411   
     16000  -4631.4882     -4664.5167      33.028515      4360.0641      263.1511       7920.6158      1.2237115      0.74300032   
     16100  -4631.2906     -4664.7974      33.506798      5149.7788      266.96176      7930.417       1.2221991      0.74300032   
     16200  -4631.2243     -4664.4698      33.245419      4031.5587      264.87925      7955.7653      1.218305       0.74300032   
     16300  -4630.7993     -4663.3494      32.550124      5618.4867      259.33956      7992.1095      1.2127647      0.74300032   
     16400  -4631.337      -4665.0787      33.741662      1863.7798      268.83302      8029.0959      1.2071781      0.74300032   
     16500  -4631.6537     -4663.9465      32.292789      2050.1269      257.28928      8056.7594      1.2030331      0.74300032   
     16600  -4631.2434     -4665.1274      33.884053      3645.2831      269.9675       8071.7967      1.2007919      0.74300032   
     16700  -4630.6696     -4663.1388      32.46925       4578.3952      258.69521      8068.1599      1.2013332      0.74300032   
     16800  -4630.4166     -4664.3399      33.923344      4432.2575      270.28054      8045.1795      1.2047647      0.74300032   
     16900  -4630.4028     -4663.1394      32.736593      5982.3432      260.82523      8005.4832      1.2107387      0.74300032   
     17000  -4630.3822     -4663.3355      32.953282      3972.952       262.55168      7961.9282      1.2173619      0.65131072   
     17100  -4631.183      -4665.5317      34.348775      7386.528       273.67012      7925.6103      1.2229403      0.65131072   
     17200  -4629.5446     -4664.4297      34.885089      7014.4889      277.94314      7905.1869      1.2260998      0.65131072   
     17300  -4629.762      -4663.9226      34.160584      13221.673      272.17073      7908.7037      1.2255546      0.65131072   
     17400  -4630.395      -4664.7177      34.322744      6761.9979      273.46272      7936.1845      1.2213109      0.65131072   
     17500  -4631.5449     -4665.5328      33.987869      4211.1901      270.79464      7973.8303      1.2155449      0.65131072   
     17600  -4630.9333     -4664.9904      34.057007      5643.9623      271.34549      8009.0934      1.210193       0.65131072   
     17700  -4630.7459     -4663.0358      32.289934      3579.764       257.26653      8034.556       1.2063577      0.65131072   
     17800  -4630.9329     -4664.1226      33.189695      4933.0753      264.43528      8048.1671      1.2043175      0.65131072   
     17900  -4630.7272     -4664.2871      33.559864      3299.0886      267.38456      8046.3875      1.2045838      0.65131072   
     18000  -4630.4851     -4664.0701      33.585014      5971.2384      267.58494      8031.4841      1.2068191      0.67506049   
     18100  -4630.051      -4662.7645      32.713537      6326.7873      260.64154      8008.8501      1.2102297      0.67506049   
     18200  -4630.4444     -4664.5684      34.124032      3557.4042      271.87951      7985.4331      1.2137787      0.67506049   
     18300  -4631.2737     -4665.5995      34.32573       7015.8162      273.48651      7964.3832      1.2169867      0.67506049   
     18400  -4632.062      -4665.9972      33.935146      5675.958       270.37458      7951.8151      1.2189102      0.67506049   
     18500  -4631.3851     -4664.223       32.837936      6744.1729      261.63268      7949.8841      1.2192063      0.67506049   
     18600  -4631.3103     -4664.4526      33.142352      5639.8699      264.05808      7957.7314      1.218004       0.67506049   
     18700  -4631.9605     -4665.0505      33.089982      5386.6403      263.64082      7973.5499      1.2155876      0.67506049   
     18800  -4630.8552     -4665.0288      34.173666      3334.8673      272.27496      7991.557       1.2128486      0.67506049   
     18900  -4630.5876     -4663.5848      32.997278      5418.173       262.90221      8009.544       1.2101249      0.67506049   
     19000  -4630.5916     -4664.7075      34.115934      2540.2721      271.81498      8027.5799      1.207406       0.62931234   
     19100  -4631.6452     -4664.9484      33.303256      2579.6907      265.34006      8039.6001      1.2056008      0.62931234   
     19200  -4631.6201     -4665.9192      34.299056      532.09464      273.27399      8037.813       1.2058689      0.62931234   
     19300  -4630.8843     -4664.6415      33.757209      2201.0933      268.95688      8020.3708      1.2084913      0.62931234   
     19400  -4632.5553     -4664.9404      32.385102      1810.0641      258.02477      7997.2271      1.2119886      0.62931234   
     19500  -4633.0323     -4665.4621      32.429781      6462.6597      258.38075      7968.6461      1.2163357      0.62931234   
     19600  -4633.1842     -4665.3823      32.198112      7448.1986      256.53495      7939.3702      1.2208208      0.62931234   
     19700  -4632.7481     -4666.1874      33.439236      6018.3946      266.42347      7923.3386      1.223291       0.62931234   
     19800  -4634.0511     -4666.3426      32.291542      6977.8641      257.27934      7921.7695      1.2235333      0.62931234   
     19900  -4634.419      -4666.6352      32.216248      7838.5953      256.67945      7931.2792      1.2220662      0.62931234   
     20000  -4632.6966     -4665.9271      33.230459      5092.0511      264.76006      7948.1455      1.219473       0.74066441   
     20100  -4631.883      -4665.4945      33.611557      9590.5153      267.79642      7971.8008      1.2158543      0.74066441   
     20200  -4631.9706     -4664.2501      32.279479      4058.7497      257.18323      7998.6862      1.2117675      0.74066441   
     20300  -4632.971      -4667.1284      34.157452      2977.2561      272.14578      8023.8397      1.2079688      0.74066441   
     20400  -4633.8649     -4666.9547      33.089813      6142.3376      263.63948      8038.6122      1.205749       0.74066441   
     20500  -4632.7073     -4665.3677      32.660373      2168.3863      260.21796      8032.8761      1.20661        0.74066441   
     20600  -4631.7953     -4664.7762      32.980957      4221.7499      262.77218      8008.8615      1.210228       0.74066441   
     20700  -4632.2477     -4664.6597      32.412001      7033.7511      258.23909      7972.0668      1.2158137      0.74066441   
     20800  -4632.7853     -4665.5616      32.776306      5012.9938      261.14164      7935.0553      1.2214847      0.74066441   
     20900  -4631.4747     -4666.2884      34.81367       6388.2132      277.37412      7909.4659      1.2254365      0.74066441   
     21000  -4631.7489     -4664.6446      32.895727      7913.1804      262.09312      7902.0042      1.2265937      0.6684481    
     21100  -4630.8887     -4664.6431      33.754398      9514.5976      268.93449      7916.3703      1.2243677      0.6684481    
     21200  -4629.1105     -4663.2929      34.182398      6764.192       272.34453      7947.937       1.2195049      0.6684481    
     21300  -4629.7032     -4663.668       33.964804      7481.7623      270.61088      7993.3801      1.2125719      0.6684481    
     21400  -4629.3652     -4663.1994      33.83423       4249.1132      269.57054      8041.3847      1.2053333      0.6684481    
     21500  -4628.8432     -4663.6482      34.80503       4296.1629      277.30529      8080.0775      1.1995613      0.6684481    
     21600  -4628.276      -4664.7099      36.433982      2024.1684      290.28378      8098.7468      1.1967961      0.6684481    
     21700  -4628.2459     -4661.8969      33.651019      3229.6215      268.11083      8085.4319      1.1987669      0.6684481    
     21800  -4628.7928     -4664.4403      35.647519      6289.2906      284.01772      8046.9258      1.2045033      0.6684481    
     21900  -4629.0528     -4663.175       34.12229       4083.2364      271.86563      7992.1546      1.2127579      0.6684481    
     22000  -4629.1666     -4663.8619      34.695313      5266.8368      276.43113      7937.4296      1.2211193      0.62554361   
     22100  -4627.8832     -4663.6269      35.743766      10441.337      284.78456      7895.1059      1.2276654      0.62554361   
     22200  -4630.7502     -4664.2011      33.450997      5363.8746      266.51717      7879.7666      1.2300553      0.62554361   
     22300  -4630.7176     -4664.6201      33.902513      2764.844       270.11458      7896.0765      1.2275145      0.62554361   
     22400  -4631.1742     -4663.9691      32.794871      6296.7698      261.28956      7936.3457      1.2212861      0.62554361   
     22500  -4630.1888     -4665.0498      34.861075      5357.4288      277.75182      7989.7798      1.2131183      0.62554361   
     22600  -4629.2381     -4663.5352      34.297052      3510.2318      273.25802      8041.9625      1.2052467      0.62554361   
     22700  -4628.8469     -4662.0949      33.247984      4744.4571      264.89969      8086.9714      1.1985387      0.62554361   
     22800  -4631.689      -4664.0599      32.370946      4488.5921      257.91199      8110.3659      1.1950815      0.62554361   
     22900  -4631.7998     -4664.0992      32.299411      2728.2843      257.34204      8104.1866      1.1959928      0.62554361   
     23000  -4630.6052     -4664.2591      33.653887     -1508.4257      268.13368      8070.4436      1.2009933      0.69097327   
     23100  -4630.3453     -4663.7266      33.381293      3148.1263      265.96181      8021.0319      1.2083917      0.69097327   
     23200  -4629.9342     -4664.8824      34.948202      6365.9505      278.44599      7970.852       1.2159991      0.69097327   
     23300  -4629.6633     -4663.3488      33.685437      5959.05        268.38505      7932.0576      1.2219463      0.69097327   
     23400  -4629.7151     -4663.6927      33.977596      5503.8747      270.71279      7916.8686      1.2242907      0.69097327   
     23500  -4629.9594     -4664.0461      34.086699      5530.4116      271.58206      7923.967       1.2231939      0.69097327   
     23600  -4630.3824     -4663.2303      32.847921      4580.0778      261.71223      7948.9396      1.2193511      0.69097327   
     23700  -4631.932      -4665.2762      33.344126      2695.1203      265.66569      7983.6656      1.2140474      0.69097327   
     23800  -4631.8676     -4664.852       32.9844       -513.79324      262.79961      8019.7366      1.2085869      0.69097327   
     23900  -4631.2527     -4665.0088      33.75607       1886.9547      268.94781      8048.2219      1.2043093      0.69097327   
     24000  -4630.8159     -4663.6348      32.818932      7196.9181      261.48126      8064.7375      1.201843       0.66608781   
     24100  -4630.2756     -4664.7272      34.451647      5117.6697      274.48974      8067.5856      1.2014187      0.66608781   
     24200  -4630.9302     -4663.1813      32.251017      5356.6654      256.95646      8057.3897      1.202939       0.66608781   
     24300  -4630.1064     -4662.5945      32.488068      6781.3612      258.84514      8034.1091      1.2064248      0.66608781   
     24400  -4630.7551     -4664.3933      33.638172      3461.6575      268.00847      8004.7502      1.2108496      0.66608781   
     24500  -4631.6444     -4665.8035      34.15908       5144.6471      272.15875      7980.7326      1.2144936      0.66608781   
     24600  -4632.1979     -4664.0922      31.894249      6236.0366      254.11396      7965.2733      1.2168507      0.66608781   
     24700  -4633.0362     -4666.9717      33.935459      5514.1485      270.37707      7959.9061      1.2176712      0.66608781   
     24800  -4632.9389     -4664.8722      31.933324      6881.4372      254.42528      7962.6795      1.2172471      0.66608781   
     24900  -4632.3267     -4666.276       33.949298      9579.4147      270.48733      7975.9427      1.2152229      0.66608781   
     25000  -4630.9776     -4665.8539      34.876322      7907.6305      277.87329      8000.7185      1.2114597      0.6567326    
     25100  -4631.4585     -4665.0561      33.597606      3265.7912      267.68527      8032.3541      1.2066884      0.6567326    
     25200  -4629.8491     -4664.5388      34.689719      7410.3551      276.38655      8061.8489      1.2022736      0.6567326    
     25300  -4629.7508     -4663.9869      34.236148      7388.4339      272.77278      8084.4094      1.1989186      0.6567326    
     25400  -4629.616      -4664.0944      34.478397      4569.1371      274.70287      8093.4606      1.1975778      0.6567326    
     25500  -4631.0753     -4665.1839      34.108599      4005.4603      271.75654      8084.9386      1.1988401      0.6567326    
     25600  -4631.127      -4663.6168      32.489733      3653.8262      258.8584       8058.5405      1.2027672      0.6567326    
     25700  -4632.4438     -4665.3106      32.866767      2446.7372      261.86238      8019.1165      1.2086803      0.6567326    
     25800  -4632.7851     -4665.5027      32.71764       5919.0034      260.67423      7972.5775      1.2157359      0.6567326    
     25900  -4632.5726     -4665.0263      32.453675      6370.8913      258.57112      7930.1347      1.2222426      0.6567326    
     26000  -4632.158      -4664.6432      32.485256      9289.7669      258.82273      7901.828       1.226621       0.70241272   
     26100  -4631.1674     -4664.4481      33.280718      7961.032       265.16049      7896.914       1.2273843      0.70241272   
     26200  -4630.5417     -4663.5481      33.006391      5588.0177      262.97482      7919.9197      1.223819       0.70241272   
     26300  -4631.215      -4664.8871      33.672103      5854.7854      268.27881      7968.4084      1.216372       0.70241272   
     26400  -4631.2239     -4665.3146      34.090654      3847.9825      271.61357      8029.4138      1.2071303      0.70241272   
     26500  -4631.0407     -4663.7781      32.737356      2321.8868      260.83131      8087.993       1.1983873      0.70241272   
     26600  -4630.5579     -4664.7136      34.155729      3742.2302      272.13205      8127.5594      1.1925534      0.70241272   
     26700  -4630.1343     -4664.4284      34.294059      4645.6561      273.23418      8139.4613      1.1908096      0.70241272   
     26800  -4629.909      -4664.1957      34.286763      1145.975       273.17604      8119.651       1.1937149      0.70241272   
     26900  -4629.7858     -4663.4826      33.69683       2329.3286      268.47582      8072.5092      1.200686       0.70241272   
     27000  -4630.1209     -4664.421       34.300149      7235.8316      273.2827       8013.1432      1.2095813      0.67900852   
     27100  -4631.5384     -4665.9304      34.391977      5925.9471      274.01433      7958.4775      1.2178898      0.67900852   
     27200  -4632.6426     -4664.6561      32.013481      7189.7091      255.06392      7921.7698      1.2235332      0.67900852   
     27300  -4632.4511     -4666.0294      33.578292      6225.7208      267.53138      7909.4891      1.2254329      0.67900852   
     27400  -4633.1928     -4665.3024      32.109575      7841.0749      255.82954      7922.1027      1.2234818      0.67900852   
     27500  -4631.9685     -4665.4877      33.519236      8909.1346      267.06086      7955.7035      1.2183144      0.67900852   
     27600  -4630.5268     -4664.3129      33.786095      5435.3857      269.18703      8002.2509      1.2112278      0.67900852   
     27700  -4630.7552     -4665.0158      34.26063       5404.7396      272.96784      8054.3769      1.203389       0.67900852   
     27800  -4630.4607     -4664.0093      33.548633      3452.3049      267.29507      8096.7275      1.1970946      0.67900852   
     27900  -4630.4372     -4664.3215      33.884302      2909.1329      269.96948      8115.7667      1.1942862      0.67900852   
     28000  -4629.9522     -4663.5589      33.606619      2420.2828      267.75708      8108.6178      1.1953392      0.64552407   
     28100  -4630.3427     -4664.3731      34.030408      5749.1209      271.13357      8078.3123      1.1998234      0.64552407   
     28200  -4631.3691     -4664.582       33.212828      4018.5001      264.61959      8035.6211      1.2061978      0.64552407   
     28300  -4631.5691     -4664.9707      33.401622      3589.8515      266.12379      7991.3078      1.2128864      0.64552407   
     28400  -4630.7887     -4665.1686      34.379866      8206.412       273.91783      7952.0776      1.2188699      0.64552407   
     28500  -4630.3905     -4664.9085      34.518032      5306.196       275.01865      7928.0816      1.2225591      0.64552407   
     28600  -4630.9705     -4663.8699      32.899459      6319.4616      262.12285      7924.2675      1.2231476      0.64552407   
     28700  -4631.4743     -4664.3027      32.828374      7056.5663      261.55649      7944.5577      1.2200237      0.64552407   
     28800  -4631.8593     -4664.8265      32.967173      4790.47        262.66236      7980.1478      1.2145826      0.64552407   
     28900  -4632.3583     -4664.6225      32.264173      3226.7227      257.06129      8021.8364      1.2082705      0.64552407   
     29000  -4633.0972     -4664.742       31.644807      2562.7449      252.12655      8056.6114      1.2030552      0.66972097   
     29100  -4633.7475     -4665.1479      31.400369      5180.7273      250.17902      8078.4832      1.1997981      0.66972097   
     29200  -4633.6656     -4665.8319      32.16629       4963.2231      256.28141      8082.3676      1.1992214      0.66972097   
     29300  -4631.6559     -4664.8597      33.203794      3882.6474      264.54761      8069.6713      1.2011082      0.66972097   
     29400  -4632.1982     -4665.2471      33.048908      6433.0351      263.31357      8045.4521      1.2047239      0.66972097   
     29500  -4632.6291     -4665.4743      32.845229      4992.1913      261.69078      8017.5259      1.2089201      0.66972097   
     29600  -4631.5732     -4665.0891      33.515877      6363.5522      267.0341       7990.2039      1.213054       0.66972097   
     29700  -4632.4134     -4664.5611      32.147766      4209.0503      256.13382      7972.8355      1.2156965      0.66972097   
     29800  -4634.2212     -4666.5823      32.361114      5087.012       257.83365      7968.9918      1.2162829      0.66972097   
     29900  -4633.2348     -4665.8716      32.63678       7004.6338      260.02998      7977.7715      1.2149444      0.66972097   
     30000  -4632.8276     -4664.647       31.819372      5602.3216      253.51738      7997.5913      1.2119334      0.71932599   
     30100  -4632.4589     -4664.8239      32.364996      6860.4181      257.86457      8021.1838      1.2083688      0.71932599   
     30200  -4633.0267     -4664.9689      31.942207      7171.925       254.49605      8045.4116      1.20473        0.71932599   
     30300  -4633.1953     -4665.405       32.209725      2543.6259      256.62748      8062.3945      1.2021923      0.71932599   
     30400  -4632.6251     -4664.5395      31.914377      3500.1186      254.27432      8063.8348      1.2019775      0.71932599   
     30500  -4631.0474     -4665.1834      34.136082      2191.126       271.97551      8051.3648      1.2038392      0.71932599   
     30600  -4631.2179     -4664.2731      33.055259      6294.7895      263.36417      8028.7605      1.2072285      0.71932599   
     30700  -4631.4019     -4664.2889      32.887054      3722.5132      262.02402      8001.5045      1.2113407      0.71932599   
     30800  -4630.9601     -4664.2431      33.282972      7220.9111      265.17845      7974.6477      1.2154203      0.71932599   
     30900  -4629.1302     -4664.0583      34.92812       6392.4765      278.28599      7955.5802      1.2183333      0.71932599   
     31000  -4629.1771     -4663.3379      34.160818      4308.4068      272.17259      7955.4606      1.2183516      0.67541276   
     31100  -4629.32       -4662.515       33.194941      4497.1808      264.47707      7979.509       1.2146798      0.67541276   
     31200  -4629.1019     -4663.5534      34.451472      6882.8829      274.48835      8019.5126      1.2086206      0.67541276   
     31300  -4628.801      -4664.1745      35.373432      5052.8592      281.83396      8065.386       1.2017464      0.67541276   
     31400  -4629.0591     -4664.6228      35.563634      2501.6667      283.34938      8108.9819      1.1952855      0.67541276   
     31500  -4629.5319     -4663.7635      34.231687     -96.394042      272.73724      8135.5239      1.1913859      0.67541276   
     31600  -4629.6844     -4663.6505      33.966117      2770.1552      270.62134      8139.3038      1.1908326      0.67541276   
     31700  -4629.6303     -4662.9269      33.296564      1761.8094      265.28675      8120.497       1.1935905      0.67541276   
     31800  -4629.4987     -4662.8483      33.349597      4303.9671      265.70928      8081.2398      1.1993888      0.67541276   
     31900  -4629.8616     -4664.6407      34.779064      4183.7146      277.09841      8031.1482      1.2068696      0.67541276   
     32000  -4629.7154     -4664.4234      34.707936      4755.4723      276.53169      7980.2717      1.2145637      0.67627081   
     32100  -4630.1987     -4664.5863      34.387679      4956.326       273.98008      7945.3602      1.2199004      0.67627081   
     32200  -4630.8785     -4664.3357      33.457138      7926.3275      266.5661       7934.3086      1.2215996      0.67627081   
     32300  -4630.0009     -4663.3797      33.378815      1545.8984      265.94207      7945.6848      1.2198506      0.67627081   
     32400  -4630.051      -4664.4209      34.369857      4626.9439      273.83809      7976.738       1.2151018      0.67627081   
     32500  -4632.3137     -4665.6965      33.38281       5409.2006      265.9739       8019.3564      1.2086442      0.67627081   
     32600  -4633.2219     -4665.2538      32.031873      7015.9285      255.21046      8060.416       1.2024874      0.67627081   
     32700  -4633.4933     -4665.2641      31.770788      2797.8076      253.13029      8087.7775      1.1984193      0.67627081   
     32800  -4632.7458     -4664.463       31.71721       1940.6338      252.70341      8087.6832      1.1984332      0.67627081   
     32900  -4632.9035     -4664.6846      31.781116      2087.0435      253.21258      8059.816       1.2025769      0.67627081   
     33000  -4631.4967     -4663.591       32.094245      4725.142       255.7074       8009.837       1.2100806      0.71109303   
     33100  -4630.9447     -4664.1549      33.210258      6102.9232      264.59911      7961.1296      1.2174841      0.71109303   
     33200  -4631.3991     -4665.7827      34.383596      6324.8832      273.94756      7927.6229      1.2226298      0.71109303   
     33300  -4630.928      -4664.0135      33.085444      8050.4926      263.60467      7916.3854      1.2243654      0.71109303   
     33400  -4630.7863     -4663.9143      33.128014      4386.643       263.94384      7933.5449      1.2217172      0.71109303   
     33500  -4630.9228     -4664.1225      33.199655      7765.8337      264.51463      7973.4795      1.2155983      0.71109303   
     33600  -4631.0292     -4664.036       33.00676       5126.9155      262.97776      8019.7088      1.2085911      0.71109303   
     33700  -4632.2023     -4664.983       32.780647      6125.0899      261.17623      8059.9143      1.2025622      0.71109303   
     33800  -4631.3172     -4664.5397      33.222588      1949.9728      264.69735      8083.2959      1.1990837      0.71109303   
     33900  -4631.3949     -4664.5764      33.181539      719.54609      264.37029      8088.1831      1.1983592      0.71109303   
     34000  -4632.2296     -4664.9299      32.700304      4519.6001      260.53611      8073.5211      1.2005355      0.65771923   
     34100  -4632.044      -4665.1801      33.136135      1596.9083      264.00854      8043.5766      1.2050048      0.65771923   
     34200  -4631.325      -4663.9525      32.627544      5250.9395      259.9564       8006.1664      1.2106354      0.65771923   
     34300  -4632.4623     -4664.7777      32.315386      7022.0084      257.46932      7972.0524      1.2158159      0.65771923   
     34400  -4633.7417     -4666.6475      32.905767      8218.562       262.17311      7949.705       1.2192337      0.65771923   
     34500  -4632.318      -4665.0252      32.707117      8540.987       260.59039      7940.9077      1.2205844      0.65771923   
     34600  -4631.9617     -4665.3772      33.415559      4855.3817      266.23482      7951.6062      1.2189422      0.65771923   
     34700  -4631.6122     -4664.9107      33.298518      4926.9009      265.30232      7977.9533      1.2149167      0.65771923   
     34800  -4632.6703     -4665.6941      33.023849      7006.7349      263.11392      8009.6107      1.2101148      0.65771923   
     34900  -4632.7102     -4666.2422      33.531977      4352.2801      267.16238      8037.7049      1.2058851      0.65771923   
     35000  -4632.4484     -4665.6256      33.177132      1963.5808      264.33518      8055.7956      1.2031771      0.68192988   
     35100  -4631.9696     -4664.853       32.883417      978.80737      261.99504      8059.797       1.2025797      0.68192988   
     35200  -4631.5222     -4665.1176      33.595441      5125.3968      267.66801      8049.8302      1.2040687      0.68192988   
     35300  -4631.0102     -4664.6511      33.64088       4410.2857      268.03004      8026.6359      1.207548       0.68192988   
     35400  -4632.5807     -4665.4012      32.820446      4745.2501      261.49333      7994.9229      1.212338       0.68192988   
     35500  -4633.3735     -4665.1418      31.768378      5187.7343      253.11109      7961.7952      1.2173823      0.68192988   
     35600  -4632.9911     -4665.1614      32.170314      4750.4659      256.31347      7934.7165      1.2215368      0.68192988   
     35700  -4632.3192     -4664.4585      32.139266      6795.4595      256.0661       7923.9843      1.2231913      0.68192988   
     35800  -4631.1948     -4665.2884      34.093627      5630.4537      271.63726      7936.626       1.2212429      0.68192988   
     35900  -4631.4435     -4664.9898      33.546226      4230.2213      267.2759       7967.8168      1.2164623      0.68192988   
     36000  -4630.3579     -4664.7946      34.436714      5222.5811      274.37077      8009.7821      1.2100889      0.65814019   
     36100  -4630.9958     -4664.6874      33.69157       2516.176       268.43391      8054.4624      1.2033762      0.65814019   
     36200  -4630.6717     -4664.3999      33.72823       4054.6686      268.72599      8088.2597      1.1983478      0.65814019   
     36300  -4630.6535     -4664.8399      34.186404      1331.0215      272.37645      8102.8824      1.1961853      0.65814019   
     36400  -4630.5717     -4664.496       33.924328      2269.2548      270.28839      8095.8999      1.1972169      0.65814019   
     36500  -4631.2388     -4663.8196      32.580842      1064.8704      259.58431      8072.2384      1.2007262      0.65814019   
     36600  -4631.8798     -4665.2101      33.330331      5337.8691      265.55578      8035.4811      1.2062188      0.65814019   
     36700  -4631.9864     -4665.4429      33.456439      5591.9707      266.56053      7991.4335      1.2128673      0.65814019   
     36800  -4632.1632     -4665.2539      33.090634      7067.8144      263.64602      7952.1604      1.2188573      0.65814019   
     36900  -4632.2593     -4665.1337      32.87437       6866.5314      261.92296      7926.4345      1.2228132      0.65814019   
     37000  -4632.6991     -4664.8499      32.150769      8356.8945      256.15775      7917.3105      1.2242223      0.6332252    
     37100  -4632.5353     -4665.3494      32.814113      8294.3962      261.44287      7929.892       1.22228        0.6332252    
     37200  -4634.1076     -4665.8934      31.785805      7637.7144      253.24994      7958.5747      1.2178749      0.6332252    
     37300  -4633.2221     -4664.9945      31.772456      7478.3956      253.14358      7995.0711      1.2123155      0.6332252    
     37400  -4633.3321     -4666.1079      32.775744      6410.7776      261.13717      8030.368       1.2069868      0.6332252    
     37500  -4633.3497     -4665.3874      32.037688      2936.743       255.25679      8052.211       1.2037127      0.6332252    
     37600  -4632.0785     -4664.9071      32.828591      4426.9899      261.55822      8057.9488      1.2028555      0.6332252    
     37700  -4630.8294     -4665.1636      34.334293      3273.3944      273.55474      8045.4104      1.2047301      0.6332252    
     37800  -4631.8546     -4664.0453      32.190727      4619.8828      256.47611      8020.7887      1.2084283      0.6332252    
     37900  -4632.455      -4665.4391      32.984119      4480.4399      262.79737      7989.4239      1.2131724      0.6332252    
     38000  -4631.8893     -4664.6036      32.714276      5568.5505      260.64743      7960.531       1.2175756      0.67124904   
     38100  -4631.8686     -4663.7684      31.899851      9099.6573      254.15858      7943.704       1.2201548      0.67124904   
     38200  -4632.4064     -4665.527       33.120648      6126.8327      263.88515      7947.5693      1.2195614      0.67124904   
     38300  -4632.5513     -4665.0362      32.484852      5954.0551      258.81952      7967.1298      1.2165672      0.67124904   
     38400  -4631.5205     -4664.7037      33.183143      3529.8529      264.38308      7997.9711      1.2118759      0.67124904   
     38500  -4631.5877     -4665.7192      34.131512      3868.0026      271.9391       8035.7969      1.2061714      0.67124904   
     38600  -4631.1752     -4665.226       34.050796      2301.7332      271.296        8071.069       1.2009002      0.67124904   
     38700  -4631.7205     -4664.7307      33.010197      2806.5456      263.00515      8099.7051      1.1966545      0.67124904   
     38800  -4632.0992     -4664.6707      32.571518      1956.4442      259.51002      8113.3459      1.1946426      0.67124904   
     38900  -4631.1589     -4664.0428      32.883911      3071.6119      261.99898      8105.8999      1.19574        0.67124904   
     39000  -4631.1241     -4664.4312      33.307074      2695.8496      265.37048      8078.4096      1.199809       0.69888444   
     39100  -4630.8199     -4663.3219      32.502008      4609.9955      258.95621      8036.1173      1.2061233      0.69888444   
     39200  -4630.992      -4665.3075      34.315402      5227.3562      273.40423      7990.8279      1.2129592      0.69888444   
     39300  -4630.9405     -4664.4547      33.514251      4494.2887      267.02114      7953.2573      1.2186891      0.69888444   
     39400  -4631.0722     -4665.141       34.06885       3588.2446      271.43985      7933.2356      1.2217649      0.69888444   
     39500  -4631.9784     -4665.2739      33.295545      7262.6704      265.27862      7936.5745      1.2212509      0.69888444   
     39600  -4630.5851     -4664.4173      33.83226       7044.9792      269.55485      7963.5269      1.2171176      0.69888444   
     39700  -4631.1841     -4665.0262      33.842144      4360.3235      269.63359      8006.7146      1.2105525      0.69888444   
     39800  -4630.3684     -4664.7894      34.420978      2133.4155      274.24539      8055.0833      1.2032834      0.69888444   
     39900  -4630.5123     -4663.5512      33.038968      1314.0309      263.23438      8092.8441      1.197669       0.69888444   
     40000  -4630.8125     -4664.0817      33.269186      5642.3896      265.06862      8113.2743      1.1946531      0.67442344   
     40100  -4631.138      -4664.9724      33.834438      5478.145       269.57219      8109.8773      1.1951535      0.67442344   
     40200  -4631.7965     -4664.7655      32.96905       4138.5159      262.67731      8078.0782      1.1998582      0.67442344   
     40300  -4633.2832     -4666.4464      33.163187      6197.3639      264.22408      8026.3911      1.2075849      0.67442344   
     40400  -4632.0411     -4665.0804      33.039382      4914.1838      263.23767      7964.3148      1.2169972      0.67442344   
     40500  -4630.8212     -4663.3752      32.554012      8130.4955      259.37054      7908.9295      1.2255196      0.67442344   
     40600  -4631.2684     -4664.742       33.47354       6938.9453      266.69678      7881.5161      1.2297822      0.67442344   
     40700  -4631.8441     -4663.7395      31.895343      6679.5188      254.12267      7888.5313      1.2286886      0.67442344   
     40800  -4632.8666     -4666.3288      33.462179      5881.8814      266.60626      7929.2346      1.2223813      0.67442344   
     40900  -4633.6968     -4666.4623      32.76556       7088.088       261.05603      7986.7859      1.2135731      0.67442344   
     41000  -4633.1047     -4666.0608      32.956128      5503.8781      262.57436      8046.0712      1.2046312      0.6561964    
     41100  -4632.5207     -4665.488       32.967289      5425.8716      262.66328      8095.2586      1.1973118      0.6561964    
     41200  -4632.9681     -4665.298       32.329898      5760.6521      257.58494      8123.2961      1.1931793      0.6561964    
     41300  -4632.5354     -4665.0245      32.489159      4062.2155      258.85383      8122.3376      1.1933201      0.6561964    
     41400  -4633.2934     -4665.8767      32.583298      3471.2796      259.60388      8092.4251      1.197731       0.6561964    
     41500  -4631.7338     -4664.5958      32.861968      2565.5737      261.82415      8043.6565      1.2049928      0.6561964    
     41600  -4631.574      -4664.7567      33.182677      7771.4406      264.37937      7992.464       1.2127109      0.6561964    
     41700  -4631.1583     -4664.0577      32.899434      8300.3293      262.12266      7955.8408      1.2182934      0.6561964    
     41800  -4632.5269     -4665.7872      33.260296      6421.1243      264.99778      7942.3778      1.2203585      0.6561964    
     41900  -4633.0559     -4664.8732      31.817384      3272.8413      253.50154      7946.7621      1.2196852      0.6561964    
     42000  -4633.6302     -4666.6851      33.05486       6339.2557      263.361        7966.3146      1.2166916      0.6616541    
     42100  -4633.0233     -4665.8239      32.800631      6446.4671      261.33545      7993.0105      1.212628       0.6616541    
     42200  -4631.5883     -4664.39        32.80176       5550.5665      261.34444      8022.0393      1.20824        0.6616541    
     42300  -4632.2912     -4665.194       32.902808      2484.2547      262.14954      8048.9916      1.2041941      0.6616541    
     42400  -4631.2319     -4663.6769      32.444996      5247.5673      258.50197      8062.3101      1.2022049      0.6616541    
     42500  -4631.1012     -4664.2878      33.186538      1640.5882      264.41012      8063.0449      1.2020953      0.6616541    
     42600  -4630.7518     -4665.1943      34.442485      4197.5634      274.41675      8048.3847      1.2042849      0.6616541    
     42700  -4631.6773     -4664.6645      32.987221      7117.1443      262.82209      8022.672       1.2081447      0.6616541    
     42800  -4633.2011     -4665.819       32.617945      6058.9386      259.87992      7992.3947      1.2127214      0.6616541    
     42900  -4633.2806     -4664.8791      31.598528      5925.2141      251.75783      7965.1244      1.2168735      0.6616541    
     43000  -4633.133      -4665.4009      32.267882      5226.9243      257.09083      7947.9068      1.2195096      0.66704556   
     43100  -4633.0905     -4666.1385      33.04805       6245.2813      263.30674      7944.8011      1.2199863      0.66704556   
     43200  -4632.9315     -4666.3087      33.37716       8493.6577      265.92888      7958.1261      1.2179436      0.66704556   
     43300  -4633.8514     -4665.813       31.961636      5295.2983      254.65085      7982.6496      1.2142019      0.66704556   
     43400  -4633.9524     -4666.2751      32.322692      2824.3736      257.52753      8012.6668      1.2096532      0.66704556   
     43500  -4634.7169     -4666.0704      31.353559      2919.8364      249.80606      8037.9899      1.2058423      0.66704556   
     43600  -4633.3546     -4665.9029      32.54835       7197.3636      259.32543      8055.1102      1.2032794      0.66704556   
     43700  -4632.9119     -4665.8824      32.970456      4804.9938      262.68851      8061.7364      1.2022904      0.66704556   
     43800  -4631.4157     -4664.3818      32.966085      4715.7704      262.65369      8054.971       1.2033002      0.66704556   
     43900  -4630.6189     -4664.3561      33.73722       5093.2019      268.79762      8035.8275      1.2061668      0.66704556   
     44000  -4631.0297     -4665.1076      34.07788       3470.2916      271.5118       8010.6266      1.2099613      0.63446903   
     44100  -4630.8336     -4666.0034      35.16982       8139.355       280.21171      7986.8657      1.213561       0.63446903   
     44200  -4630.1801     -4663.5542      33.37416       8160.6989      265.90498      7967.5154      1.2165083      0.63446903   
     44300  -4629.6221     -4663.5053      33.883237      4780.0987      269.961        7960.5649      1.2175704      0.63446903   
     44400  -4629.88       -4664.6688      34.788758      6757.5824      277.17564      7966.4456      1.2166716      0.63446903   
     44500  -4630.4476     -4663.6656      33.217978      5323.263       264.66062      7980.7212      1.2144953      0.63446903   
     44600  -4630.7747     -4664.6         33.825313      6017.9927      269.49949      8001.4407      1.2113504      0.63446903   
     44700  -4631.2264     -4664.1929      32.966461      6202.6616      262.65668      8024.2749      1.2079033      0.63446903   
     44800  -4631.6191     -4664.8864      33.267361      5386.5404      265.05407      8042.6685      1.2051409      0.63446903   
     44900  -4632.0178     -4665.1007      33.082916      2663.5728      263.58453      8051.2567      1.2038553      0.63446903   
     45000  -4631.3644     -4664.769       33.404537      4313.0793      266.14701      8045.1441      1.20477        0.65640404   
     45100  -4631.6227     -4665.1225      33.499735      2155.4667      266.90549      8027.0492      1.2074859      0.65640404   
     45200  -4631.8553     -4663.2991      31.443841      3459.5308      250.52537      7999.1585      1.211696       0.65640404   
     45300  -4632.6922     -4665.8584      33.166191      6445.1473      264.24801      7971.6434      1.2158783      0.65640404   
     45400  -4631.7247     -4665.6447      33.920057      5346.0071      270.25436      7956.8271      1.2181424      0.65640404   
     45500  -4632.1271     -4665.274       33.146874      5542.9547      264.0941       7960.0227      1.2176534      0.65640404   
     45600  -4631.6952     -4664.6179      32.922765      5444.3239      262.30855      7979.4254      1.2146925      0.65640404   
     45700  -4631.4096     -4664.0103      32.600709      7764.4615      259.7426       8007.1123      1.2104924      0.65640404   
     45800  -4630.1946     -4663.6811      33.486501      6415.3425      266.80005      8039.2751      1.2056496      0.65640404   
     45900  -4630.7419     -4664.196       33.45419       1011.5448      266.54262      8067.113       1.2014891      0.65640404   
     46000  -4630.4203     -4664.6429      34.222663      4929.3381      272.66534      8080.1751      1.1995468      0.62545849   
     46100  -4630.5234     -4663.6185      33.095065      6436.6276      263.68132      8078.458       1.1998018      0.62545849   
     46200  -4630.3203     -4664.2728      33.952572      4393.5322      270.51342      8066.6519      1.2015578      0.62545849   
     46300  -4629.3374     -4664.7306      35.393171      4766.8866      281.99123      8047.2368      1.2044567      0.62545849   
     46400  -4628.2913     -4662.9153      34.623955      3492.8662      275.86259      8025.1905      1.2077655      0.62545849   
     46500  -4629.2091     -4662.5521      33.343024      8767.2253      265.65691      8007.4716      1.2104381      0.62545849   
     46600  -4629.0339     -4663.2814      34.247416      8912.666       272.86255      7998.0005      1.2118714      0.62545849   
     46700  -4628.737      -4664.137       35.400012      4268.6554      282.04574      7997.8991      1.2118868      0.62545849   
     46800  -4628.264      -4663.2883      35.024314      4522.3353      279.0524       8006.5327      1.21058        0.62545849   
     46900  -4627.2426     -4661.3778      34.135173      5005.6268      271.96827      8021.9063      1.20826        0.62545849   
     47000  -4627.9775     -4663.4114      35.433968      4951.8722      282.31628      8041.8209      1.2052679      0.66411351   
     47100  -4628.6901     -4663.1761      34.486069      7528.2046      274.764        8058.7326      1.2027386      0.66411351   
     47200  -4628.6961     -4662.896       34.199857      6989.4894      272.48363      8066.2762      1.2016138      0.66411351   
     47300  -4630.3051     -4663.2868      32.981697      4215.4763      262.77808      8063.8011      1.2019826      0.66411351   
     47400  -4630.0081     -4665.2997      35.291588      4343.1746      281.18188      8055.5015      1.203221       0.66411351   
     47500  -4630.0126     -4664.5489      34.536331      3554.6355      275.16446      8045.0222      1.2047883      0.66411351   
     47600  -4630.0817     -4662.5186      32.436829      1606.8904      258.4369       8031.2463      1.2068548      0.66411351   
     47700  -4629.5939     -4663.3214      33.727503      5506.0048      268.7202       8019.6761      1.208596       0.66411351   
     47800  -4629.8404     -4664.1392      34.298872      5730.6262      273.27252      8014.5019      1.2093763      0.66411351   
     47900  -4629.0405     -4663.2377      34.197192      7317.7709      272.4624       8015.2372      1.2092653      0.66411351   
     48000  -4629.1307     -4664.4408      35.310114      5415.4378      281.32948      8022.8848      1.2081126      0.68314097   
     48100  -4630.8784     -4663.1333      32.254876      5439.3081      256.98721      8037.6912      1.2058871      0.68314097   
     48200  -4630.0501     -4664.8165      34.766357      5742.7876      276.99716      8057.7981      1.202878       0.68314097   
     48300  -4631.1943     -4664.046       32.851723      4356.7175      261.74252      8073.8221      1.2004907      0.68314097   
     48400  -4630.9501     -4664.1233      33.17324       4915.4587      264.30418      8078.9523      1.1997284      0.68314097   
     48500  -4631.0285     -4663.397       32.368489      5059.9281      257.89241      8071.1646      1.200886       0.68314097   
     48600  -4630.8549     -4664.5157      33.660731      5745.104       268.1882       8053.8975      1.2034606      0.68314097   
     48700  -4629.9461     -4663.0597      33.113529      4962.7128      263.82843      8031.3987      1.2068319      0.68314097   
     48800  -4629.2567     -4663.5396      34.282886      6334.8816      273.14516      8013.1654      1.209578       0.68314097   
     48900  -4630.3338     -4664.7641      34.430233      7718.0293      274.31913      7998.6405      1.2117745      0.68314097   
     49000  -4630.5416     -4663.0109      32.469363      5789.8331      258.69611      7990.8357      1.212958       0.67974443   
     49100  -4629.3341     -4663.567       34.232957      4992.4947      272.74735      7994.4286      1.2124129      0.67974443   
     49200  -4629.7326     -4663.6555      33.922976      2137.767       270.27761      8011.5226      1.209826       0.67974443   
     49300  -4630.0471     -4664.2691      34.222066      1081.0579      272.66058      8039.3872      1.2056327      0.67974443   
     49400  -4630.0141     -4662.7552      32.741102      6073.9609      260.86116      8068.9649      1.2012134      0.67974443   
     49500  -4630.0331     -4664.1364      34.103305      6624.1632      271.71437      8093.4517      1.1975791      0.67974443   
     49600  -4629.7805     -4662.0018      32.22122       6023.8018      256.71906      8102.1352      1.1962956      0.67974443   
     49700  -4629.6603     -4663.4357      33.775414      1856.6375      269.10193      8090.8294      1.1979672      0.67974443   
     49800  -4629.5307     -4664.6685      35.137714      4501.4894      279.95591      8062.2914      1.2022077      0.67974443   
     49900  -4629.5771     -4663.5185      33.941441      6895.5251      270.42473      8025.6415      1.2076977      0.67974443   
     50000  -4629.4961     -4663.6201      34.123957      1589.2362      271.87891      7990.0406      1.2130787      0.68195003   
     50100  -4631.2107     -4663.2395      32.028796      4004.0097      255.18594      7967.8538      1.2164566      0.68195003   
     50200  -4631.832      -4664.0398      32.20774       2405.3359      256.61166      7963.5179      1.2171189      0.68195003   
     50300  -4631.7209     -4664.8717      33.150799      2535.5042      264.12538      7973.4495      1.2156029      0.68195003   
     50400  -4632.3134     -4665.7375      33.424122      5620.7339      266.30305      7993.246       1.2125923      0.68195003   
     50500  -4632.7139     -4664.5607      31.846775      5104.241       253.73571      8017.7857      1.208881       0.68195003   
     50600  -4634.0408     -4664.6342      30.593369      5303.0471      243.74933      8041.486       1.2053181      0.68195003   
     50700  -4634.2096     -4665.7333      31.523758      5088.6835      251.16211      8056.9911      1.2029985      0.68195003   
     50800  -4634.0043     -4666.1371      32.132764      3116.2068      256.0143       8055.7483      1.2031841      0.68195003   
     50900  -4633.9813     -4666.4203      32.43906       1344.2867      258.45467      8036.7257      1.206032       0.68195003   
     51000  -4634.9421     -4666.319       31.376929      3534.2756      249.99226      8007.29        1.2104655      0.61964416   
     51100  -4633.2378     -4665.3354      32.097569      4106.7989      255.73388      7977.3211      1.2150129      0.61964416   
     51200  -4632.632      -4664.6685      32.03653       3761.192       255.24756      7956.288       1.2182249      0.61964416   
     51300  -4632.2205     -4664.9623      32.741717      6868.5361      260.86606      7951.7984      1.2189127      0.61964416   
     51400  -4631.5092     -4665.7263      34.21711       6984.681       272.62109      7965.4771      1.2168196      0.61964416   
     51500  -4631.447      -4664.4417      32.994701      5131.4         262.88168      7995.007       1.2123252      0.61964416   
     51600  -4632.2221     -4664.7698      32.54766       4918.3766      259.31994      8034.2264      1.2064072      0.61964416   
     51700  -4631.6951     -4664.7333      33.03826       3259.1428      263.22873      8068.6468      1.2012607      0.61964416   
     51800  -4631.2179     -4664.936       33.718091      2318.4499      268.64522      8090.0461      1.1980832      0.61964416   
     51900  -4630.6641     -4664.0255      33.361354      3406.1193      265.80295      8096.8287      1.1970796      0.61964416   
     52000  -4631.116      -4664.5068      33.390742      1941.1562      266.0371       8091.2589      1.1979036      0.67007742   
     52100  -4631.5916     -4663.187       31.595465      6703.9353      251.73342      8068.364       1.2013028      0.67007742   
     52200  -4631.1946     -4663.4765      32.281886      7849.7579      257.20241      8033.4248      1.2065276      0.67007742   
     52300  -4632.3049     -4664.4362      32.13136       4375.4564      256.00311      7994.0916      1.212464       0.67007742   
     52400  -4633.2293     -4666.1799      32.950536      6651.3889      262.52981      7961.2558      1.2174648      0.67007742   
     52500  -4631.8928     -4665.3823      33.489527      5276.2538      266.82415      7943.0386      1.220257       0.67007742   
     52600  -4631.2319     -4664.6419      33.410016      11197.703      266.19066      7947.1954      1.2196187      0.67007742   
     52700  -4630.6518     -4665.2847      34.632913      7917.5651      275.93396      7975.6724      1.2152641      0.67007742   
     52800  -4631.6054     -4664.2451      32.639658      7859.7702      260.05292      8020.1357      1.2085267      0.67007742   
     52900  -4630.921      -4665.4078      34.486713      4918.1248      274.76912      8069.6835      1.2011064      0.67007742   
     53000  -4631.0784     -4665.1808      34.102391      1423.4679      271.70708      8105.5352      1.1957938      0.64092674   
     53100  -4629.9646     -4664.195       34.230442      3814.0866      272.72731      8119.7602      1.1936988      0.64092674   
     53200  -4630.9367     -4664.9005      33.963851      2596.249       270.60328      8111.584       1.1949021      0.64092674   
     53300  -4630.8589     -4663.5505      32.691565      3257.8497      260.46648      8081.051       1.1994168      0.64092674   
     53400  -4630.9761     -4664.4887      33.51263       7212.6943      267.00823      8035.5319      1.2062112      0.64092674   
     53500  -4630.7084     -4663.621       32.912585      6579.5477      262.22743      7988.3153      1.2133407      0.64092674   
     53600  -4630.6781     -4663.6982      33.020094      4849.08        263.084        7948.604       1.2194026      0.64092674   
     53700  -4631.7164     -4665.8759      34.159417      2372.4525      272.16143      7925.5169      1.2229547      0.64092674   
     53800  -4632.7315     -4665.5464      32.814895      3997.1388      261.4491       7922.5775      1.2234085      0.64092674   
     53900  -4633.8474     -4665.558       31.710596      8450.7846      252.65071      7939.1748      1.2208509      0.64092674   
     54000  -4634.1263     -4666.2812      32.154966      4240.8002      256.19119      7973.5101      1.2155937      0.6065432    
     54100  -4634.0196     -4666.868       32.848469      5757.4989      261.7166       8010.9062      1.2099191      0.6065432    
     54200  -4632.1526     -4664.9149      32.762288      5871.8362      261.02996      8040.8657      1.2054111      0.6065432    
     54300  -4631.3711     -4665.076       33.704905      3236.802       268.54016      8056.1122      1.2031298      0.6065432    
     54400  -4633.0582     -4665.4544      32.396147      5064.9823      258.11277      8054.1903      1.2034169      0.6065432    
     54500  -4633.0488     -4664.5636      31.514779      5288.0725      251.09057      8039.3268      1.2056418      0.6065432    
     54600  -4631.9775     -4667.0636      35.086054      1941.6152      279.54431      8014.9519      1.2093084      0.6065432    
     54700  -4631.7367     -4663.9568      32.22012       5048.5664      256.71029      7987.9306      1.2133992      0.6065432    
     54800  -4632.4039     -4664.9639      32.559998      6395.3727      259.41823      7965.5043      1.2168154      0.6065432    
     54900  -4631.1969     -4664.7295      33.532523      4112.0403      267.16672      7952.8528      1.2187511      0.6065432    
     55000  -4631.1973     -4665.2139      34.016586      2118.7387      271.02344      7950.6488      1.219089       0.69922148   
     55100  -4630.3147     -4664.431       34.116306      9667.3916      271.81795      7962.0881      1.2173375      0.69922148   
[...]
   2186300  -4630.094      -4663.9811      33.887103      6066.4115      269.9918       7967.7904      1.2164663      0.7022041    
   2186400  -4630.2891     -4663.869       33.57996       2184.2501      267.54467      8001.4471      1.2113494      0.7022041    
   2186500  -4630.9535     -4665.5844      34.630815      1631.4625      275.91724      8040.0789      1.205529       0.7022041    
   2186600  -4631.069      -4663.559       32.490031      1191.0358      258.86078      8068.5958      1.2012683      0.7022041    
   2186700  -4630.1657     -4664.1668      34.001069      1781.5725      270.89981      8079.6059      1.1996313      0.7022041    
   2186800  -4631.2999     -4664.891       33.591066      4851.4315      267.63315      8067.2591      1.2014673      0.7022041    
   2186900  -4631.4408     -4664.66        33.21929       2267.1471      264.67107      8038.0431      1.2058343      0.7022041    
   2187000  -4632.18       -4663.8678      31.687778      7981.7789      252.46892      7998.4413      1.2118047      0.65274517   
   2187100  -4633.3253     -4665.5608      32.23548       5298.3002      256.83267      7958.3794      1.2179048      0.65274517   
   2187200  -4632.0201     -4665.8318      33.811656      5973.036       269.39068      7928.1561      1.2225476      0.65274517   
   2187300  -4631.5983     -4664.6831      33.084738      9854.8757      263.59904      7916.9764      1.224274       0.65274517   
   2187400  -4632.9582     -4666.17        33.21184       6519.1634      264.61172      7930.0972      1.2222484      0.65274517   
   2187500  -4631.2063     -4663.531       32.324666      5462.5959      257.54325      7958.1926      1.2179334      0.65274517   
   2187600  -4630.1786     -4663.5883      33.409676      4888.8082      266.18795      7996.6318      1.2120789      0.65274517   
   2187700  -4629.3816     -4663.7191      34.337507      5185.6112      273.58034      8036.5383      1.2060601      0.65274517   
   2187800  -4629.0013     -4662.4623      33.461006      4124.3717      266.59692      8068.0341      1.2013519      0.65274517   
   2187900  -4629.8537     -4664.0158      34.162072      3511.1416      272.18259      8085.9556      1.1986893      0.65274517   
   2188000  -4630.4985     -4664.1936      33.695125     -138.55262      268.46223      8085.8592      1.1987036      0.67454619   
   2188100  -4630.288      -4664.065       33.777056      5985.3105      269.11501      8066.6229      1.2015621      0.67454619   
   2188200  -4631.8634     -4664.7347      32.87129       5912.3283      261.89842      8035.2507      1.2062534      0.67454619   
   2188300  -4630.7135     -4664.5475      33.834029      6502.2452      269.56894      7998.671       1.2117699      0.67454619   
   2188400  -4631.6644     -4664.9005      33.236124      4515.7787      264.8052       7965.5508      1.2168083      0.67454619   
   2188500  -4631.9146     -4665.262       33.347469      5495.7428      265.69233      7942.8907      1.2202797      0.67454619   
   2188600  -4632.8866     -4665.7414      32.854824      5362.7078      261.76723      7932.8464      1.2218248      0.67454619   
   2188700  -4632.0938     -4664.3481      32.254313      5766.0211      256.98273      7935.9162      1.2213522      0.67454619   
   2188800  -4632.8488     -4665.5793      32.730468      2642.1336      260.77644      7951.5606      1.2189492      0.67454619   
   2188900  -4632.2083     -4665.6759      33.467574      4055.7221      266.64925      7973.7912      1.2155508      0.67454619   
   2189000  -4632.805      -4664.9938      32.188805      4605.8133      256.46079      7998.4868      1.2117978      0.63027453   
   2189100  -4632.1833     -4665.393       33.209655      4538.4206      264.5943       8021.2673      1.2083562      0.63027453   
   2189200  -4631.3573     -4664.2782      32.920813      3495.4866      262.29299      8036.4868      1.2060679      0.63027453   
   2189300  -4632.7546     -4664.9963      32.241713      6650.8775      256.88233      8042.335       1.2051908      0.63027453   
   2189400  -4631.473      -4663.6121      32.139063      5173.848       256.06448      8038.3854      1.205783       0.63027453   
   2189500  -4630.6894     -4664.3185      33.629091      2645.2307      267.93612      8023.9145      1.2079576      0.63027453   
   2189600  -4631.6303     -4665.2141      33.58387       4746.1567      267.57582      8000.3919      1.2115092      0.63027453   
   2189700  -4632.6325     -4667.0819      34.4494        4188.9273      274.47184      7973.6066      1.215579       0.63027453   
   2189800  -4632.5562     -4664.4887      31.932474      5370.3202      254.41851      7947.999       1.2194954      0.63027453   
   2189900  -4632.5938     -4664.5743      31.980477      4711.9195      254.80096      7936.4492      1.2212701      0.63027453   
   2190000  -4632.0949     -4665.3356      33.240707      7477.7338      264.84171      7943.7174      1.2201527      0.64319658   
   2190100  -4631.9196     -4665.8848      33.965254      7256.6026      270.61446      7966.8991      1.2166024      0.64319658   
   2190200  -4632.6606     -4664.6854      32.024796      2836.8652      255.15407      7997.9857      1.2118737      0.64319658   
   2190300  -4632.6506     -4664.4251      31.774476      1399.4741      253.15967      8026.5019      1.2075682      0.64319658   
   2190400  -4632.0762     -4664.9356      32.859428      3626.7516      261.80391      8048.9254      1.204204       0.64319658   
   2190500  -4631.7284     -4665.2606      33.53218       5649.9469      267.16399      8056.7088      1.2030407      0.64319658   
   2190600  -4631.386      -4663.2179      31.831976      6204.8411      253.6178       8051.9367      1.2037537      0.64319658   
   2190700  -4630.4083     -4664.6839      34.275654      7481.752       273.08754      8037.73        1.2058813      0.64319658   
   2190800  -4631.3778     -4666.112       34.734182      5296.0628      276.74081      8020.185       1.2085193      0.64319658   
   2190900  -4629.8157     -4664.5706      34.754844      5253.6487      276.90543      7999.0377      1.2117143      0.64319658   
   2191000  -4631.1138     -4664.1966      33.082829      5264.8804      263.58383      7981.1897      1.214424       0.64130318   
   2191100  -4629.2982     -4662.5951      33.296826      4761.7039      265.28883      7966.1343      1.2167192      0.64130318   
   2191200  -4630.1503     -4664.1522      34.001865      5846.0918      270.90615      7958.907       1.2178241      0.64130318   
   2191300  -4630.44       -4664.1169      33.676873      7152.0323      268.31682      7960.2093      1.2176248      0.64130318   
   2191400  -4628.5517     -4664.1007      35.54897       5945.4493      283.23254      7971.7346      1.2158644      0.64130318   
   2191500  -4628.0719     -4662.9645      34.8926        5674.839       278.00299      7990.5525      1.213001       0.64130318   
   2191600  -4628.5742     -4663.9476      35.373458      4684.4108      281.83417      8010.8402      1.2099291      0.64130318   
   2191700  -4628.8678     -4663.318       34.450262      5063.2918      274.4787       8030.4462      1.2069751      0.64130318   
   2191800  -4628.8643     -4664.4622      35.597902      2971.4457      283.6224       8045.7697      1.2046763      0.64130318   
   2191900  -4627.6847     -4662.5297      34.845003      2435.8381      277.62376      8053.5326      1.2035151      0.64130318   
   2192000  -4627.8354     -4662.7058      34.8704        3369.5059      277.82611      8054.4551      1.2033773      0.70528107   
   2192100  -4629.0577     -4663.9849      34.927198      4218.7402      278.27864      8047.0745      1.204481       0.70528107   
   2192200  -4629.0684     -4664.1144      35.046053      5225.6132      279.2256       8029.592       1.2071035      0.70528107   
   2192300  -4629.4685     -4664.0969      34.628436      7463.0074      275.89829      8008.8695      1.2102268      0.70528107   
   2192400  -4629.4934     -4663.8412      34.347797      5674.4931      273.66233      7991.9494      1.212789       0.70528107   
   2192500  -4630.3054     -4665.1663      34.860982      4720.6698      277.75107      7985.8112      1.2137212      0.70528107   
   2192600  -4630.5241     -4663.6628      33.138767      6401.5742      264.02951      7988.5509      1.213305       0.70528107   
   2192700  -4629.486      -4663.5711      34.085119      2658.346       271.56947      8000.4656      1.211498       0.70528107   
   2192800  -4630.4135     -4664.2204      33.806872      4873.801       269.35257      8021.2583      1.2083576      0.70528107   
   2192900  -4631.1772     -4664.8533      33.676064      5908.5126      268.31037      8040.5721      1.2054551      0.70528107   
   2193000  -4630.5538     -4664.1154      33.561571      4836.5385      267.39816      8053.5972      1.2035055      0.70392102   
   2193100  -4630.3019     -4664.5315      34.229661      5761.3786      272.72109      8056.5267      1.2030679      0.70392102   
   2193200  -4631.6944     -4663.9852      32.290851      6264.4091      257.27383      8046.0667      1.2046319      0.70392102   
   2193300  -4631.8484     -4665.9254      34.076985      2620.0415      271.50466      8024.4987      1.2078696      0.70392102   
   2193400  -4631.4541     -4665.1261      33.671961      4977.8917      268.27768      7996.9608      1.212029       0.70392102   
   2193500  -4631.5786     -4664.1698      32.5912        6366.3485      259.66683      7972.1027      1.2158083      0.70392102   
   2193600  -4630.731      -4664.1088      33.377801      4451.3564      265.93399      7957.1255      1.2180967      0.70392102   
   2193700  -4630.8714     -4665.6366      34.765181      4104.4311      276.98779      7956.975       1.2181198      0.70392102   
   2193800  -4631.9846     -4665.272       33.287496      5845.8511      265.2145       7969.8673      1.2161493      0.70392102   
   2193900  -4629.7662     -4664.9818      35.215644      5609.0288      280.57681      7990.245       1.2130477      0.70392102   
   2194000  -4629.4525     -4662.973       33.520455      7668.3254      267.07057      8013.0735      1.2095918      0.67077377   
   2194100  -4629.4691     -4662.5864      33.117259      3964.3094      263.85815      8037.1395      1.2059699      0.67077377   
   2194200  -4629.0528     -4663.4942      34.441484      1649.9671      274.40877      8054.1154      1.2034281      0.67077377   
   2194300  -4628.4242     -4663.7544      35.330126      5756.7329      281.48893      8064.1487      1.2019308      0.67077377   
   2194400  -4630.3904     -4663.8387      33.448317      3496.0156      266.49582      8064.253       1.2019152      0.67077377   
   2194500  -4632.4854     -4665.3893      32.903882      5808.4649      262.15809      8048.066       1.2043326      0.67077377   
   2194600  -4631.8601     -4664.644       32.783922      5334.3255      261.20233      8020.9683      1.2084013      0.67077377   
   2194700  -4631.7317     -4664.351       32.619355      5351.1356      259.89115      7992.0085      1.2127801      0.67077377   
   2194800  -4631.9453     -4663.9381      31.992849      5524.1502      254.89954      7967.877       1.2164531      0.67077377   
   2194900  -4632.6963     -4666.1478      33.451468      4434.4784      266.52093      7952.5227      1.2188017      0.67077377   
   2195000  -4633.2555     -4665.946       32.690495      7235.8183      260.45796      7950.261       1.2191485      0.69074143   
   2195100  -4631.6132     -4666.3364      34.723183      8745.2458      276.65318      7960.1166      1.217639       0.69074143   
   2195200  -4630.8757     -4664.9287      34.052921      5521.947       271.31294      7982.2197      1.2142673      0.69074143   
   2195300  -4629.9836     -4663.6859      33.702355      5155.0736      268.51984      8011.6696      1.2098038      0.69074143   
   2195400  -4630.8781     -4664.5369      33.658768      4595.2429      268.17256      8042.2542      1.2052029      0.69074143   
   2195500  -4631.243      -4665.1324      33.889355      4639.2838      270.00974      8068.144       1.2013356      0.69074143   
   2195600  -4630.5854     -4663.5774      32.991996      4273.8489      262.86013      8083.222       1.1990947      0.69074143   
   2195700  -4629.9723     -4665.2585      35.286116      3704.6544      281.13828      8085.491       1.1987582      0.69074143   
   2195800  -4630.2916     -4663.0652      32.773643      2078.4725      261.12042      8071.7985      1.2007917      0.69074143   
   2195900  -4631.1206     -4665.1223      34.001661      5120.0192      270.90453      8048.5852      1.2042549      0.69074143   
   2196000  -4630.4715     -4665.5646      35.093091      5317.6656      279.60038      8015.6631      1.2092011      0.63418144   
   2196100  -4631.3768     -4663.8887      32.511823      5319.5954      259.03441      7980.814       1.2144812      0.63418144   
   2196200  -4631.0828     -4665.361       34.278119      7123.0532      273.10718      7953.0271      1.2187244      0.63418144   
   2196300  -4630.9294     -4664.6152      33.685759      8647.3721      268.38761      7941.2829      1.2205268      0.63418144   
   2196400  -4631.1189     -4664.692       33.573017      7550.1704      267.48935      7947.2133      1.219616       0.63418144   
   2196500  -4631.1343     -4665.0628      33.928518      3268.843       270.32177      7972.5103      1.2157461      0.63418144   
   2196600  -4631.8405     -4664.7605      32.919953      5149.0549      262.28614      8009.4109      1.210145       0.63418144   
   2196700  -4632.581      -4665.9024      33.321495      7031.4389      265.48538      8045.6444      1.2046951      0.63418144   
   2196800  -4632.5661     -4665.5212      32.955143      3361.0766      262.56651      8069.4395      1.2011427      0.63418144   
   2196900  -4631.5173     -4664.8845      33.367251      3052.9809      265.84994      8074.6348      1.2003699      0.63418144   
   2197000  -4632.7892     -4665.713       32.923781      4172.809       262.31663      8059.7366      1.2025887      0.63162682   
   2197100  -4631.0069     -4663.213       32.206049      4959.0857      256.59819      8029.546       1.2071104      0.63162682   
   2197200  -4630.6294     -4663.8905      33.261046      6220.1439      265.00376      7990.5633      1.2129994      0.63162682   
   2197300  -4629.9852     -4664.4222      34.436948      10007.082      274.37263      7952.2732      1.21884        0.63162682   
   2197400  -4630.2818     -4664.8625      34.580671      7857.8966      275.51772      7929.1363      1.2223965      0.63162682   
   2197500  -4631.3538     -4665.2918      33.938023      3783.645       270.3975       7926.2137      1.2228472      0.63162682   
   2197600  -4631.8245     -4665.4224      33.597838      3482.52        267.68711      7939.6037      1.2207849      0.63162682   
   2197700  -4631.2509     -4664.8002      33.549345      2258.7151      267.30075      7963.505       1.2171209      0.63162682   
   2197800  -4631.2464     -4664.6537      33.407295      3349.1136      266.16898      7996.1546      1.2121512      0.63162682   
   2197900  -4630.6384     -4663.5755      32.937061      4674.7119      262.42244      8027.4533      1.2074251      0.63162682   
   2198000  -4629.0167     -4663.9771      34.960379      2074.8366      278.54301      8049.9522      1.2040504      0.7126507    
   2198100  -4630.6759     -4663.9019      33.225958      4994.7565      264.7242       8059.6623      1.2025998      0.7126507    
   2198200  -4630.5787     -4663.5261      32.947354      4793.3504      262.50446      8055.5739      1.2032102      0.7126507    
   2198300  -4631.335      -4663.9573      32.622361      4045.6809      259.91511      8033.976       1.2064448      0.7126507    
   2198400  -4631.6634     -4665.6064      33.942983      5486.53        270.43702      8001.5904      1.2113277      0.7126507    
   2198500  -4631.9732     -4665.5499      33.576727      6044.0428      267.51891      7968.523       1.2163544      0.7126507    
   2198600  -4631.9397     -4664.9902      33.050536      5637.5686      263.32654      7943.1867      1.2202342      0.7126507    
   2198700  -4631.1783     -4664.2496      33.071331      6009.9848      263.49223      7931.7838      1.2219885      0.7126507    
   2198800  -4631.26       -4663.5038      32.243819      4529.0208      256.89911      7936.4765      1.2212659      0.7126507    
   2198900  -4631.0008     -4664.4092      33.408335      7563.5435      266.17727      7958.7144      1.2178535      0.7126507    
   2199000  -4630.4821     -4664.746       34.2639        5323.8686      272.99389      7991.4887      1.2128589      0.71062707   
   2199100  -4631.6382     -4663.9434      32.305182      5140.0402      257.38801      8027.1742      1.2074671      0.71062707   
   2199200  -4631.731      -4664.4939      32.762822      5078.9253      261.03422      8055.6093      1.2032049      0.71062707   
   2199300  -4631.5627     -4663.6678      32.10506       4719.268       255.79357      8069.2529      1.2011705      0.71062707   
   2199400  -4631.6243     -4664.2603      32.635983      4905.2885      260.02364      8066.4067      1.2015943      0.71062707   
   2199500  -4631.59       -4665.7315      34.141406      1977.2898      272.01793      8051.1455      1.203872       0.71062707   
   2199600  -4632.282      -4664.9531      32.671088      2226.4458      260.30333      8025.5993      1.207704       0.71062707   
   2199700  -4631.4448     -4663.7808      32.336015      4529.6797      257.63367      7997.2287      1.2119884      0.71062707   
   2199800  -4631.2351     -4664.7822      33.547136      5540.2135      267.28315      7974.6265      1.2154235      0.71062707   
   2199900  -4631.3064     -4664.8774      33.571061      8028.1235      267.47377      7961.1309      1.2174839      0.71062707   
   2200000  -4631.9582     -4665.1525      33.194313      6405.2354      264.47207      7957.6888      1.2180105      0.68874174   
   2200100  -4631.8795     -4665.5322      33.652617      4725.6432      268.12356      7963.9608      1.2170512      0.68874174   
   2200200  -4632.2115     -4665.9979      33.786425      4279.1805      269.18966      7979.7716      1.2146398      0.68874174   
   2200211  -4632.296      -4665.275       32.978992      6581.9624      262.75652      7982.0904      1.214287       0.68874174   
Loop time of 6976.74 on 1 procs for 2000000 steps with 972 atoms

Performance: 12.384 ns/day, 1.938 hours/ns, 286.667 timesteps/s, 278.640 katom-step/s
99.8% CPU use with 1 MPI tasks x 1 OpenMP threads

MPI task timing breakdown:
Section |  min time  |  avg time  |  max time  |%varavg| %total
---------------------------------------------------------------
Pair    | 4947.6     | 4947.6     | 4947.6     |   0.0 | 70.92
Neigh   | 78.321     | 78.321     | 78.321     |   0.0 |  1.12
Comm    | 94.495     | 94.495     | 94.495     |   0.0 |  1.35
Output  | 4.6162     | 4.6162     | 4.6162     |   0.0 |  0.07
Modify  | 1804.2     | 1804.2     | 1804.2     |   0.0 | 25.86
Other   |            | 47.53      |            |       |  0.68

Nlocal:            972 ave         972 max         972 min
Histogram: 1 0 0 0 0 0 0 0 0 0
Nghost:           3857 ave        3857 max        3857 min
Histogram: 1 0 0 0 0 0 0 0 0 0
Neighs:              0 ave           0 max           0 min
Histogram: 1 0 0 0 0 0 0 0 0 0
FullNghs:       135340 ave      135340 max      135340 min
Histogram: 1 0 0 0 0 0 0 0 0 0

Total # of neighbors = 135340
Ave neighs/atom = 139.23868
Neighbor list builds = 197461
Dangerous builds = 184769

unfix		3
unfix		4
Total wall time: 2:07:58
