LAMMPS (27 Jun 2024)
KOKKOS mode with Kokkos version 4.3.1 is enabled (src/KOKKOS/kokkos.cpp:72)
  will use up to 1 GPU(s) per node
WARNING: When using a single thread, the Kokkos Serial backend (i.e. Makefile.kokkos_mpi_only) gives better performance than the OpenMP backend (src/KOKKOS/kokkos.cpp:202)
  using 1 OpenMP thread(s) per MPI task
package kokkos
package kokkos newton on neigh half

units		metal						## E in [eV], t in [ps], P in [10000 Pa], l in [A]
atom_style	atomic						## mass x y z vx vy vz

neighbor	0.5 bin						## neighbor list, skin = 0.5 Angstrom
neigh_modify	every 2 delay 10 check yes			## update of neighbor list

############################## main variables
variable        seed equal 52740

variable	temperature equal 405
variable	tempDamp equal 0.1

variable        pressure equal 15000
variable        pressureDamp equal 1.0 				# This is 1 ps

##############################

read_data water.dat
Reading data file ...
  orthogonal box = (0 0 0) to (19.665067 19.665067 19.640133)
  1 by 1 by 1 MPI processor grid
  reading atoms ...
  1296 atoms
  read_data CPU = 0.607 seconds

mass		1 1.008    # H
mass		2 15.9994  # O


pair_style	pace/extrapolation
ACE/AL version: 2023.11.25
pair_coeff	* * /pc2/users/a/acepdw01/work/phase_diagram/pot_dir/interim_potential_ladder_step_1.yaml /pc2/users/a/acepdw01/work/phase_diagram/pot_dir/interim_potential_ladder_step_1.asi H O
Loading /pc2/users/a/acepdw01/work/phase_diagram/pot_dir/interim_potential_ladder_step_1.yaml
Total number of basis functions
	H: 23 (r=1) 664 (r>1)
	O: 23 (r=1) 664 (r>1)
Mapping LAMMPS atom type #1(H) -> ACE species type #0
Mapping LAMMPS atom type #2(O) -> ACE species type #1
Loading ASI /pc2/users/a/acepdw01/work/phase_diagram/pot_dir/interim_potential_ladder_step_1.asi
LINEAR ASI is loaded

fix pace_gamma all pair 1000 pace/extrapolation gamma 1
compute max_pace_gamma all reduce max f_pace_gamma
variable dump_skip equal "c_max_pace_gamma < 10"

dump pace_dump all custom 1000 extrapolative_structures.dump id type x y z f_pace_gamma
dump_modify pace_dump skip v_dump_skip
dump_modify pace_dump element H O

variable max_pace_gamma equal c_max_pace_gamma

timestep	0.0005						## timestep = 0.0005*ps = 0.5 fs

thermo		100
thermo_style custom step etotal pe ke press temp vol density c_max_pace_gamma


min_style cg
minimize 0.0 5.0e-4 10000 100000

CITE-CITE-CITE-CITE-CITE-CITE-CITE-CITE-CITE-CITE-CITE-CITE-CITE

Your simulation uses code contributions which should be cited:

- Type Label Framework: https://doi.org/10.1021/acs.jpcb.3c08419

@Article{Gissinger24,
 author = {Jacob R. Gissinger, Ilia Nikiforov, Yaser Afshar, Brendon Waters, Moon-ki Choi, Daniel S. Karls, Alexander Stukowski, Wonpil Im, Hendrik Heinz, Axel Kohlmeyer, and Ellad B. Tadmor},
 title = {Type Label Framework for Bonded Force Fields in LAMMPS},
 journal = {J. Phys. Chem. B},
 year =    2024,
 volume =  128,
 number =  13,
 pages =   {3282–-3297}
}

CITE-CITE-CITE-CITE-CITE-CITE-CITE-CITE-CITE-CITE-CITE-CITE-CITE

Switching to 'neigh_modify every 1 delay 0 check yes' setting during minimization
Neighbor list info ...
  update: every = 1 steps, delay = 0 steps, check = yes
  max neighbors/atom: 2000, page size: 100000
  master list distance cutoff = 6.5
  ghost atom cutoff = 6.5
  binsize = 6.5, bins = 4 4 4
  1 neighbor lists, perpetual/occasional/extra = 1 0 0
  (1) pair pace/extrapolation/kk, perpetual
      attributes: full, newton on, kokkos_device
      pair build: full/bin/kk/device
      stencil: full/bin/3d
      bin: kk/device
WARNING: Fix with atom-based arrays not compatible with sending data in Kokkos communication, switching to classic exchange/border communication (src/KOKKOS/comm_kokkos.cpp:754)
WARNING: Fix with atom-based arrays not compatible with Kokkos sorting on device, switching to classic host sorting (src/KOKKOS/atom_kokkos.cpp:216)
Per MPI rank memory allocation (min/avg/max) = 1123 | 1123 | 1123 Mbytes
   Step         TotEng         PotEng         KinEng         Press           Temp          Volume        Density     c_max_pace_gamma
         0  -6250.4972     -6250.4972      0              21939.986      0              7595.1311      1.7015372      0.62320149   
        33  -6250.6452     -6250.6452      0              22350.057      0              7595.1311      1.7015372      0.62320149   
Loop time of 0.24544 on 1 procs for 33 steps with 1296 atoms

97.5% CPU use with 1 MPI tasks x 1 OpenMP threads

Minimization stats:
  Stopping criterion = force tolerance
  Energy initial, next-to-last, final = 
     -6250.49717465846  -6250.64523648356  -6250.64523648875
  Force two-norm initial, final = 0.82052426 0.0003006328
  Force max component initial, final = 0.040662504 1.1270972e-05
  Final line search alpha, max atom move = 1 1.1270972e-05
  Iterations, force evaluations = 33 66

MPI task timing breakdown:
Section |  min time  |  avg time  |  max time  |%varavg| %total
---------------------------------------------------------------
Pair    | 0.21595    | 0.21595    | 0.21595    |   0.0 | 87.98
Neigh   | 0          | 0          | 0          |   0.0 |  0.00
Comm    | 0.0016281  | 0.0016281  | 0.0016281  |   0.0 |  0.66
Output  | 0          | 0          | 0          |   0.0 |  0.00
Modify  | 0.013922   | 0.013922   | 0.013922   |   0.0 |  5.67
Other   |            | 0.01394    |            |       |  5.68

Nlocal:           1296 ave        1296 max        1296 min
Histogram: 1 0 0 0 0 0 0 0 0 0
Nghost:           4514 ave        4514 max        4514 min
Histogram: 1 0 0 0 0 0 0 0 0 0
Neighs:              0 ave           0 max           0 min
Histogram: 1 0 0 0 0 0 0 0 0 0
FullNghs:       251424 ave      251424 max      251424 min
Histogram: 1 0 0 0 0 0 0 0 0 0

Total # of neighbors = 251424
Ave neighs/atom = 194
Neighbor list builds = 0
Dangerous builds = 0

################## equilibration of main calculation
# Equilibrate to specified number of ice

fix             3 all nph aniso ${pressure} ${pressure} ${pressureDamp}
fix             3 all nph aniso 15000 ${pressure} ${pressureDamp}
fix             3 all nph aniso 15000 15000 ${pressureDamp}
fix             3 all nph aniso 15000 15000 1
fix             4 all temp/csvr ${temperature} ${temperature} ${tempDamp} ${seed}
fix             4 all temp/csvr 405 ${temperature} ${tempDamp} ${seed}
fix             4 all temp/csvr 405 405 ${tempDamp} ${seed}
fix             4 all temp/csvr 405 405 0.1 ${seed}
fix             4 all temp/csvr 405 405 0.1 52740
velocity 	all create ${temperature} ${seed} dist gaussian
velocity 	all create 405 ${seed} dist gaussian
velocity 	all create 405 52740 dist gaussian

run 200000
WARNING: Fix with atom-based arrays not compatible with Kokkos sorting on device, switching to classic host sorting (src/KOKKOS/atom_kokkos.cpp:216)
Per MPI rank memory allocation (min/avg/max) = 1123 | 1123 | 1123 Mbytes
   Step         TotEng         PotEng         KinEng         Press           Temp          Volume        Density     c_max_pace_gamma
        33  -6182.8515     -6250.6452      67.793715      31884.015      405            7595.1311      1.7015372      0.62320149   
       100  -6173.6475     -6201.6676      28.020099      32603.533      167.39221      7618.9589      1.6962157      0.62320149   
       200  -6162.8193     -6207.621       44.801614      32238.747      267.64507      7768.0017      1.6636708      0.62320149   
       300  -6155.8189     -6204.9707      49.151726      25834.856      293.63266      7993.0911      1.616821       0.62320149   
       400  -6150.7134     -6200.0206      49.307166      19868.08       294.56126      8193.3284      1.5773074      0.62320149   
       500  -6145.4857     -6199.0097      53.52406       13981.514      319.75301      8339.7824      1.5496085      0.62320149   
       600  -6138.4653     -6193.2598      54.794576      13999.282      327.34308      8447.0201      1.5299357      0.62320149   
       700  -6134.7688     -6193.9235      59.154688      14135.613      353.39041      8533.0733      1.5145068      0.62320149   
       800  -6131.045      -6189.8183      58.773272      14819.578      351.11183      8597.9556      1.503078       0.62320149   
       900  -6127.559      -6190.4277      62.868775      12893.848      375.57839      8643.3595      1.4951823      0.62320149   
      1000  -6123.7008     -6184.8278      61.126991      12349.362      365.17296      8672.3298      1.4901875      0.81943645   
      1100  -6122.4054     -6185.7811      63.375633      10760.948      378.60636      8687.1667      1.4876424      0.81943645   
      1200  -6120.6648     -6186.5605      65.895641      13906.585      393.6609       8688.1647      1.4874716      0.81943645   
      1300  -6119.9881     -6183.7286      63.740458      14109.161      380.78583      8679.0787      1.4890288      0.81943645   
      1400  -6118.8757     -6183.8027      64.926978      13533.455      387.8741       8664.2175      1.4915828      0.81943645   
      1500  -6120.7726     -6186.9533      66.180605      12899.376      395.36327      8647.2321      1.4945127      0.81943645   
      1600  -6122.6398     -6187.3431      64.703266      16038.149      386.53765      8630.9307      1.4973354      0.81943645   
      1700  -6119.9039     -6185.6605      65.756551      18259.777      392.82997      8617.4894      1.4996709      0.81943645   
      1800  -6121.0195     -6185.7193      64.699789      16500.055      386.51687      8612.5918      1.5005237      0.81943645   
      1900  -6119.5573     -6183.3621      63.804768      20126.371      381.17001      8615.8533      1.4999557      0.81943645   
      2000  -6117.9354     -6186.1319      68.196498      16287.552      407.40623      8627.1307      1.4979949      0.88722884   
      2100  -6119.2435     -6183.4674      64.223921      10243.088      383.67403      8643.6729      1.4951281      0.88722884   
      2200  -6119.9761     -6184.7743      64.798293      9864.871       387.10534      8662.8476      1.4918187      0.88722884   
      2300  -6118.459      -6183.4668      65.007867      12803.781      388.35733      8680.5819      1.4887709      0.88722884   
      2400  -6117.9951     -6182.5974      64.602244      15245.366      385.93414      8694.9945      1.4863032      0.88722884   
      2500  -6116.4249     -6182.4916      66.06672       15755.01       394.68292      8706.1609      1.4843969      0.88722884   
      2600  -6114.2203     -6183.1629      68.942638      13738.114      411.86367      8713.1492      1.4832063      0.88722884   
      2700  -6113.9499     -6179.3937      65.443748      14298.859      390.96129      8713.6793      1.4831161      0.88722884   
      2800  -6113.2346     -6180.7205      67.485894      16980.933      403.16108      8713.5908      1.4831311      0.88722884   
      2900  -6115.494      -6183.8262      68.332233      17825.69       408.21711      8714.1604      1.4830342      0.88722884   
      3000  -6115.5433     -6183.4039      67.860664      15909.641      405.39995      8712.1445      1.4833774      0.75420298   
      3100  -6115.0134     -6182.1167      67.103262      16575.558      400.87524      8708.9112      1.4839281      0.75420298   
      3200  -6114.6278     -6182.1731      67.545359      17659.709      403.51632      8707.9426      1.4840931      0.75420298   
      3300  -6112.9589     -6182.7079      69.74902       18982.118      416.68101      8710.8766      1.4835933      0.75420298   
      3400  -6112.2219     -6180.9039      68.682008      16025.976      410.30667      8719.6209      1.4821055      0.75420298   
      3500  -6110.3935     -6179.7683      69.374838      10949.154      414.44564      8736.8348      1.4791853      0.75420298   
      3600  -6110.41       -6178.0557      67.645703      11745.117      404.11578      8761.0358      1.4750993      0.75420298   
      3700  -6113.3205     -6179.7686      66.448095      12585.79       396.96126      8786.3532      1.4708489      0.75420298   
      3800  -6112.3199     -6181.43        69.110097      11783.894      412.86407      8805.8943      1.4675849      0.75420298   
      3900  -6115.2796     -6182.0176      66.738063      10107.693      398.69353      8811.7766      1.4666053      0.75420298   
      4000  -6115.3961     -6181.7765      66.380387      14934.384      396.55677      8803.7114      1.4679488      0.94305756   
      4100  -6115.2853     -6182.0118      66.726429      14190.807      398.62403      8783.3622      1.4713498      0.94305756   
      4200  -6115.406      -6181.8994      66.493419      17324.368      397.23203      8754.022       1.4762812      0.94305756   
      4300  -6115.2759     -6179.8432      64.567357      19152.422      385.72572      8722.9334      1.4815427      0.94305756   
      4400  -6116.4767     -6183.4216      66.944915      17466.795      399.92927      8696.8186      1.4859914      0.94305756   
      4500  -6116.413      -6181.6273      65.214278      18101.204      389.59043      8675.3159      1.4896746      0.94305756   
      4600  -6115.9181     -6182.8578      66.939704      14193.249      399.89814      8663.0358      1.4917863      0.94305756   
      4700  -6114.4324     -6182.8673      68.43496       14789.034      408.8308       8663.7911      1.4916562      0.94305756   
      4800  -6114.3182     -6181.9509      67.632706      17484.777      404.03813      8677.6791      1.4892689      0.94305756   
      4900  -6114.5172     -6182.0015      67.484328      11999.108      403.15173      8704.1187      1.4847451      0.94305756   
      5000  -6110.9482     -6178.949       68.000874      16057.544      406.23757      8740.4192      1.4785787      0.84836219   
      5100  -6111.041      -6178.5596      67.518546      13090.098      403.35614      8784.9873      1.4710776      0.84836219   
      5200  -6110.2226     -6181.9632      71.740603      13062.718      428.57873      8829.4425      1.4636709      0.84836219   
      5300  -6113.103      -6181.4308      68.327797      13398.357      408.19061      8865.1235      1.4577798      0.84836219   
      5400  -6115.0276     -6181.0516      66.023982      11249.397      394.42761      8886.9646      1.4541971      0.84836219   
      5500  -6113.8033     -6181.893       68.089751      7867.9922      406.76853      8890.9795      1.4535404      0.84836219   
      5600  -6115.5023     -6181.202       65.699661      13840.273      392.49012      8871.8718      1.4566709      0.84836219   
      5700  -6115.4528     -6181.3849      65.932072      15059.48       393.87854      8830.8769      1.4634331      0.84836219   
      5800  -6115.1631     -6182.9678      67.804691      15298.906      405.06558      8773.3112      1.4730354      0.84836219   
      5900  -6112.308      -6181.3002      68.992192      17863.104      412.15971      8706.6384      1.4843154      0.84836219   
      6000  -6114.8575     -6181.0635      66.206031      18779.409      395.51517      8649.3096      1.4941537      0.81614287   
      6100  -6112.9239     -6180.6748      67.750914      19389.483      404.74431      8609.8338      1.5010043      0.81614287   
      6200  -6112.7262     -6181.9209      69.194743      20572.57       413.36975      8595.9431      1.5034299      0.81614287   
      6300  -6114.3611     -6181.566       67.204828      19728.096      401.48199      8611.736       1.5006728      0.81614287   
      6400  -6115.8666     -6182.0262      66.15954       14658.171      395.23743      8651.7998      1.4937236      0.81614287   
      6500  -6114.1811     -6182.9336      68.752447      17328.582      410.72747      8709.1279      1.4838912      0.81614287   
      6600  -6113.7546     -6180.0578      66.303127      20525.527      396.09522      8776.6553      1.4724741      0.81614287   
      6700  -6114.6658     -6182.2711      67.605225      13191.49       403.87396      8842.0672      1.4615811      0.81614287   
      6800  -6116.1163     -6183.6342      67.517907      9806.8864      403.35232      8895.6624      1.4527752      0.81614287   
      6900  -6117.9132     -6183.2429      65.329694      8994.2962      390.27993      8927.6723      1.4475663      0.81614287   
      7000  -6119.4917     -6183.1645      63.672766      9729.1632      380.38143      8929.7979      1.4472218      0.77303499   
      7100  -6118.0556     -6183.9524      65.896865      8036.3551      393.66821      8901.9964      1.4517415      0.77303499   
      7200  -6117.0534     -6183.2645      66.211121      8543.7285      395.54558      8847.9343      1.4606119      0.77303499   
      7300  -6116.3708     -6181.6201      65.249332      8127.3655      389.79985      8782.157       1.4715517      0.77303499   
      7400  -6115.0505     -6181.3901      66.339561      13976.36       396.31288      8719.9522      1.4820492      0.77303499   
      7500  -6113.6969     -6180.6235      66.926622      15330.346      399.81998      8672.3521      1.4901837      0.77303499   
      7600  -6113.9618     -6182.3499      68.388101      16232.671      408.55087      8648.9615      1.4942138      0.77303499   
      7700  -6112.1378     -6180.4512      68.313437      18730.397      408.10482      8653.2623      1.4934712      0.77303499   
      7800  -6111.8563     -6180.5103      68.653985      17964.454      410.13926      8685.3266      1.4879576      0.77303499   
      7900  -6111.9512     -6181.2383      69.287093      15137.718      413.92145      8737.5344      1.4790669      0.77303499   
      8000  -6112.3607     -6178.4669      66.106151      13014.461      394.91849      8799.1934      1.4687026      0.79912539   
      8100  -6112.9613     -6181.4379      68.476585      10920.159      409.07947      8858.8903      1.4588055      0.79912539   
      8200  -6114.1115     -6180.3436      66.232037      9338.4528      395.67053      8904.7235      1.4512969      0.79912539   
      8300  -6114.1545     -6181.6536      67.499061      12550.962      403.23974      8928.9751      1.4473551      0.79912539   
      8400  -6113.7947     -6179.9128      66.118048      14053.067      394.98956      8928.0305      1.4475083      0.79912539   
      8500  -6111.269      -6180.2533      68.984345      12740.321      412.11283      8905.1135      1.4512334      0.79912539   
      8600  -6111.1691     -6178.6846      67.515474      12541.352      403.33779      8866.9246      1.4574837      0.79912539   
      8700  -6111.4865     -6180.1913      68.704801      13230.387      410.44284      8821.472       1.4649934      0.79912539   
      8800  -6111.2227     -6179.0119      67.789179      15220.417      404.97291      8778.0893      1.4722336      0.79912539   
      8900  -6111.8876     -6181.9016      70.014026      15621.427      418.26415      8744.4641      1.4778948      0.79912539   
      9000  -6114.936      -6182.7997      67.863682      14980.692      405.41799      8721.3192      1.4818169      0.77196136   
      9100  -6114.5418     -6182.4054      67.863623      13990.902      405.41763      8709.6242      1.4838066      0.77196136   
      9200  -6113.5591     -6179.6859      66.126723      13832.621      395.04138      8711.0311      1.4835669      0.77196136   
      9300  -6116.5885     -6184.2616      67.673195      14700.39       404.28002      8727.7158      1.4807308      0.77196136   
      9400  -6118.3739     -6184.7337      66.35981       16884.347      396.43385      8750.6935      1.4768427      0.77196136   
      9500  -6115.6435     -6182.0939      66.450403      15064.717      396.97505      8772.7871      1.4731234      0.77196136   
      9600  -6115.5894     -6183.2516      67.662196      11914.261      404.21431      8794.404       1.4695024      0.77196136   
      9700  -6116.2314     -6184.5891      68.357773      10306.345      408.36969      8811.3339      1.4666789      0.77196136   
      9800  -6114.7848     -6180.296       65.511122      9135.6975      391.36378      8819.3069      1.465353       0.77196136   
      9900  -6112.9546     -6181.5428      68.588139      11514.771      409.7459       8820.645       1.4651307      0.77196136   
     10000  -6111.6668     -6180.3198      68.652939      16514.893      410.13301      8816.5421      1.4658125      0.73160787   
     10100  -6113.2292     -6181.532       68.30278       13657.05       408.04116      8809.5667      1.4669732      0.73160787   
     10200  -6111.1247     -6179.1671      68.042458      14639.367      406.48599      8802.7305      1.4681124      0.73160787   
     10300  -6112.3601     -6178.3027      65.942606      12717.841      393.94147      8796.546       1.4691446      0.73160787   
     10400  -6111.5947     -6180.7172      69.122539      13714.9        412.93841      8791.9641      1.4699102      0.73160787   
     10500  -6110.5917     -6178.8204      68.228652      17893.424      407.59832      8792.264       1.4698601      0.73160787   
     10600  -6110.549      -6180.6043      70.055336      17987.295      418.51094      8799.7037      1.4686174      0.73160787   
     10700  -6113.7279     -6181.0114      67.283461      13418.454      401.95174      8813.4583      1.4663254      0.73160787   
     10800  -6114.1805     -6180.7182      66.537704      12833.41       397.49659      8828.4608      1.4638336      0.73160787   
     10900  -6115.911      -6182.055       66.143956      13581.216      395.14433      8836.1449      1.4625607      0.73160787   
     11000  -6117.2541     -6183.5326      66.278463      15732.183      395.94788      8833.6477      1.4629741      0.82336098   
     11100  -6115.182      -6179.2531      64.071055      14227.481      382.76081      8823.7193      1.4646202      0.82336098   
     11200  -6115.7405     -6182.9167      67.176223      16251.455      401.3111       8811.9578      1.4665751      0.82336098   
     11300  -6112.5877     -6181.0742      68.486543      14550.166      409.13896      8799.2777      1.4686885      0.82336098   
     11400  -6113.4635     -6180.9677      67.5042        17338          403.27044      8789.8001      1.4702721      0.82336098   
     11500  -6112.7178     -6180.8117      68.09388       13107.537      406.79319      8787.5028      1.4706565      0.82336098   
     11600  -6113.4664     -6180.6659      67.199496      12998.28       401.45014      8792.96        1.4697437      0.82336098   
     11700  -6114.2751     -6182.3081      68.033034      10793.011      406.42969      8805.272       1.4676887      0.82336098   
     11800  -6112.1645     -6180.4566      68.29204       11880.57       407.977        8820.3481      1.46518        0.82336098   
     11900  -6113.1829     -6180.8749      67.691929      15388.443      404.39193      8837.1558      1.4623933      0.82336098   
     12000  -6114.0742     -6180.3911      66.316865      16335.63       396.17729      8854.1698      1.4595832      0.89619052   
     12100  -6114.1086     -6181.7429      67.634313      8689.973       404.04774      8870.1774      1.4569492      0.89619052   
     12200  -6113.4683     -6179.5667      66.098405      12672.684      394.87221      8878.28        1.4556195      0.89619052   
     12300  -6113.4417     -6181.8749      68.433252      12809.38       408.8206       8875.9981      1.4559938      0.89619052   
     12400  -6115.6797     -6183.7016      68.021875      13778.148      406.36303      8864.1672      1.4579371      0.89619052   
     12500  -6115.5758     -6181.1646      65.588843      15818.98       391.82809      8842.6581      1.4614834      0.89619052   
     12600  -6114.1889     -6183.2593      69.070387      14389.808      412.62685      8817.1676      1.4657086      0.89619052   
     12700  -6113.6703     -6182.3608      68.690467      14682.148      410.3572       8791.2312      1.4700328      0.89619052   
     12800  -6114.4598     -6182.2227      67.762883      13793.656      404.81581      8769.1663      1.4737316      0.89619052   
     12900  -6113.8935     -6180.6779      66.784451      18912.243      398.97065      8757.1142      1.4757599      0.89619052   
     13000  -6114.1378     -6182.7753      68.637559      18014.1        410.04113      8759.3802      1.4753781      0.72539573   
     13100  -6114.8383     -6180.3077      65.46934       20017.15       391.11417      8773.7165      1.4729673      0.72539573   
     13200  -6115.4942     -6183.4345      67.940342      14059.48       405.87595      8801.3789      1.4683379      0.72539573   
     13300  -6116.1037     -6183.2642      67.160532      10737.231      401.21737      8836.9132      1.4624335      0.72539573   
     13400  -6117.133      -6180.7213      63.588351      11369.555      379.87714      8873.3715      1.4564248      0.72539573   
     13500  -6117.4485     -6184.0714      66.622874      12231.429      398.0054       8904.7907      1.451286       0.72539573   
     13600  -6117.666      -6184.4873      66.821373      12032.852      399.19122      8922.2867      1.4484401      0.72539573   
     13700  -6117.0697     -6180.9801      63.910408      15300.378      381.80111      8920.5899      1.4487156      0.72539573   
     13800  -6116.9228     -6183.3239      66.401079      12807.307      396.68039      8898.7934      1.4522641      0.72539573   
     13900  -6116.8791     -6182.9806      66.101442      13643.88       394.89036      8858.0869      1.4589378      0.72539573   
     14000  -6114.8036     -6183.1654      68.361737      16141.78       408.39337      8805.2884      1.4676859      0.81628928   
     14100  -6112.2538     -6179.6792      67.425382      18934.527      402.79958      8750.4254      1.476888       0.81628928   
     14200  -6110.9117     -6179.6685      68.756872      18463.806      410.75391      8709.2856      1.4838643      0.81628928   
     14300  -6109.46       -6179.1974      69.737403      20751.965      416.6116       8693.8466      1.4864994      0.81628928   
     14400  -6111.9435     -6181.2144      69.270868      19395.632      413.82452      8710.9001      1.4835893      0.81628928   
     14500  -6113.0054     -6181.0552      68.049866      14394.899      406.53025      8753.8156      1.476316       0.81628928   
     14600  -6116.1967     -6180.3826      64.185816      14485.913      383.4464       8813.7033      1.4662847      0.81628928   
     14700  -6115.3155     -6181.7673      66.451757      11350.242      396.98314      8881.6586      1.4550658      0.81628928   
     14800  -6115.7786     -6181.0607      65.282079      10014.566      389.99548      8939.7385      1.4456125      0.81628928   
     14900  -6115.7948     -6181.6603      65.865436      11504.376      393.48045      8976.6359      1.4396705      0.81628928   
     15000  -6117.0084     -6180.7364      63.727947      11331.401      380.71109      8984.5041      1.4384097      0.74851597   
     15100  -6116.7354     -6182.8802      66.144772      12276.27       395.14921      8963.7085      1.4417468      0.74851597   
     15200  -6115.6616     -6181.8256      66.164013      15217.469      395.26415      8920.4829      1.448733       0.74851597   
     15300  -6115.038      -6182.4671      67.429087      15160.898      402.82172      8864.7418      1.4578426      0.74851597   
     15400  -6115.3218     -6182.3435      67.021636      14147.734      400.3876       8803.4989      1.4679843      0.74851597   
     15500  -6113.5195     -6181.4926      67.973175      12119.863      406.0721       8748.5244      1.4772089      0.74851597   
     15600  -6114.0568     -6180.9858      66.928967      20502.665      399.83399      8712.9698      1.4832368      0.74851597   
     15700  -6115.388      -6183.2153      67.827348      19039.135      405.20093      8698.3433      1.485731       0.74851597   
     15800  -6115.3836     -6183.4986      68.115083      17519.198      406.91986      8702.0109      1.4851048      0.74851597   
     15900  -6114.796      -6181.3953      66.599234      20111.176      397.86417      8723.6936      1.4814135      0.74851597   
     16000  -6115.0079     -6180.8475      65.839609      16032.57       393.32616      8758.8715      1.4754638      0.7303146    
     16100  -6113.9056     -6181.1138      67.208264      13054.062      401.50252      8799.0582      1.4687251      0.7303146    
     16200  -6113.5999     -6181.6397      68.039819      14618.354      406.47023      8835.7674      1.4626231      0.7303146    
     16300  -6113.8438     -6179.7804      65.936622      13816.668      393.90572      8865.9276      1.4576476      0.7303146    
     16400  -6114.6284     -6182.4454      67.816948      15146.991      405.13879      8885.9814      1.454358       0.7303146    
     16500  -6114.8687     -6182.2116      67.342911      13290.978      402.3069       8890.8313      1.4535646      0.7303146    
     16600  -6114.2363     -6181.145       66.908754      14754.5        399.71324      8879.1494      1.455477       0.7303146    
     16700  -6115.345      -6183.2416      67.896564      11780.687      405.61443      8854.5846      1.4595149      0.7303146    
     16800  -6113.9113     -6182.3699      68.458629      12938.469      408.9722       8820.253       1.4651958      0.7303146    
     16900  -6113.932      -6180.96        67.02807       14189.794      400.42604      8786.0011      1.4709078      0.7303146    
     17000  -6112.5379     -6181.2387      68.700818      16521.722      410.41904      8758.2792      1.4755636      0.81595077   
     17100  -6110.0502     -6179.307       69.256742      14739.312      413.74014      8740.3068      1.4785977      0.81595077   
     17200  -6112.9772     -6183.205       70.227786      18107.098      419.54116      8736.8787      1.4791779      0.81595077   
     17300  -6111.0076     -6180.4934      69.48577       15682.019      415.10835      8742.76        1.4781828      0.81595077   
     17400  -6111.4737     -6178.8916      67.41793       15810.427      402.75506      8756.7235      1.4758257      0.81595077   
     17500  -6110.2894     -6179.615       69.325641      16976.336      414.15173      8779.4987      1.4719972      0.81595077   
     17600  -6112.977      -6179.4928      66.515798      13847.041      397.36572      8807.7255      1.4672798      0.81595077   
     17700  -6114.9673     -6181.1306      66.163288      11510.091      395.25982      8831.5951      1.4633141      0.81595077   
     17800  -6116.3443     -6182.8507      66.506416      13286.274      397.30967      8844.2492      1.4612205      0.81595077   
     17900  -6115.4534     -6182.1068      66.653403      16564.116      398.18777      8846.956       1.4607734      0.81595077   
     18000  -6114.7912     -6184.6721      69.880862      14409.038      417.46863      8843.8699      1.4612831      0.9680599    
     18100  -6113.891      -6182.6547      68.763752      12523.084      410.79501      8830.2575      1.4635358      0.9680599    
     18200  -6116.1264     -6181.3247      65.198295      13391.226      389.49495      8810.6842      1.4667871      0.9680599    
     18300  -6114.734      -6182.5588      67.824879      14732.988      405.18618      8789.9599      1.4702454      0.9680599    
     18400  -6115.1461     -6182.3605      67.214426      16712.97       401.53933      8769.5678      1.4736642      0.9680599    
     18500  -6111.9142     -6181.1796      69.265465      17361.805      413.79225      8753.3741      1.4763905      0.9680599    
     18600  -6112.1788     -6181.4617      69.282903      17953.577      413.89642      8747.3626      1.4774051      0.9680599    
     18700  -6112.4742     -6180.1824      67.708212      15073.402      404.48921      8752.9241      1.4764663      0.9680599    
     18800  -6110.4642     -6181.7035      71.239346      16086.996      425.58422      8771.4752      1.4733437      0.9680599    
     18900  -6110.9121     -6178.6066      67.694439      16407.707      404.40693      8799.4285      1.4686633      0.9680599    
     19000  -6113.1767     -6182.7248      69.548051      16887.036      415.48042      8834.7031      1.4627993      0.71460286   
     19100  -6113.9478     -6181.0772      67.129445      14803.658      401.03165      8865.6995      1.4576851      0.71460286   
     19200  -6112.7809     -6179.4394      66.658586      14032.899      398.21873      8888.1786      1.4539984      0.71460286   
     19300  -6110.9933     -6178.6672      67.673888      14039.531      404.28416      8902.5258      1.4516552      0.71460286   
     19400  -6111.3232     -6178.8557      67.532489      11561.615      403.43944      8910.2239      1.450401       0.71460286   
     19500  -6111.2929     -6179.4588      68.165853      14676.69       407.22316      8908.3128      1.4507122      0.71460286   
     19600  -6111.8083     -6178.5717      66.763393      11821.191      398.84485      8897.9806      1.4523967      0.71460286   
     19700  -6111.4887     -6180.2254      68.73665       12794.411      410.6331       8880.3101      1.4552868      0.71460286   
     19800  -6111.9609     -6178.7948      66.833865      13730.694      399.26585      8856.3583      1.4592226      0.71460286   
     19900  -6109.2042     -6179.5824      70.378166      15560.457      420.43953      8830.3064      1.4635277      0.71460286   
     20000  -6112.225      -6180.0572      67.832264      19831.74       405.2303       8808.4912      1.4671523      0.73877129   
     20100  -6113.698      -6181.3208      67.622823      17726.559      403.97909      8792.5572      1.4698111      0.73877129   
     20200  -6112.2186     -6181.6493      69.430667      17016.432      414.77916      8785.664       1.4709643      0.73877129   
     20300  -6111.6679     -6180.1319      68.464004      16946.827      409.00431      8790.8895      1.4700899      0.73877129   
     20400  -6112.2593     -6178.7432      66.483892      15405.604      397.17512      8807.3863      1.4673363      0.73877129   
     20500  -6114.4928     -6180.2395      65.746649      16331.087      392.77082      8832.9598      1.463088       0.73877129   
     20600  -6111.1345     -6180.4693      69.334803      14644.479      414.20647      8860.9865      1.4584604      0.73877129   
     20700  -6111.6701     -6179.8546      68.184482      13078.998      407.33444      8888.2119      1.453993       0.73877129   
     20800  -6113.099      -6180.1899      67.090891      11881.297      400.80133      8912.6678      1.4500033      0.73877129   
     20900  -6113.4173     -6181.3881      67.970745      11563.876      406.05758      8930.5888      1.4470936      0.73877129   
     21000  -6114.5287     -6180.8226      66.293918      13868.979      396.04021      8934.1689      1.4465137      0.86919145   
     21100  -6115.045      -6181.9317      66.886731      14052.551      399.58167      8918.6041      1.4490382      0.86919145   
     21200  -6112.4282     -6179.5892      67.16105       14943.204      401.22046      8882.0066      1.4550088      0.86919145   
     21300  -6111.8743     -6182.1888      70.314513      11629.133      420.05926      8835.3874      1.4626861      0.86919145   
     21400  -6111.1473     -6179.3636      68.216341      15671.475      407.52477      8789.0742      1.4703935      0.86919145   
     21500  -6111.2736     -6180.7174      69.443718      13690.01       414.85713      8753.8481      1.4763105      0.86919145   
     21600  -6115.1228     -6183.2946      68.171858      16836.442      407.25903      8734.1207      1.479645       0.86919145   
     21700  -6115.3479     -6179.6422      64.294269      22020.17       384.09429      8729.8794      1.4803639      0.86919145   
     21800  -6112.8428     -6181.9519      69.109108      17634.729      412.85817      8745.7539      1.4776768      0.86919145   
     21900  -6111.7376     -6180.5907      68.853163      16993.724      411.32915      8780.0405      1.4719064      0.86919145   
     22000  -6110.258      -6179.3776      69.119664      18673.216      412.92123      8826.9527      1.4640837      0.74850472   
     22100  -6110.5971     -6180.9714      70.374317      13990.119      420.41653      8884.1558      1.4546568      0.74850472   
     22200  -6111.5543     -6179.6961      68.141714      12897.23       407.07895      8938.6685      1.4457856      0.74850472   
     22300  -6111.6095     -6178.9465      67.33699       10525.383      402.27152      8981.6888      1.4388606      0.74850472   
     22400  -6113.5079     -6178.8371      65.329175      15030.232      390.27683      9003.8828      1.4353139      0.74850472   
     22500  -6113.9895     -6181.9555      67.965979      11306.497      406.02911      9000.832       1.4358004      0.74850472   
     22600  -6113.4192     -6179.7679      66.348673      13392.799      396.36731      8966.8145      1.4412474      0.74850472   
     22700  -6110.6321     -6180.4834      69.851291      15387.443      417.29197      8912.222       1.4500759      0.74850472   
     22800  -6111.3741     -6178.424       67.049895      18088.977      400.55642      8853.4018      1.4597099      0.74850472   
     22900  -6109.1281     -6178.3253      69.197205      17658.766      413.38446      8799.0879      1.4687202      0.74850472   
     23000  -6106.9618     -6177.7892      70.827408      16243.279      423.1233       8760.3814      1.4752095      0.74941433   
     23100  -6108.1455     -6178.1622      70.016699      18020.594      418.28012      8746.0406      1.4776284      0.74941433   
     23200  -6108.9323     -6181.2777      72.345395      18704.963      432.19176      8758.2195      1.4755737      0.74941433   
     23300  -6110.8702     -6179.9779      69.107705      20757.702      412.84979      8787.8392      1.4706002      0.74941433   
     23400  -6110.2424     -6178.7134      68.471005      13582.611      409.04614      8831.9674      1.4632524      0.74941433   
     23500  -6111.7755     -6178.7699      66.99444       13149.444      400.22513      8882.3354      1.454955       0.74941433   
     23600  -6112.1792     -6180.9728      68.793616      10543.035      410.97342      8927.9748      1.4475173      0.74941433   
     23700  -6114.9623     -6182.7515      67.789201      11531.073      404.97304      8958.8657      1.4425261      0.74941433   
     23800  -6114.56       -6181.9175      67.357494      12944.801      402.39402      8969.7993      1.4407678      0.74941433   
     23900  -6111.9582     -6181.6606      69.702317      14832.857      416.402        8961.3834      1.4421209      0.74941433   
     24000  -6111.6958     -6177.8976      66.201775      15441.665      395.48975      8937.894       1.4459109      0.75140551   
     24100  -6111.3383     -6179.2573      67.919001      15930.432      405.74846      8906.5941      1.4509921      0.75140551   
     24200  -6109.6128     -6178.7753      69.162528      16436.767      413.1773       8870.8195      1.4568437      0.75140551   
     24300  -6107.9171     -6176.6209      68.703723      13897.695      410.43639      8839.2598      1.4620453      0.75140551   
     24400  -6108.5535     -6178.2344      69.680952      16053.691      416.27437      8821.46        1.4649954      0.75140551   
     24500  -6108.9453     -6180.2757      71.330319      16435.918      426.1277       8819.696       1.4652884      0.75140551   
     24600  -6110.1251     -6178.3514      68.226251      14565.008      407.58397      8828.5499      1.4638189      0.75140551   
     24700  -6110.7883     -6181.0557      70.267443      15561.853      419.77807      8844.426       1.4611913      0.75140551   
     24800  -6111.6941     -6179.6845      67.99031       16217.686      406.17446      8860.4111      1.4585551      0.75140551   
     24900  -6111.5189     -6180.0623      68.543339      14394.583      409.47826      8874.7449      1.4561994      0.75140551   
     25000  -6112.2457     -6179.4061      67.16043       14444.929      401.21676      8883.6438      1.4547407      0.76621721   
     25100  -6113.5902     -6179.2613      65.671053      13792.637      392.31921      8887.6735      1.4540811      0.76621721   
     25200  -6113.1531     -6182.6144      69.461311      13398.224      414.96223      8884.3016      1.454633       0.76621721   
     25300  -6114.2169     -6182.2519      68.03499       13398.251      406.44138      8873.5139      1.4564014      0.76621721   
     25400  -6113.4215     -6179.557       66.135492      18119.303      395.09377      8858.3811      1.4588894      0.76621721   
     25500  -6113.5582     -6179.3024      65.744204      17747.723      392.75621      8844.3784      1.4611991      0.76621721   
     25600  -6111.2031     -6180.2244      69.021229      15011.186      412.33318      8833.1935      1.4630493      0.76621721   
     25700  -6109.4972     -6179.3889      69.891685      19923.361      417.53329      8826.0605      1.4642317      0.76621721   
     25800  -6108.2226     -6179.1599      70.937308      15498.741      423.77984      8828.6763      1.4637979      0.76621721   
     25900  -6108.781      -6174.9533      66.172268      15759.35       395.31347      8839.0941      1.4620727      0.76621721   
     26000  -6110.37       -6180.1167      69.746651      16107.504      416.66685      8857.3084      1.459066       0.72942717   
     26100  -6110.9207     -6178.8186      67.897917      15102.282      405.62251      8878.5802      1.4555703      0.72942717   
     26200  -6110.6186     -6178.1841      67.565464      15432.301      403.63643      8897.9167      1.4524072      0.72942717   
     26300  -6112.2399     -6179.7439      67.503961      11463.966      403.26901      8909.7178      1.4504834      0.72942717   
     26400  -6112.0939     -6181.6513      69.557423      14142.949      415.5364       8911.3198      1.4502227      0.72942717   
     26500  -6110.9114     -6176.7265      65.815029      17487.535      393.17933      8897.0415      1.45255        0.72942717   
     26600  -6112.7331     -6179.8729      67.139805      17174.694      401.09354      8874.1915      1.4562902      0.72942717   
     26700  -6112.2542     -6181.4921      69.237989      17700.036      413.6281       8849.0643      1.4604254      0.72942717   
     26800  -6111.8735     -6180.3708      68.497255      17577.136      409.20295      8824.8662      1.4644299      0.72942717   
     26900  -6114.0154     -6182.8878      68.872429      20518.814      411.44425      8806.4483      1.4674926      0.72942717   
     27000  -6113.1906     -6181.4347      68.244134      17142.594      407.69081      8788.7676      1.4704448      0.76784846   
     27100  -6110.6663     -6178.1036      67.437353      16209.362      402.87109      8775.855       1.4726084      0.76784846   
     27200  -6109.9376     -6179.9666      70.028909      15943.763      418.35307      8775.7943      1.4726186      0.76784846   
     27300  -6112.3617     -6179.3573      66.995576      17053.97       400.23192      8788.8674      1.4704281      0.76784846   
     27400  -6113.0941     -6180.7556      67.661508      15962.638      404.2102       8814.981       1.4660721      0.76784846   
     27500  -6114.9191     -6180.1806      65.26149       13402.116      389.87248      8851.2137      1.4600707      0.76784846   
     27600  -6113.4349     -6181.7169      68.281999      13653.574      407.91701      8887.1071      1.4541738      0.76784846   
     27700  -6112.6787     -6181.0109      68.332224      11338.098      408.21706      8913.1985      1.449917       0.76784846   
     27800  -6108.1745     -6178.4684      70.293835      15712.788      419.93573      8927.9467      1.4475218      0.76784846   
     27900  -6107.6613     -6177.3074      69.646149      12189.763      416.06645      8935.1115      1.4463611      0.76784846   
     28000  -6110.0153     -6178.4379      68.422689      18434.054      408.7575       8937.5047      1.4459738      0.853076     
     28100  -6109.9139     -6178.8962      68.982377      17177.135      412.10107      8935.1099      1.4463614      0.853076     
     28200  -6110.5482     -6177.9399      67.39171       18469.33       402.59842      8923.7881      1.4481964      0.853076     
     28300  -6112.3416     -6181.0964      68.754805      18366.037      410.74156      8900.0507      1.4520589      0.853076     
     28400  -6111.3481     -6180.1547      68.806682      16702.966      411.05147      8863.3333      1.4580742      0.853076     
     28500  -6111.467      -6178.4259      66.958937      15315.611      400.01303      8823.4532      1.4646644      0.853076     
     28600  -6111.7975     -6180.1799      68.382323      13754.813      408.51635      8789.7261      1.4702845      0.853076     
     28700  -6112.35       -6182.7022      70.352211      20655.003      420.28447      8760.353       1.4752143      0.853076     
     28800  -6110.3919     -6178.884       68.492113      18762.872      409.17224      8742.9264      1.4781547      0.853076     
     28900  -6109.5942     -6179.1145      69.520267      18344.111      415.31443      8747.2373      1.4774262      0.853076     
     29000  -6108.5838     -6180.2299      71.646153      17155.168      428.01449      8771.3915      1.4733578      0.73343836   
     29100  -6111.5817     -6179.8533      68.271611      14883.449      407.85495      8815.7774      1.4659397      0.73343836   
     29200  -6113.0891     -6180.8589      67.769855      18325.815      404.85746      8871.6452      1.4567082      0.73343836   
     29300  -6112.2958     -6179.7603      67.464454      16378.328      403.033        8929.1271      1.4473305      0.73343836   
     29400  -6111.8095     -6178.7344      66.924866      13067.931      399.80949      8977.1976      1.4395804      0.73343836   
     29500  -6110.4387     -6178.9556      68.516906      11853.816      409.32035      9006.694       1.4348659      0.73343836   
     29600  -6111.2501     -6178.3432      67.093083      9917.3105      400.81442      9011.9245      1.4340331      0.73343836   
     29700  -6110.3811     -6179.5978      69.216621      14304.66       413.50045      8992.2642      1.4371684      0.73343836   
     29800  -6110.6347     -6180.3762      69.741499      17006.14       416.63607      8955.0886      1.4431346      0.73343836   
     29900  -6109.6151     -6178.0453      68.430293      12224.819      408.80292      8904.9786      1.4512554      0.73343836   
     30000  -6110.9822     -6180.4571      69.474941      15434.904      415.04366      8849.9145      1.4602851      0.79026644   
     30100  -6108.9393     -6178.7483      69.809023      16466.469      417.03946      8796.0846      1.4692216      0.79026644   
     30200  -6110.6444     -6180.1103      69.465891      17308.615      414.98959      8759.0767      1.4754292      0.79026644   
     30300  -6110.0216     -6179.2814      69.259823      17910.548      413.75854      8741.2047      1.4784459      0.79026644   
     30400  -6114.1955     -6183.994       69.798516      17939.747      416.97669      8743.3762      1.4780787      0.79026644   
     30500  -6115.2601     -6182.6844      67.42432       18524.862      402.79324      8759.6931      1.4753254      0.79026644   
     30600  -6114.0353     -6183.7752      69.73991       14189.374      416.62658      8782.5229      1.4714904      0.79026644   
     30700  -6113.7351     -6179.4471      65.712037      13500.537      392.56405      8812.244       1.4665275      0.79026644   
     30800  -6112.7805     -6181.7176      68.937167      12237.744      411.83099      8847.6476      1.4606592      0.79026644   
     30900  -6111.3363     -6180.1074      68.771047      13721.754      410.83859      8880.8165      1.4552038      0.79026644   
     31000  -6111.5862     -6178.8664      67.28022       11781.274      401.93238      8903.9132      1.451429       0.74363449   
     31100  -6111.5111     -6179.9449      68.43377       14532.323      408.82369      8916.9054      1.4493142      0.74363449   
     31200  -6110.9706     -6178.1459      67.175213      14702.778      401.30507      8921.7759      1.448523       0.74363449   
     31300  -6109.4739     -6179.7107      70.236785      12572.425      419.59492      8917.7442      1.4491779      0.74363449   
     31400  -6108.9641     -6179.8734      70.909266      13960.846      423.61232      8904.1475      1.4513908      0.74363449   
     31500  -6106.5021     -6177.2062      70.704074      17129.348      422.3865       8887.3488      1.4541342      0.74363449   
     31600  -6106.8835     -6175.9068      69.023287      14701.97       412.34547      8873.3757      1.4564241      0.74363449   
     31700  -6107.3539     -6177.2198      69.865944      15742.641      417.37951      8863.6272      1.4580259      0.74363449   
     31800  -6108.4116     -6178.333       69.921418      14083.563      417.71091      8854.5044      1.4595281      0.74363449   
     31900  -6109.4002     -6179.359       69.958867      15288.974      417.93463      8847.4872      1.4606857      0.74363449   
     32000  -6111.5608     -6179.8048      68.243979      13240.195      407.68988      8844.9346      1.4611072      0.74208117   
     32100  -6110.5971     -6179.9581      69.360983      14492.715      414.36287      8848.4312      1.4605298      0.74208117   
     32200  -6113.177      -6179.6994      66.522376      14980.48       397.40502      8855.151       1.4594215      0.74208117   
     32300  -6113.7395     -6181.1857      67.44613       9789.8847      402.92353      8861.9424      1.4583031      0.74208117   
     32400  -6114.5488     -6181.2218      66.67298       16778.42       398.30472      8862.6136      1.4581926      0.74208117   
     32500  -6113.9228     -6180.2023      66.279509      17787.864      395.95413      8856.922       1.4591297      0.74208117   
     32600  -6115.0327     -6181.5244      66.491715      17103.717      397.22185      8849.4639      1.4603594      0.74208117   
     32700  -6114.1169     -6180.7824      66.665429      14418.61       398.25962      8836.0461      1.462577       0.74208117   
     32800  -6111.082      -6181.0294      69.947406      18200.102      417.86617      8822.4734      1.4648271      0.74208117   
     32900  -6108.763      -6179.4036      70.640622      14145.672      422.00744      8814.3257      1.4661811      0.74208117   
     33000  -6109.1449     -6178.5301      69.385222      14254.983      414.50768      8819.6162      1.4653016      0.75797759   
     33100  -6112.423      -6181.5667      69.143665      18658.661      413.06461      8834.6791      1.4628033      0.75797759   
     33200  -6112.6251     -6179.6647      67.039543      15732.017      400.49458      8852.5536      1.4598497      0.75797759   
     33300  -6113.2199     -6181.3655      68.145603      16113.938      407.10218      8870.3862      1.4569149      0.75797759   
     33400  -6111.7987     -6179.6882      67.889511      14197.195      405.57229      8881.3526      1.455116       0.75797759   
     33500  -6109.8783     -6179.078       69.199705      14199.442      413.3994       8886.2216      1.4543187      0.75797759   
     33600  -6109.4717     -6177.8911      68.4194        17531.131      408.73785      8885.8699      1.4543762      0.75797759   
     33700  -6111.1927     -6179.5599      68.367219      12222.585      408.42612      8880.2717      1.4552931      0.75797759   
     33800  -6112.2888     -6180.2679      67.979114      14359.115      406.10758      8866.6913      1.457522       0.75797759   
     33900  -6110.9149     -6179.0018      68.086947      17831.885      406.75177      8847.0769      1.4607534      0.75797759   
     34000  -6111.7402     -6180.8879      69.14761       10174.999      413.08818      8829.6651      1.463634       0.77031822   
     34100  -6114.6908     -6181.3799      66.689187      15045.863      398.40155      8810.1653      1.4668735      0.77031822   
     34200  -6116.584      -6183.3272      66.743205      15424.357      398.72425      8789.9219      1.4702517      0.77031822   
     34300  -6115.7026     -6181.2576      65.555034      17022.475      391.62611      8767.0557      1.4740864      0.77031822   
     34400  -6115.0009     -6182.7704      67.769497      16143.76       404.85532      8750.6045      1.4768577      0.77031822   
     34500  -6114.0772     -6180.3094      66.232186      15852.491      395.67142      8744.3594      1.4779125      0.77031822   
     34600  -6114.3931     -6182.2833      67.89022       9797.6619      405.57652      8750.5454      1.4768677      0.77031822   
     34700  -6112.7984     -6181.3047      68.506319      15268.025      409.2571       8764.1795      1.4745702      0.77031822   
     34800  -6111.0591     -6179.0956      68.036472      18087.391      406.45023      8787.3374      1.4706842      0.77031822   
     34900  -6111.842      -6180.7197      68.877704      17072.273      411.47576      8821.413       1.4650032      0.77031822   
     35000  -6109.8837     -6177.8758      67.992093      16272.168      406.18512      8858.1445      1.4589283      0.72801278   
     35100  -6109.8664     -6180.0268      70.160437      9579.9235      419.13881      8894.4891      1.4529669      0.72801278   
     35200  -6111.9002     -6178.675       66.774858      12081.793      398.91335      8922.9047      1.4483398      0.72801278   
     35300  -6110.2326     -6179.0817      68.849162      15276.636      411.30525      8940.1979      1.4455382      0.72801278   
     35400  -6110.0516     -6179.5857      69.534104      12506.365      415.3971       8945.5156      1.4446789      0.72801278   
     35500  -6112.1839     -6180.0951      67.911219      9575.2429      405.70197      8935.4574      1.4463051      0.72801278   
     35600  -6111.2705     -6179.3309      68.060464      12831.723      406.59356      8908.1492      1.4507388      0.72801278   
     35700  -6109.1986     -6178.7044      69.505843      17590.085      415.22827      8869.9748      1.4569825      0.72801278   
     35800  -6110.4293     -6177.1301      66.7008        16295.468      398.47092      8830.193       1.4635465      0.72801278   
     35900  -6109.664      -6179.4181      69.754146      15310.178      416.71163      8794.1929      1.4695377      0.72801278   
     36000  -6109.0617     -6181.3931      72.331436      19202.989      432.10837      8768.5107      1.4738418      0.72633696   
     36100  -6108.3518     -6177.3425      68.990622      21175.331      412.15033      8755.8035      1.4759808      0.72633696   
     36200  -6109.2968     -6179.9013      70.604461      16082.563      421.79141      8761.2632      1.475061       0.72633696   
     36300  -6109.1423     -6178.6577      69.515337      15892.814      415.28498      8782.0448      1.4715705      0.72633696   
     36400  -6107.1246     -6177.946       70.82133       13936.645      423.08699      8814.7808      1.4661054      0.72633696   
     36500  -6109.7655     -6178.1869      68.421395      14002.417      408.74977      8858.0816      1.4589387      0.72633696   
     36600  -6108.3393     -6179.5855      71.246153      11636.205      425.62489      8905.828       1.4511169      0.72633696   
     36700  -6108.5242     -6176.4879      67.963722      11829.023      406.01562      8946.9988      1.4444394      0.72633696   
     36800  -6109.1605     -6177.6237      68.463254      9063.6121      408.99983      8978.7355      1.4393339      0.72633696   
     36900  -6109.0297     -6177.6163      68.586584      11473.272      409.73661      8992.6985      1.437099       0.72633696   
     37000  -6111.3013     -6179.7617      68.460475      12668.338      408.98323      8989.1755      1.4376622      0.72755313   
     37100  -6111.0606     -6178.3093      67.248651      10311.928      401.74379      8967.1743      1.4411896      0.72755313   
     37200  -6110.7646     -6181.2863      70.521724      12791.207      421.29714      8932.3754      1.4468042      0.72755313   
     37300  -6112.8888     -6179.1125      66.223705      17481.542      395.62076      8886.2871      1.4543079      0.72755313   
     37400  -6111.9555     -6179.4165      67.461067      14441.378      403.01276      8838.7026      1.4621374      0.72755313   
     37500  -6112.7243     -6182.8186      70.094354      15636.265      418.74403      8799.4332      1.4686625      0.72755313   
     37600  -6114.8068     -6182.8609      68.054077      16229.917      406.5554       8772.0846      1.4732414      0.72755313   
     37700  -6111.2634     -6179.1944      67.931014      16799.98       405.82023      8757.5012      1.4756947      0.72755313   
     37800  -6110.7696     -6179.1659      68.39629       15474.837      408.59979      8760.3142      1.4752208      0.72755313   
     37900  -6111.6686     -6180.8305      69.161897      14652.455      413.17353      8780.2848      1.4718655      0.72755313   
     38000  -6112.9735     -6181.6037      68.630147      16664.651      409.99685      8811.3672      1.4666734      0.76130779   
     38100  -6113.5575     -6181.8763      68.318851      19488.848      408.13717      8846.6984      1.4608159      0.76130779   
     38200  -6115.2245     -6180.9621      65.737535      14365.237      392.71637      8879.0489      1.4554935      0.76130779   
     38300  -6114.9212     -6182.2722      67.351066      12103.08       402.35562      8903.4767      1.4515002      0.76130779   
     38400  -6112.9408     -6180.1871      67.246368      16950.996      401.73015      8913.2908      1.449902       0.76130779   
     38500  -6115.0229     -6180.8103      65.787323      12209.086      393.0138       8913.5927      1.4498529      0.76130779   
     38600  -6112.5405     -6181.6713      69.130787      11620.04       412.98768      8904.7631      1.4512905      0.76130779   
     38700  -6114.062      -6183.2396      69.177551      14837.342      413.26705      8887.0988      1.4541751      0.76130779   
     38800  -6113.4179     -6179.4682      66.050309      15146.02       394.58489      8861.9521      1.4583015      0.76130779   
     38900  -6111.2281     -6179.1127      67.884573      14068.107      405.54279      8838.7268      1.4621334      0.76130779   
     39000  -6112.0403     -6179.1671      67.126845      16561.93       401.01612      8822.4492      1.4648311      0.79806972   
     39100  -6111.4382     -6180.1429      68.704661      17589.163      410.442        8814.1599      1.4662087      0.79806972   
     39200  -6110.0161     -6180.0184      70.002301      20080.501      418.19411      8813.2214      1.4663648      0.79806972   
     39300  -6109.6529     -6179.0501      69.397172      18943.727      414.57906      8822.2156      1.4648699      0.79806972   
     39400  -6110.5979     -6181.8241      71.226167      14165.379      425.50549      8840.0728      1.4619108      0.79806972   
     39500  -6112.8083     -6179.4406      66.632288      16046.64       398.06163      8859.8194      1.4586525      0.79806972   
     39600  -6115.2668     -6184.3805      69.113778      12779.615      412.88606      8878.5406      1.4555768      0.79806972   
     39700  -6114.0786     -6179.6582      65.579658      17491.628      391.77322      8885.7364      1.4543981      0.79806972   
     39800  -6114.1641     -6180.5037      66.339613      12140.923      396.31319      8881.87        1.4550312      0.79806972   
     39900  -6114.1053     -6181.8491      67.743781      10253.702      404.7017       8865.9894      1.4576374      0.79806972   
     40000  -6112.7019     -6180.4859      67.783987      11984.519      404.94189      8841.9964      1.4615928      0.76968153   
     40100  -6113.4956     -6181.2846      67.788907      12109.572      404.97128      8815.5901      1.4659708      0.76968153   
     40200  -6113.2914     -6181.8351      68.543711      15377.618      409.48048      8790.2788      1.470192       0.76968153   
     40300  -6112.025      -6182.522       70.497012      16963.184      421.14951      8768.7934      1.4737943      0.76968153   
     40400  -6113.2985     -6180.9241      67.625649      22756.244      403.99597      8754.0413      1.4762779      0.76968153   
     40500  -6112.6977     -6180.8135      68.11581       18207.259      406.9242       8750.8764      1.4768118      0.76968153   
     40600  -6111.9573     -6181.7272      69.769893      16834.46       416.8057       8757.7479      1.4756531      0.76968153   
     40700  -6111.2479     -6180.1164      68.868463      22734.248      411.42055      8774.2328      1.4728807      0.76968153   
     40800  -6112.3206     -6179.819       67.498369      18033.359      403.2356       8800.0211      1.4685644      0.76968153   
     40900  -6110.6825     -6178.5537      67.871202      12977.712      405.46291      8834.0424      1.4629088      0.76968153   
     41000  -6110.4171     -6179.4764      69.05929       10724.079      412.56056      8870.3526      1.4569204      0.85939029   
     41100  -6110.0375     -6181.1589      71.121366      9711.0833      424.87941      8901.2562      1.4518623      0.85939029   
     41200  -6110.0151     -6177.8066      67.791517      15549.831      404.98687      8919.5773      1.4488801      0.85939029   
     41300  -6111.5676     -6180.3089      68.741344      10257.463      410.66114      8928.3239      1.4474607      0.85939029   
     41400  -6111.8972     -6180.188       68.290763      11756.13       407.96937      8921.87        1.4485078      0.85939029   
     41500  -6113.8806     -6179.882       66.001359      12145.433      394.29246      8900.9984      1.4519043      0.85939029   
     41600  -6113.2501     -6180.2782      67.028164      14926.855      400.4266       8866.0783      1.4576228      0.85939029   
     41700  -6111.6012     -6180.3827      68.78152       19412.017      410.90115      8823.479       1.4646601      0.85939029   
     41800  -6111.8613     -6180.1535      68.292213      15735.753      407.97803      8783.3929      1.4713446      0.85939029   
     41900  -6110.862      -6179.8587      68.996717      11126.509      412.18674      8748.0715      1.4772853      0.85939029   
     42000  -6110.6283     -6179.5743      68.945974      18457.564      411.88361      8728.7127      1.4805617      0.83597355   
     42100  -6109.55       -6179.2182      69.668204      21366.553      416.19821      8730.4021      1.4802752      0.83597355   
     42200  -6109.3344     -6178.7992      69.464787      18188.765      414.98299      8754.5793      1.4761872      0.83597355   
     42300  -6109.6365     -6178.1854      68.548961      15988.043      409.51184      8797.9781      1.4689054      0.83597355   
     42400  -6112.9788     -6180.5835      67.604762      11479.176      403.8712       8853.6174      1.4596743      0.83597355   
     42500  -6113.5074     -6179.6299      66.122511      15831.813      395.01622      8907.2353      1.4508877      0.83597355   
     42600  -6113.6997     -6181.4594      67.759627      13393.895      404.79636      8947.0104      1.4444376      0.83597355   
     42700  -6113.1815     -6180.1871      67.00562       14709.849      400.29192      8967.7368      1.4410992      0.83597355   
     42800  -6115.1081     -6180.9392      65.831102      12575.651      393.27534      8968.0279      1.4410524      0.83597355   
     42900  -6117.0842     -6181.7621      64.677848      15710.912      386.3858       8942.7913      1.445119       0.83597355   
     43000  -6115.0783     -6180.8122      65.733855      17427.438      392.69439      8898.9304      1.4522417      0.81201023   
     43100  -6116.7319     -6181.5766      64.844693      14085.908      387.38253      8847.3599      1.4607067      0.81201023   
     43200  -6115.0162     -6182.5932      67.576933      16770.199      403.70494      8795.9693      1.4692409      0.81201023   
     43300  -6115.3891     -6181.5711      66.182076      17782.54       395.37206      8752.0034      1.4766217      0.81201023   
     43400  -6115.2626     -6181.4741      66.211484      19375.112      395.54774      8725.0663      1.4811805      0.81201023   
     43500  -6116.9596     -6184.7909      67.831299      17771.12       405.22453      8716.2745      1.4826745      0.81201023   
     43600  -6114.4662     -6182.8378      68.371579      16820.703      408.45216      8724.0206      1.481358       0.81201023   
     43700  -6116.2744     -6183.7246      67.450187      13794.908      402.94776      8750.6494      1.4768502      0.81201023   
     43800  -6114.5758     -6180.996       66.420178      15089.796      396.79449      8787.2439      1.4706998      0.81201023   
     43900  -6114.3493     -6181.0351      66.685787      16475.46       398.38123      8828.0714      1.4638982      0.81201023   
     44000  -6114.1727     -6180.4808      66.30811       16731.043      396.12499      8867.1868      1.4574406      0.81396435   
     44100  -6115.662      -6182.6529      66.990848      18103.957      400.20367      8900.0225      1.4520635      0.81396435   
     44200  -6115.3886     -6178.8672      63.478648      18121.517      379.22177      8915.7358      1.4495044      0.81396435   
     44300  -6113.7143     -6180.9863      67.271933      18347.106      401.88288      8917.4594      1.4492242      0.81396435   
     44400  -6114.5782     -6182.3097      67.731459      14017.693      404.62808      8910.2608      1.450395       0.81396435   
     44500  -6113.3567     -6179.579       66.222329      13301.398      395.61254      8896.2117      1.4526855      0.81396435   
     44600  -6113.4455     -6179.6401      66.19462       15218.697      395.447        8879.5485      1.4554116      0.81396435   
     44700  -6114.4229     -6181.861       67.438038      10354.738      402.87518      8859.1198      1.4587677      0.81396435   
     44800  -6113.7627     -6181.6398      67.877185      14513.951      405.49865      8832.841       1.4631077      0.81396435   
     44900  -6113.5048     -6180.4869      66.982093      18137.607      400.15137      8808.0425      1.467227       0.81396435   
     45000  -6113.5147     -6180.8725      67.357758      18295.897      402.39559      8788.8008      1.4704393      0.74990296   
     45100  -6112.0573     -6180.0271      67.969841      15857.549      406.05218      8781.722       1.4716246      0.74990296   
     45200  -6112.9081     -6179.1485      66.24036       15216.02       395.72025      8788.4456      1.4704987      0.74990296   
     45300  -6114.795      -6182.3318      67.53682       16339.059      403.46531      8804.4318      1.4678287      0.74990296   
     45400  -6116.0647     -6181.3139      65.249151      14739.195      389.79876      8824.2422      1.4645334      0.74990296   
     45500  -6115.0116     -6182.6301      67.618509      17565.84       403.95332      8844.4946      1.4611799      0.74990296   
     45600  -6114.9981     -6179.7117      64.713571      14989.486      386.59921      8861.2626      1.4584149      0.74990296   
     45700  -6114.9666     -6182.7827      67.816101      13724.364      405.13374      8872.7484      1.456527       0.74990296   
     45800  -6112.9584     -6179.7808      66.822397      14041.51       399.19735      8877.9926      1.4556667      0.74990296   
     45900  -6113.919      -6181.897       67.977969      15688.603      406.10073      8876.9136      1.4558436      0.74990296   
     46000  -6115.3014     -6181.0697      65.768224      14625.25       392.89971      8866.7091      1.4575191      0.81219225   
     46100  -6116.0728     -6182.6506      66.577746      12520.221      397.7358       8848.3262      1.4605472      0.81219225   
     46200  -6115.1754     -6180.9542      65.77881       16419.428      392.96295      8821.5663      1.4649777      0.81219225   
     46300  -6114.3773     -6181.9208      67.543477      16618.304      403.50508      8794.8975      1.46942        0.81219225   
     46400  -6113.3565     -6180.8109      67.454414      16719.185      402.97302      8771.6546      1.4733136      0.81219225   
     46500  -6111.1784     -6178.6669      67.488425      19076.404      403.1762       8757.2039      1.4757448      0.81219225   
     46600  -6112.7369     -6181.6335      68.896529      13764.593      411.58822      8754.0581      1.4762751      0.81219225   
     46700  -6113.307      -6179.6081      66.301118      17850.885      396.08322      8763.635       1.4746618      0.81219225   
     46800  -6113.9197     -6182.9716      69.051862      16943.28       412.51618      8789.5969      1.4703061      0.81219225   
     46900  -6114.772      -6181.2558      66.48378       16790.377      397.17444      8824.1014      1.4645568      0.81219225   
     47000  -6116.2322     -6183.7229      67.490696      14583.53       403.18977      8863.4333      1.4580578      0.7572927    
     47100  -6114.7347     -6181.4123      66.677604      16548.47       398.33235      8899.3004      1.4521813      0.7572927    
     47200  -6115.8905     -6180.4028      64.512325      14038.458      385.39696      8923.3768      1.4482632      0.7572927    
     47300  -6115.6837     -6181.165       65.481335      13147.991      391.18583      8930.5441      1.4471008      0.7572927    
     47400  -6114.7002     -6183.8583      69.158099      13463.634      413.15084      8922.3584      1.4484285      0.7572927    
     47500  -6114.7093     -6182.9745      68.265197      13641.935      407.81664      8893.1172      1.453191       0.7572927    
     47600  -6115.1168     -6179.4551      64.338372      17588.758      384.35777      8847.3987      1.4607003      0.7572927    
     47700  -6114.5261     -6181.5273      67.001202      14713.102      400.26552      8791.973       1.4699087      0.7572927    
     47800  -6112.8534     -6179.6801      66.826693      15804.568      399.22301      8737.1314      1.4791351      0.7572927    
     47900  -6114.4052     -6183.6952      69.290044      17649.901      413.93908      8695.9409      1.4861414      0.7572927    
     48000  -6114.8904     -6181.4997      66.609297      23187.739      397.92428      8673.6441      1.4899617      0.80874499   
     48100  -6113.7396     -6179.3824      65.642818      23216.399      392.15053      8676.219       1.4895196      0.80874499   
     48200  -6117.5121     -6182.5895      65.07746       21583.658      388.77308      8708.3127      1.4840301      0.80874499   
     48300  -6117.6182     -6184.4201      66.801902      18802.782      399.07491      8759.607       1.4753399      0.80874499   
     48400  -6117.1877     -6184.097       66.909313      14135.084      399.71658      8817.5328      1.4656478      0.80874499   
     48500  -6118.208      -6184.3037      66.095703      12753.646      394.85607      8874.0182      1.4563186      0.80874499   
     48600  -6116.0538     -6181.7637      65.709962      16551.937      392.55165      8918.5951      1.4490396      0.80874499   
     48700  -6116.518      -6180.5785      64.060527      11823.03       382.69792      8947.7011      1.4443261      0.80874499   
     48800  -6112.9083     -6182.8408      69.932451      12896.185      417.77682      8953.665       1.443364       0.80874499   
     48900  -6111.363      -6178.4521      67.089155      12557.253      400.79095      8937.005       1.4460547      0.80874499   
     49000  -6110.4772     -6177.7671      67.289908      13985.964      401.99026      8908.111       1.450745       0.75051558   
     49100  -6109.6348     -6176.2596      66.624827      13519.199      398.01706      8872.6945      1.4565359      0.75051558   
     49200  -6108.5228     -6180.4734      71.950691      14555.824      429.8338       8843.3446      1.4613699      0.75051558   
     49300  -6109.2312     -6179.7169      70.485638      16830.075      421.08156      8820.2002      1.4652046      0.75051558   
     49400  -6108.7789     -6178.6791      69.9002        17403.295      417.58416      8803.422       1.4679971      0.75051558   
     49500  -6107.5175     -6177.8039      70.286426      18817.022      419.89147      8794.7362      1.4694469      0.75051558   
     49600  -6107.6345     -6178.6661      71.03168       19023.862      424.34362      8798.7397      1.4687783      0.75051558   
     49700  -6109.5462     -6180.2113      70.665124      17134.1        422.15381      8814.5685      1.4661407      0.75051558   
     49800  -6111.5455     -6178.739       67.193517      13616.123      401.41442      8836.2792      1.4625384      0.75051558   
     49900  -6114.5366     -6181.3565      66.819896      14753.869      399.18241      8858.1009      1.4589355      0.75051558   
     50000  -6114.8039     -6183.3459      68.541968      12933.818      409.47007      8870.4309      1.4569076      0.76954511   
     50100  -6113.7777     -6182.6194      68.841734      13022.693      411.26087      8870.8637      1.4568365      0.76954511   
     50200  -6114.7467     -6181.3029      66.556257      17908.281      397.60742      8860.2326      1.4585845      0.76954511   
     50300  -6111.7034     -6180.1042      68.400774      13895.405      408.62657      8847.3753      1.4607042      0.76954511   
     50400  -6111.1052     -6180.5506      69.445328      8089.6238      414.86675      8836.6866      1.462471       0.76954511   
     50500  -6111.0706     -6180.6796      69.609003      15914.745      415.84454      8827.5378      1.4639867      0.76954511   
     50600  -6111.9451     -6181.0731      69.128021      14864.66       412.97115      8824.5924      1.4644753      0.76954511   
     50700  -6110.812      -6179.2259      68.413903      16782.172      408.70501      8824.2306      1.4645354      0.76954511   
     50800  -6113.316      -6179.0551      65.73912       17946.391      392.72584      8829.8104      1.4636099      0.76954511   
     50900  -6110.7411     -6180.0881      69.347035      14437.541      414.27954      8841.7727      1.4616297      0.76954511   
     51000  -6113.6102     -6181.7667      68.156486      15363.174      407.1672       8857.3001      1.4590674      0.86653343   
     51100  -6113.1689     -6179.0502      65.88135       15784.577      393.57553      8867.7994      1.4573399      0.86653343   
     51200  -6114.1535     -6180.2644      66.110832      19277.045      394.94645      8872.1999      1.4566171      0.86653343   
     51300  -6114.1059     -6182.4563      68.350374      18525.085      408.32549      8872.4169      1.4565815      0.86653343   
     51400  -6115.6246     -6181.0609      65.436263      13320.796      390.91657      8865.9628      1.4576418      0.86653343   
     51500  -6113.981      -6180.1207      66.139748      12218.976      395.11919      8854.2922      1.4595631      0.86653343   
     51600  -6114.9207     -6182.5782      67.657536      13752.643      404.18647      8837.1949      1.4623869      0.86653343   
     51700  -6112.1731     -6182.8694      70.696257      15841.876      422.3398       8814.4424      1.4661617      0.86653343   
     51800  -6111.3329     -6178.0804      66.747521      15509.445      398.75003      8792.8084      1.4697691      0.86653343   
     51900  -6110.1898     -6180.1797      69.989928      14387.007      418.12019      8784.3158      1.47119        0.86653343   
     52000  -6111.2249     -6179.653       68.428145      16283.762      408.79009      8789.0059      1.470405       0.72272418   
     52100  -6114.4398     -6181.3802      66.940333      15659.44       399.90189      8802.0609      1.4682241      0.72272418   
     52200  -6115.4818     -6180.753       65.271243      15239.619      389.93074      8819.0369      1.4653979      0.72272418   
     52300  -6116.9502     -6183.1917      66.241411      10023.831      395.72653      8837.7731      1.4622912      0.72272418   
     52400  -6116.1065     -6183.3378      67.231348      10895.413      401.64042      8850.7548      1.4601464      0.72272418   
     52500  -6114.6356     -6182.0676      67.432079      14180.952      402.83959      8857.9819      1.4589551      0.72272418   
     52600  -6115.4784     -6180.9872      65.508865      15022.819      391.3503       8859.5958      1.4586893      0.72272418   
     52700  -6117.9513     -6182.629       64.677753      13606.036      386.38523      8854.0989      1.4595949      0.72272418   
     52800  -6116.6702     -6180.8496      64.179344      13861.432      383.40773      8841.6586      1.4616486      0.72272418   
     52900  -6117.5192     -6184.7524      67.233188      12719.271      401.65141      8823.913       1.4645881      0.72272418   
     53000  -6117.1355     -6183.0479      65.912403      17594.303      393.76103      8801.1893      1.4683695      0.76761267   
     53100  -6118.0677     -6182.6294      64.561697      19595.944      385.69191      8775.8169      1.4726148      0.76761267   
     53200  -6117.8621     -6184.4716      66.609478      16224.475      397.92537      8752.3497      1.4765632      0.76761267   
     53300  -6115.724      -6182.9869      67.26291       17880.844      401.82897      8738.8516      1.4788439      0.76761267   
     53400  -6115.8835     -6184.4637      68.580142      15250.312      409.69812      8738.1341      1.4789654      0.76761267   
     53500  -6117.8457     -6183.3319      65.48618       13916.449      391.21478      8749.0545      1.4771194      0.76761267   
     53600  -6117.9202     -6183.9463      66.026117      17763.956      394.44036      8770.7617      1.4734636      0.76761267   
     53700  -6117.7159     -6183.2753      65.559377      19442.042      391.65206      8799.5557      1.4686421      0.76761267   
     53800  -6116.7827     -6182.6627      65.87994       16151.97       393.5671       8835.3005      1.4627004      0.76761267   
     53900  -6113.5549     -6178.9423      65.387381      9555.5704      390.62455      8874.4858      1.4562419      0.76761267   
     54000  -6113.7377     -6180.0911      66.353338      15672.174      396.39518      8910.5806      1.450343       0.73425225   
     54100  -6114.1524     -6181.5233      67.370918      16153.714      402.47421      8938.0842      1.4458801      0.73425225   
     54200  -6114.0231     -6180.876       66.852906      8108.0933      399.3796       8952.1538      1.4436077      0.73425225   
     54300  -6113.4568     -6180.3424      66.885638      8532.336       399.57515      8948.0738      1.4442659      0.73425225   
     54400  -6113.0649     -6180.2539      67.189004      11541.6        401.38745      8927.7794      1.447549       0.73425225   
     54500  -6114.7614     -6178.7243      63.962917      15614.475      382.11479      8896.7819      1.4525924      0.73425225   
     54600  -6115.3455     -6181.9278      66.582367      16936.873      397.7634       8861.7343      1.4583373      0.73425225   
     54700  -6114.2406     -6181.2856      67.044988      18888.726      400.52711      8828.1649      1.4638827      0.73425225   
     54800  -6115.6518     -6182.8531      67.201263      15299.728      401.46069      8801.5105      1.4683159      0.73425225   
     54900  -6113.3974     -6181.0276      67.630182      18374.37       404.02305      8786.5634      1.4708137      0.73425225   
     55000  -6112.713      -6179.7246      67.011631      15150.554      400.32783      8786.2607      1.4708644      0.72146016   
     55100  -6109.7845     -6178.8634      69.078828      16409.419      412.67728      8800.4289      1.4684964      0.72146016   
[...]
   2186100  -6119.0555     -6184.9396      65.884024      17425.729      393.5915       8716.2819      1.4826732      0.75194538   
   2186200  -6118.5021     -6186.0803      67.578236      19632.313      403.71273      8709.0902      1.4838976      0.75194538   
   2186300  -6118.6372     -6186.2879      67.650706      18032.699      404.14566      8712.0179      1.4833989      0.75194538   
   2186400  -6122.8169     -6189.2839      66.467003      13924.583      397.07422      8722.8774      1.4815522      0.75194538   
   2186500  -6121.113      -6184.7108      63.597841      14599.312      379.93383      8737.1676      1.479129       0.75194538   
   2186600  -6120.6601     -6185.8801      65.219961      13777.303      389.62439      8755.7619      1.4759878      0.75194538   
   2186700  -6120.7455     -6186.7396      65.994107      15759.422      394.24913      8773.7343      1.4729644      0.75194538   
   2186800  -6120.7469     -6186.9576      66.210644      15174.171      395.54273      8788.3337      1.4705174      0.75194538   
   2186900  -6121.2311     -6187.8575      66.626456      15141.268      398.02679      8799.807       1.4686002      0.75194538   
   2187000  -6122.154      -6186.6257      64.471723      15112.678      385.1544       8805.6439      1.4676267      0.81789605   
   2187100  -6118.4897     -6185.0662      66.57648       15831.512      397.72823      8804.165       1.4678732      0.81789605   
   2187200  -6116.5394     -6184.1103      67.570852      16662.709      403.66862      8795.952       1.4692438      0.81789605   
   2187300  -6115.4851     -6182.6093      67.124175      16036.144      401.00017      8786.5512      1.4708157      0.81789605   
   2187400  -6115.8373     -6184.8312      68.993872      15247.892      412.16975      8779.7233      1.4719596      0.81789605   
   2187500  -6117.7462     -6185.0057      67.259449      17763.835      401.8083       8772.8771      1.4731083      0.81789605   
   2187600  -6116.1172     -6183.5061      67.388986      15094.896      402.58215      8768.0155      1.4739251      0.81789605   
   2187700  -6113.9326     -6183.7723      69.839749      15532.772      417.22302      8770.4636      1.4735137      0.81789605   
   2187800  -6115.0118     -6182.9375      67.925694      16786.802      405.78845      8780.7041      1.4717952      0.81789605   
   2187900  -6118.7907     -6185.744       66.95333       16166.616      399.97954      8795.0291      1.469398       0.81789605   
   2188000  -6117.4265     -6183.942       66.515469      16507.326      397.36376      8808.901       1.467084       0.76958921   
   2188100  -6120.2702     -6187.5394      67.269271      14498.892      401.86697      8816.8559      1.4657604      0.76958921   
   2188200  -6118.4873     -6185.0972      66.609898      16675.591      397.92787      8813.9441      1.4662446      0.76958921   
   2188300  -6116.8559     -6183.1569      66.300967      16326.366      396.08232      8805.1019      1.467717       0.76958921   
   2188400  -6115.1704     -6182.9954      67.824931      16369.397      405.18649      8794.0799      1.4695566      0.76958921   
   2188500  -6114.744      -6183.6788      68.934814      18266.719      411.81693      8781.7526      1.4716194      0.76958921   
   2188600  -6116.73       -6184.3238      67.593764      16726.966      403.80549      8772.5658      1.4731605      0.76958921   
   2188700  -6119.5891     -6184.3926      64.803513      18619.439      387.13652      8763.4468      1.4746935      0.76958921   
   2188800  -6119.2183     -6186.3977      67.179418      15572.673      401.33019      8756.0487      1.4759395      0.76958921   
   2188900  -6116.6184     -6185.8746      69.256224      16842.786      413.73704      8751.4409      1.4767166      0.76958921   
   2189000  -6114.0361     -6184.2605      70.224415      18867.864      419.52102      8753.84        1.4763119      0.81757237   
   2189100  -6117.2993     -6185.0568      67.75753       20431.767      404.78383      8763.1346      1.474746       0.81757237   
   2189200  -6117.3407     -6184.4901      67.149401      15435.972      401.15087      8776.316       1.4725311      0.81757237   
   2189300  -6118.674      -6184.4412      65.767272      14849.146      392.89402      8792.3292      1.4698492      0.81757237   
   2189400  -6119.2061     -6186.887       67.68088       13624.752      404.32592      8805.4418      1.4676604      0.81757237   
   2189500  -6116.512      -6184.4709      67.95893       17108.358      405.987        8811.106       1.4667169      0.81757237   
   2189600  -6115.5088     -6182.8798      67.370982      19789.147      402.47459      8809.6514      1.4669591      0.81757237   
   2189700  -6116.6013     -6183.9858      67.384457      17882.085      402.55509      8806.5945      1.4674683      0.81757237   
   2189800  -6118.7266     -6185.95        67.223354      14963.636      401.59266      8798.2948      1.4688526      0.81757237   
   2189900  -6117.3351     -6185.2745      67.939389      16602.495      405.87026      8780.1959      1.4718804      0.81757237   
   2190000  -6119.7063     -6184.4943      64.787999      18602.208      387.04384      8760.2746      1.4752275      0.78182763   
   2190100  -6121.7396     -6187.4188      65.679199      15747.916      392.36787      8739.1029      1.4788014      0.78182763   
   2190200  -6120.3127     -6185.7541      65.441433      14073.235      390.94746      8719.9628      1.4820474      0.78182763   
   2190300  -6121.5859     -6186.6368      65.050909      11704.915      388.61446      8707.9841      1.4840861      0.78182763   
   2190400  -6122.5452     -6187.2393      64.694045      11855.947      386.48256      8702.6827      1.4849901      0.78182763   
   2190500  -6122.212      -6187.9515      65.739512      13127.672      392.72818      8702.2788      1.4850591      0.78182763   
   2190600  -6120.0728     -6187.2238      67.150983      15215.925      401.16032      8706.1745      1.4843945      0.78182763   
   2190700  -6116.8019     -6183.0047      66.202838      17171.72       395.4961       8718.2164      1.4823442      0.78182763   
   2190800  -6117.0148     -6183.711       66.696194      16528.445      398.44341      8739.9777      1.4786534      0.78182763   
   2190900  -6115.9595     -6184.4963      68.536816      14430.349      409.43929      8771.1956      1.4733907      0.78182763   
   2191000  -6117.713      -6185.9351      68.222111      12881.543      407.55924      8802.3697      1.4681726      0.83272147   
   2191100  -6118.9605     -6184.41        65.449477      14596.214      390.99551      8830.3103      1.463527       0.83272147   
   2191200  -6118.0891     -6186.2394      68.150309      15432.801      407.1303       8848.2474      1.4605602      0.83272147   
   2191300  -6117.05       -6184.6794      67.629446      15119.984      404.01866      8853.0765      1.4597635      0.83272147   
   2191400  -6113.3893     -6182.3038      68.914501      17301.461      411.69558      8846.0052      1.4609304      0.83272147   
   2191500  -6114.8552     -6185.2438      70.388635      15782.294      420.50207      8829.6122      1.4636427      0.83272147   
   2191600  -6114.0316     -6182.6145      68.582892      16663.515      409.71455      8805.9283      1.4675793      0.83272147   
   2191700  -6112.5746     -6182.9465      70.371877      13537.279      420.40196      8783.8454      1.4712688      0.83272147   
   2191800  -6113.54       -6181.2601      67.720129      13114.634      404.5604       8767.286       1.4740477      0.83272147   
   2191900  -6114.7504     -6183.7714      69.021038      13800.246      412.33204      8757.3288      1.4757237      0.83272147   
   2192000  -6115.9634     -6184.6891      68.725724      16599.482      410.56783      8754.5149      1.4761981      0.76992098   
   2192100  -6115.4548     -6183.8346      68.379788      11470.664      408.5012       8758.5744      1.4755139      0.76992098   
   2192200  -6116.9207     -6184.8105      67.889809      11344.438      405.57407      8766.3239      1.4742095      0.76992098   
   2192300  -6117.313      -6184.473       67.160009      14830.279      401.21424      8777.324       1.4723619      0.76992098   
   2192400  -6117.1858     -6184.7049      67.519068      14873.646      403.35926      8788.6344      1.4704671      0.76992098   
   2192500  -6116.8844     -6183.4256      66.541199      12218.359      397.51747      8795.9662      1.4692414      0.76992098   
   2192600  -6119.2434     -6185.6371      66.393724      10158.693      396.63645      8798.664       1.4687909      0.76992098   
   2192700  -6117.9884     -6186.2965      68.308043      16892.462      408.0726       8796.5961      1.4691362      0.76992098   
   2192800  -6120.1604     -6186.0545      65.894038      17905.499      393.65132      8789.0384      1.4703995      0.76992098   
   2192900  -6116.4683     -6184.5834      68.115092      15736.942      406.91991      8776.542       1.4724931      0.76992098   
   2193000  -6116.002      -6185.0644      69.062349      14535.065      412.57883      8764.0642      1.4745896      0.80225372   
   2193100  -6118.4441     -6187.4362      68.992116      15087.54       412.15926      8754.3958      1.4762181      0.80225372   
   2193200  -6117.4921     -6183.1169      65.624809      18978.163      392.04294      8746.7111      1.4775151      0.80225372   
   2193300  -6118.6201     -6186.1522      67.532105      16852.101      403.43714      8745.5475      1.4777117      0.80225372   
   2193400  -6117.8269     -6186.9846      69.157748      15103.589      413.14874      8747.0247      1.4774621      0.80225372   
   2193500  -6119.6324     -6185.2502      65.617774      13965.917      392.00092      8750.9883      1.476793       0.80225372   
   2193600  -6117.7142     -6185.4841      67.769916      16280.977      404.85782      8758.5354      1.4755204      0.80225372   
   2193700  -6119.0372     -6185.3805      66.343317      16462.725      396.33532      8767.8913      1.4739459      0.80225372   
   2193800  -6118.6914     -6185.0504      66.358973      17061.022      396.42885      8777.1738      1.4723872      0.80225372   
   2193900  -6116.8359     -6185.7214      68.885521      14536.046      411.52246      8787.189       1.470709       0.80225372   
   2194000  -6116.1174     -6184.4579      68.340459      12570.731      408.26626      8796.5564      1.4691429      0.79736072   
   2194100  -6115.4879     -6182.8208      67.332867      11253.999      402.2469       8801.3328      1.4683456      0.79736072   
   2194200  -6115.4305     -6184.2236      68.793048      15786.696      410.97002      8805.1957      1.4677014      0.79736072   
   2194300  -6115.6638     -6184.0098      68.346004      20089.451      408.29938      8809.2178      1.4670313      0.79736072   
   2194400  -6114.141      -6182.94        68.798994      16500.042      411.00555      8810.8324      1.4667624      0.79736072   
   2194500  -6112.7082     -6179.5958      66.887617      14675.544      399.58697      8812.1146      1.466549       0.79736072   
   2194600  -6114.8025     -6181.5938      66.791304      13652.312      399.01159      8816.7456      1.4657787      0.79736072   
   2194700  -6115.0564     -6182.1681      67.111706      13360.644      400.92568      8821.6005      1.464972       0.79736072   
   2194800  -6114.366      -6184.2432      69.877156      15989.923      417.44649      8824.7953      1.4644417      0.79736072   
   2194900  -6112.5453     -6182.3289      69.783598      17549.36       416.88757      8826.938       1.4640862      0.79736072   
   2195000  -6115.536      -6184.386       68.85003       19203.304      411.31044      8832.6219      1.463144       0.77521683   
   2195100  -6114.5477     -6184.1586      69.610979      18268.037      415.85635      8833.4462      1.4630075      0.77521683   
   2195200  -6115.2865     -6183.9956      68.709063      19723.35       410.4683       8829.4079      1.4636766      0.77521683   
   2195300  -6115.8268     -6183.4399      67.61307       18350.574      403.92083      8824.6657      1.4644632      0.77521683   
   2195400  -6112.3253     -6182.2666      69.94138       14348.337      417.83016      8817.7387      1.4656136      0.77521683   
   2195500  -6113.0461     -6181.1038      68.057726      15973.612      406.5772       8811.2761      1.4666886      0.77521683   
   2195600  -6115.7173     -6183.8941      68.176861      13974.207      407.28892      8809.3876      1.467003       0.77521683   
   2195700  -6117.2181     -6184.7489      67.530806      18798.455      403.42938      8808.3915      1.4671689      0.77521683   
   2195800  -6115.7334     -6183.7242      67.990791      16279.864      406.17734      8807.8547      1.4672583      0.77521683   
   2195900  -6117.6233     -6186.1347      68.511413      12452.031      409.28754      8807.6343      1.467295       0.77521683   
   2196000  -6119.7641     -6186.5016      66.737482      17348.556      398.69006      8803.7414      1.4679438      0.84479272   
   2196100  -6121.8292     -6187.4359      65.606687      16476.072      391.93469      8798.0069      1.4689006      0.84479272   
   2196200  -6120.7775     -6187.8923      67.114761      16032.81       400.94393      8787.4053      1.4706728      0.84479272   
   2196300  -6119.4511     -6181.3323      61.881224      14560.26       369.67875      8776.3755      1.4725211      0.84479272   
   2196400  -6121.1243     -6188.2138      67.089469      14180.937      400.79283      8772.1096      1.4732372      0.84479272   
   2196500  -6121.6718     -6189.1926      67.520848      14910.113      403.36989      8766.7779      1.4741331      0.84479272   
   2196600  -6119.0196     -6184.2676      65.248055      14584.735      389.79222      8763.3393      1.4747116      0.84479272   
   2196700  -6117.7697     -6185.7768      68.007082      19107.996      406.27466      8771.1867      1.4733922      0.84479272   
   2196800  -6118.2271     -6186.4144      68.187377      13691.372      407.35174      8789.129       1.4703844      0.84479272   
   2196900  -6118.0996     -6186.0923      67.992709      11477.427      406.18879      8814.9401      1.4660789      0.84479272   
   2197000  -6115.902      -6183.6657      67.763689      19565.665      404.82063      8841.7544      1.4616328      0.77340157   
   2197100  -6117.778      -6184.3541      66.576136      18355.582      397.72618      8867.2308      1.4574333      0.77340157   
   2197200  -6117.8508     -6185.2984      67.44758       13056.128      402.93219      8887.1378      1.4541687      0.77340157   
   2197300  -6117.5834     -6185.6825      68.09912       11347.241      406.82449      8893.1231      1.45319        0.77340157   
   2197400  -6116.9709     -6182.2932      65.322273      11698.204      390.23559      8883.5346      1.4547585      0.77340157   
   2197500  -6114.4221     -6183.5518      69.129716      15456.261      412.98128      8865.3947      1.4577352      0.77340157   
   2197600  -6113.3352     -6183.2259      69.890707      14327.129      417.52744      8845.6366      1.4609913      0.77340157   
   2197700  -6113.6032     -6182.891       69.287846      16881.669      413.92595      8828.5437      1.4638199      0.77340157   
   2197800  -6114.2483     -6183.1856      68.937296      16066.301      411.83176      8812.1965      1.4665354      0.77340157   
   2197900  -6114.2353     -6184.1651      69.929804      17326.836      417.76101      8800.9299      1.4684128      0.77340157   
   2198000  -6114.0284     -6184.3483      70.319954      15978.656      420.09177      8801.3513      1.4683425      0.83415796   
   2198100  -6113.7296     -6182.2194      68.489801      18470.693      409.15843      8812.1136      1.4665492      0.83415796   
   2198200  -6115.387      -6185.235       69.848023      15053.6        417.27245      8831.1611      1.463386       0.83415796   
   2198300  -6116.5429     -6183.4668      66.923858      14818.043      399.80347      8856.6615      1.4591726      0.83415796   
   2198400  -6117.4314     -6185.6478      68.216331      13908.491      407.52471      8882.543       1.4549209      0.83415796   
   2198500  -6118.9774     -6184.9604      65.983049      13476.903      394.18307      8899.083       1.4522168      0.83415796   
   2198600  -6118.6754     -6185.3604      66.685041      13195.748      398.37678      8903.4756      1.4515003      0.83415796   
   2198700  -6114.2268     -6181.7482      67.521433      22290.268      403.37339      8891.4802      1.4534585      0.83415796   
   2198800  -6114.6377     -6184.0564      69.418797      18691.825      414.70825      8872.9013      1.4565019      0.83415796   
   2198900  -6115.9707     -6183.4107      67.439972      16932.158      402.88674      8850.9614      1.4601123      0.83415796   
   2199000  -6117.2085     -6183.8985      66.689991      19289.684      398.40635      8829.5835      1.4636475      0.7669587    
   2199100  -6115.0484     -6184.9335      69.885141      18669.566      417.49419      8807.924       1.4672468      0.7669587    
   2199200  -6114.9599     -6182.358       67.39812       14217.924      402.63672      8792.1768      1.4698747      0.7669587    
   2199300  -6117.125      -6184.2134      67.088461      17360.002      400.78681      8784.5689      1.4711476      0.7669587    
   2199400  -6117.5859     -6186.3348      68.748888      17897.225      410.70621      8785.1682      1.4710473      0.7669587    
   2199500  -6115.1239     -6184.063       68.939137      13391.234      411.84276      8791.1314      1.4700495      0.7669587    
   2199600  -6116.466      -6187.3065      70.840485      14293.088      423.20142      8805.5886      1.4676359      0.7669587    
   2199700  -6114.4409     -6182.5103      68.06936       17825.367      406.64671      8826.1247      1.4642211      0.7669587    
   2199800  -6117.7383     -6183.6609      65.922566      18048.851      393.82175      8849.3726      1.4603745      0.7669587    
   2199900  -6117.1844     -6183.726       66.541616      14410.875      397.51996      8867.6441      1.4573654      0.7669587    
   2200000  -6115.4818     -6183.8546      68.372759      15703.886      408.45921      8879.0201      1.4554982      0.89766062   
   2200033  -6114.7541     -6182.7978      68.043706      16697.859      406.49345      8880.9748      1.4551779      0.89766062   
Loop time of 8446.82 on 1 procs for 2000000 steps with 1296 atoms

Performance: 10.229 ns/day, 2.346 hours/ns, 236.775 timesteps/s, 306.861 katom-step/s
99.8% CPU use with 1 MPI tasks x 1 OpenMP threads

MPI task timing breakdown:
Section |  min time  |  avg time  |  max time  |%varavg| %total
---------------------------------------------------------------
Pair    | 6462.6     | 6462.6     | 6462.6     |   0.0 | 76.51
Neigh   | 85.685     | 85.685     | 85.685     |   0.0 |  1.01
Comm    | 83.15      | 83.15      | 83.15      |   0.0 |  0.98
Output  | 5.2347     | 5.2347     | 5.2347     |   0.0 |  0.06
Modify  | 1766.5     | 1766.5     | 1766.5     |   0.0 | 20.91
Other   |            | 43.66      |            |       |  0.52

Nlocal:           1296 ave        1296 max        1296 min
Histogram: 1 0 0 0 0 0 0 0 0 0
Nghost:           4290 ave        4290 max        4290 min
Histogram: 1 0 0 0 0 0 0 0 0 0
Neighs:              0 ave           0 max           0 min
Histogram: 1 0 0 0 0 0 0 0 0 0
FullNghs:       219688 ave      219688 max      219688 min
Histogram: 1 0 0 0 0 0 0 0 0 0

Total # of neighbors = 219688
Ave neighs/atom = 169.51235
Neighbor list builds = 200000
Dangerous builds = 200000

unfix		3
unfix		4
Total wall time: 2:34:54
