LAMMPS (7 Feb 2024 - Update 1)
KOKKOS mode with Kokkos version 4.2.0 is enabled (src/KOKKOS/kokkos.cpp:72)
  will use up to 4 GPU(s) per node
  using 1 OpenMP thread(s) per MPI task
package kokkos
package kokkos newton on neigh half

units		metal						## E in [eV], t in [ps], P in [10000 Pa], l in [A]
atom_style	atomic						## mass x y z vx vy vz

neighbor	0.5 bin						## neighbor list, skin = 0.5 Angstrom
neigh_modify	every 2 delay 10 check yes			## update of neighbor list

############################## main variables
variable        seed equal 56337

variable	temperature equal 325
variable	tempDamp equal 0.1

variable        pressure equal 10000
variable        pressureDamp equal 1.0 				# This is 1 ps

##############################

read_data water.dat
Reading data file ...
  triclinic box = (0 0 0) to (24.989956 24.989919 23.167336) with tilt (-0.22207236 -0.16357316 -0.098737559)
  2 by 2 by 1 MPI processor grid
  reading atoms ...
  1920 atoms
  read_data CPU = 0.013 seconds

mass		1 1.008    # H
mass		2 15.9994  # O


pair_style	pace/extrapolation
ACE/AL version: 2023.11.25
pair_coeff	* * /home/cicn/cicn607503/pd/pot_dir/interim_potential_ladder_step_1.yaml /home/cicn/cicn607503/pd/pot_dir/interim_potential_ladder_step_1.asi H O
Loading /home/cicn/cicn607503/pd/pot_dir/interim_potential_ladder_step_1.yaml
Total number of basis functions
	H: 23 (r=1) 664 (r>1)
	O: 23 (r=1) 664 (r>1)
Mapping LAMMPS atom type #1(H) -> ACE species type #0
Mapping LAMMPS atom type #2(O) -> ACE species type #1
Loading ASI /home/cicn/cicn607503/pd/pot_dir/interim_potential_ladder_step_1.asi
LINEAR ASI is loaded

fix pace_gamma all pair 1000 pace/extrapolation gamma 1
compute max_pace_gamma all reduce max f_pace_gamma
variable dump_skip equal "c_max_pace_gamma < 10"

dump pace_dump all custom 1000 extrapolative_structures.dump id type x y z f_pace_gamma
dump_modify pace_dump skip v_dump_skip
dump_modify pace_dump element H O

variable max_pace_gamma equal c_max_pace_gamma

timestep	0.0005						## timestep = 0.0005*ps = 0.5 fs

thermo		100
thermo_style custom step etotal pe ke press temp vol density c_max_pace_gamma


min_style cg/kk
minimize 0.0 5.0e-4 10000 100000
Switching to 'neigh_modify every 1 delay 0 check yes' setting during minimization
Neighbor list info ...
  update: every = 1 steps, delay = 0 steps, check = yes
  max neighbors/atom: 2000, page size: 100000
  master list distance cutoff = 6.5
  ghost atom cutoff = 6.5
  binsize = 6.5, bins = 4 4 4
  1 neighbor lists, perpetual/occasional/extra = 1 0 0
  (1) pair pace/extrapolation/kk, perpetual
      attributes: full, newton on, kokkos_device
      pair build: full/bin/kk/device
      stencil: full/bin/3d
      bin: kk/device
WARNING: Fix with atom-based arrays not compatible with sending data in Kokkos communication, switching to classic exchange/border communication (src/KOKKOS/comm_kokkos.cpp:666)
WARNING: Fix with atom-based arrays not compatible with Kokkos sorting on device, switching to classic host sorting (src/KOKKOS/atom_kokkos.cpp:218)
Per MPI rank memory allocation (min/avg/max) = 423.1 | 425.6 | 428.5 Mbytes
   Step         TotEng         PotEng         KinEng         Press           Temp          Volume        Density     c_max_pace_gamma
         0  -9186.3912     -9186.3912      0              71325.798      0              14467.932      1.3233249      0.6946996    
       100  -9273.0205     -9273.0205      0             -8111.2489      0              14467.932      1.3233249      0.6946996    
       200  -9273.1148     -9273.1148      0             -8129.6572      0              14467.932      1.3233249      0.6946996    
       300  -9273.1151     -9273.1151      0             -8129.1941      0              14467.932      1.3233249      0.6946996    
       310  -9273.1151     -9273.1151      0             -8129.2677      0              14467.932      1.3233249      0.6946996    
Loop time of 1.25461 on 4 procs for 310 steps with 1920 atoms

99.2% CPU use with 4 MPI tasks x 1 OpenMP threads

Minimization stats:
  Stopping criterion = force tolerance
  Energy initial, next-to-last, final = 
     -9186.39119087423    -9273.115120216  -9273.11512022449
  Force two-norm initial, final = 64.044178 0.00047849736
  Force max component initial, final = 2.4633048 8.9681226e-05
  Final line search alpha, max atom move = 1 8.9681226e-05
  Iterations, force evaluations = 310 619

MPI task timing breakdown:
Section |  min time  |  avg time  |  max time  |%varavg| %total
---------------------------------------------------------------
Pair    | 0.81238    | 0.82003    | 0.83029    |   0.8 | 65.36
Neigh   | 0.0029324  | 0.0030832  | 0.0031899  |   0.2 |  0.25
Comm    | 0.19537    | 0.20709    | 0.21505    |   1.7 | 16.51
Output  | 0.00044592 | 0.00044706 | 0.00044819 |   0.0 |  0.04
Modify  | 0.14051    | 0.14185    | 0.14537    |   0.5 | 11.31
Other   |            | 0.08211    |            |       |  6.54

Nlocal:            480 ave         482 max         478 min
Histogram: 1 0 0 0 0 2 0 0 0 1
Nghost:         2630.5 ave        2633 max        2629 min
Histogram: 1 0 2 0 0 0 0 0 0 1
Neighs:              0 ave           0 max           0 min
Histogram: 4 0 0 0 0 0 0 0 0 0
FullNghs:        75286 ave       75712 max       74890 min
Histogram: 1 0 0 1 0 1 0 0 0 1

Total # of neighbors = 301144
Ave neighs/atom = 156.84583
Neighbor list builds = 7
Dangerous builds = 0

################## equilibration of main calculation
# Equilibrate to specified number of ice

fix             3 all nph tri ${pressure} ${pressure} ${pressureDamp}
fix             3 all nph tri 10000 ${pressure} ${pressureDamp}
fix             3 all nph tri 10000 10000 ${pressureDamp}
fix             3 all nph tri 10000 10000 1
fix             4 all temp/csvr ${temperature} ${temperature} ${tempDamp} ${seed}
fix             4 all temp/csvr 325 ${temperature} ${tempDamp} ${seed}
fix             4 all temp/csvr 325 325 ${tempDamp} ${seed}
fix             4 all temp/csvr 325 325 0.1 ${seed}
fix             4 all temp/csvr 325 325 0.1 56337
velocity 	all create ${temperature} ${seed} dist gaussian
velocity 	all create 325 ${seed} dist gaussian
velocity 	all create 325 56337 dist gaussian

run 200000
WARNING: Fix with atom-based arrays not compatible with sending data in Kokkos communication, switching to classic exchange/border communication (src/KOKKOS/comm_kokkos.cpp:666)
WARNING: Fix with atom-based arrays not compatible with Kokkos sorting on device, switching to classic host sorting (src/KOKKOS/atom_kokkos.cpp:218)
Per MPI rank memory allocation (min/avg/max) = 424.7 | 426.4 | 427.6 Mbytes
   Step         TotEng         PotEng         KinEng         Press           Temp          Volume        Density     c_max_pace_gamma
       310  -9192.4988     -9273.1151      80.616321     -2177.6417      325            14467.932      1.3233249      0.6946996    
       400  -9178.6058     -9216.9114      38.305657     -4379.0482      154.42702      14383.046      1.3311349      0.6946996    
       500  -9160.8654     -9212.168       51.302626      3518.2426      206.82355      14162.813      1.3518341      0.6946996    
       600  -9147.4073     -9210.4247      63.017329      9472.0536      254.05069      13921.049      1.3753112      0.6946996    
       700  -9136.295      -9203.6724      67.377352      13551.879      271.62787      13752.49       1.3921679      0.6946996    
       800  -9130.5704     -9202.5232      71.952781      15108.21       290.07344      13680.518      1.3994919      0.6946996    
       900  -9124.0555     -9196.0267      71.971207      17606.126      290.14773      13699.594      1.3975432      0.6946996    
      1000  -9121.4923     -9196.0146      74.522236      16039.212      300.43205      13801.237      1.3872506      0.68028636   
      1100  -9118.0961     -9195.7785      77.682434      11939.396      313.17221      13951.743      1.3722855      0.68028636   
      1200  -9115.311      -9190.6834      75.372349      11313.865      303.85923      14113.836      1.3565253      0.68028636   
      1300  -9115.2828     -9191.6212      76.338399      7556.8289      307.75381      14254.616      1.343128       0.68028636   
      1400  -9116.9589     -9192.5223      75.563438      7309.4541      304.6296       14347.035      1.3344761      0.68028636   
      1500  -9112.4429     -9191.7123      79.269416      8303.0912      319.57003      14379.741      1.3314408      0.68028636   
      1600  -9110.2765     -9191.5037      81.227204      8023.4908      327.46274      14365.414      1.3327687      0.68028636   
      1700  -9107.1266     -9187.9434      80.816728      7204.5195      325.80793      14315.65       1.3374017      0.68028636   
      1800  -9105.0556     -9185.9698      80.914195      8186.2815      326.20086      14251.895      1.3433845      0.68028636   
      1900  -9106.2961     -9188.6626      82.366465      12561.615      332.0556       14188.167      1.3494185      0.68028636   
      2000  -9108.4995     -9188.4538      79.954255      12392.884      322.33092      14133.013      1.3546845      0.71781216   
      2100  -9110.546      -9188.6821      78.136121      13529.026      315.00122      14096.427      1.3582005      0.71781216   
      2200  -9109.3651     -9190.642       81.276872      13499.65       327.66297      14082.624      1.3595318      0.71781216   
      2300  -9109.6739     -9190.7656      81.09179       12455.45       326.91683      14089.907      1.358829       0.71781216   
      2400  -9108.2792     -9188.3023      80.023107      10657.543      322.60849      14113.755      1.356533       0.71781216   
      2500  -9106.5168     -9184.6476      78.130813      8110.7808      314.97982      14148.232      1.3532274      0.71781216   
      2600  -9106.6166     -9189.8341      83.217545      9039.6165      335.48668      14195.311      1.3487393      0.71781216   
      2700  -9105.3694     -9185.8281      80.458722      11272.924      324.36465      14244.856      1.3440483      0.71781216   
      2800  -9105.193      -9187.5335      82.340539      9564.298       331.95108      14285.066      1.340265       0.71781216   
      2900  -9106.44       -9186.5595      80.119502      10977.191      322.9971       14309.335      1.337992       0.71781216   
      3000  -9110.0336     -9187.4959      77.46234       10233.812      312.28491      14310.05       1.3379251      0.64820598   
      3100  -9109.4063     -9188.0399      78.6336        8643.1261      317.00678      14283.12       1.3404477      0.64820598   
      3200  -9109.6019     -9188.785       79.183115      6545.5529      319.22212      14233.202      1.3451488      0.64820598   
      3300  -9107.0473     -9188.4685      81.421204      9788.3474      328.24484      14173.656      1.3508         0.64820598   
      3400  -9108.3675     -9188.7632      80.395696      10408.68       324.11056      14120.492      1.3558858      0.64820598   
      3500  -9108.7742     -9189.9299      81.155657      9748.328       327.1743       14084.376      1.3593626      0.64820598   
      3600  -9108.6237     -9187.9502      79.326539      11771.3        319.80032      14068.594      1.3608876      0.64820598   
      3700  -9106.1417     -9187.128       80.986296      12284.802      326.49153      14076.761      1.360098       0.64820598   
      3800  -9108.7453     -9189.6482      80.90288       10981.549      326.15525      14113.753      1.3565332      0.64820598   
      3900  -9108.7589     -9188.9928      80.233917      10744.344      323.45836      14173.46       1.3508187      0.64820598   
      4000  -9108.2281     -9187.9492      79.721095      10168.795      321.39095      14245.612      1.3439769      0.73114687   
      4100  -9109.0778     -9187.6991      78.621251      6684.0571      316.95699      14316.713      1.3373024      0.73114687   
      4200  -9110.5663     -9188.7833      78.216924      5566.9628      315.32697      14365.212      1.3327875      0.73114687   
      4300  -9108.9207     -9188.5842      79.663442      6436.034       321.15852      14373.314      1.3320362      0.73114687   
      4400  -9108.8957     -9188.1244      79.228674      5925.1349      319.40578      14341.862      1.3349574      0.73114687   
      4500  -9107.8433     -9187.2527      79.409382      9439.1596      320.1343       14271.375      1.3415508      0.73114687   
      4600  -9108.0012     -9188.092       80.090849      10380.777      322.88159      14178.705      1.350319       0.73114687   
      4700  -9104.9372     -9187.2834      82.346195      9865.9764      331.97389      14089.802      1.3588391      0.73114687   
      4800  -9104.9042     -9185.4579      80.553727      10096.035      324.74766      14023.766      1.3652378      0.73114687   
      4900  -9105.7422     -9187.6134      81.871213      12313.167      330.05902      13998.482      1.3677036      0.73114687   
      5000  -9105.369      -9188.9823      83.613228      16271.273      337.08185      14024.605      1.3651561      0.66437961   
      5100  -9105.6681     -9187.3854      81.717295      11924.99       329.43851      14097.19       1.3581271      0.66437961   
      5200  -9110.1571     -9187.0783      76.921237      6707.5824      310.10348      14194.536      1.348813       0.66437961   
      5300  -9110.0595     -9190.8873      80.827837      7161.8528      325.85271      14289.563      1.3398433      0.66437961   
      5400  -9109.5029     -9188.4439      78.940994      9344.6903      318.24602      14356.275      1.3336172      0.66437961   
      5500  -9108.5953     -9189.5042      80.908876      9639.3422      326.17942      14382.585      1.3311775      0.66437961   
      5600  -9109.3199     -9187.9795      78.659576      10575.181      317.1115       14364.128      1.332888       0.66437961   
      5700  -9108.9376     -9189.9712      81.033646      9832.8115      326.68242      14307.584      1.3381557      0.66437961   
      5800  -9109.4978     -9188.9941      79.49632       8973.3213      320.48478      14230.557      1.3453988      0.66437961   
      5900  -9106.9003     -9187.4977      80.59741       10318.83       324.92376      14150.923      1.3529701      0.66437961   
      6000  -9104.2177     -9186.4038      82.186134      14863.697      331.32861      14089.907      1.358829       0.66609637   
      6100  -9103.0869     -9184.6832      81.596306      12313.521      328.95075      14063.578      1.3613729      0.66609637   
      6200  -9103.7204     -9188.8883      85.167967      11241.677      343.34969      14076.769      1.3600973      0.66609637   
      6300  -9105.8483     -9187.856       82.007667      11881.214      330.60913      14124.273      1.3555229      0.66609637   
      6400  -9105.9161     -9186.9785      81.062338      11650.707      326.79809      14193.035      1.3489556      0.66609637   
      6500  -9106.9008     -9187.4139      80.513129      10316.591      324.58399      14269.642      1.3417138      0.66609637   
      6600  -9105.4042     -9185.2741      79.869898      7166.9691      321.99084      14334.325      1.3356593      0.66609637   
      6700  -9107.541      -9185.7881      78.247136      8408.2863      315.44877      14376.092      1.3317788      0.66609637   
      6800  -9105.5416     -9186.8453      81.303665      7307.6385      327.77099      14385.484      1.3309093      0.66609637   
      6900  -9105.7246     -9185.7122      79.987593      8524.6496      322.46532      14364.669      1.3328378      0.66609637   
      7000  -9105.5429     -9185.2259      79.683025      8844.0449      321.23747      14313.178      1.3376327      0.69981833   
      7100  -9105.5879     -9186.0044      80.41644       8946.2135      324.19419      14247.178      1.3438293      0.69981833   
      7200  -9105.1652     -9187.1177      81.952453      8522.9829      330.38654      14181.232      1.3500784      0.69981833   
      7300  -9104.3129     -9185.6387      81.325732      12431.382      327.85995      14123.445      1.3556023      0.69981833   
      7400  -9106.1071     -9185.2011      79.094079      12082.557      318.86317      14087.368      1.359074       0.69981833   
      7500  -9107.1771     -9187.6249      80.447835      11494.035      324.32076      14083.686      1.3594292      0.69981833   
      7600  -9106.3175     -9187.9098      81.592233      11808.222      328.93433      14108.638      1.357025       0.69981833   
      7700  -9105.9944     -9187.6295      81.635074      12791.51       329.10705      14158.408      1.3522547      0.69981833   
      7800  -9107.0324     -9188.2869      81.254491      11218.531      327.57274      14224.535      1.3459684      0.69981833   
      7900  -9106.7329     -9186.7979      80.065021      8602.4698      322.77747      14290.5        1.3397554      0.69981833   
      8000  -9107.7218     -9187.346       79.624211      9047.6249      321.00037      14347.219      1.334459       0.71902066   
      8100  -9106.4936     -9187.8429      81.349264      9001.8084      327.95482      14384.164      1.3310315      0.71902066   
      8200  -9106.1646     -9186.4624      80.297825      10911.672      323.716        14394.967      1.3300326      0.71902066   
      8300  -9106.4922     -9186.8507      80.358537      8079.5928      323.96076      14374.407      1.3319349      0.71902066   
      8400  -9107.0123     -9187.4989      80.486581      8526.7392      324.47696      14323.941      1.3366276      0.71902066   
      8500  -9106.4511     -9186.5388      80.087728      11479.861      322.86901      14258.17       1.3427933      0.71902066   
      8600  -9106.0531     -9187.4791      81.426011      13231.998      328.26422      14197.73       1.3485096      0.71902066   
      8700  -9107.5388     -9187.7886      80.24979       11930.557      323.52235      14154.513      1.3526268      0.71902066   
      8800  -9106.6053     -9187.6836      81.078226      11138.116      326.86214      14134.442      1.3545476      0.71902066   
      8900  -9107.9903     -9190.6823      82.692039      10902.022      333.36814      14136.632      1.3543377      0.71902066   
      9000  -9107.8456     -9186.0473      78.2017        9242.8356      315.2656       14160.574      1.352048       0.64610926   
      9100  -9108.1424     -9187.4603      79.317904      9652.7344      319.76551      14204.686      1.3478492      0.64610926   
      9200  -9109.5833     -9189.709       80.125644      11116.573      323.02186      14260.583      1.3425661      0.64610926   
      9300  -9110.2898     -9189.2479      78.958121      9842.6606      318.31506      14312.686      1.3376787      0.64610926   
      9400  -9108.3484     -9189.0528      80.704443      7200.0117      325.35526      14343.66       1.3347901      0.64610926   
      9500  -9108.5739     -9187.2888      78.714836      8497.445       317.33427      14349.544      1.3342428      0.64610926   
      9600  -9107.071      -9186.6859      79.614826      7890.1189      320.96253      14335.134      1.335584       0.64610926   
      9700  -9104.7053     -9186.8873      82.181998      12104.086      331.31194      14298.363      1.3390187      0.64610926   
      9800  -9106.609      -9186.5075      79.898469      12166.399      322.10602      14253.154      1.3432658      0.64610926   
      9900  -9107.3036     -9187.9792      80.675556      12130.906      325.2388       14207.373      1.3475943      0.64610926   
     10000  -9107.2448     -9187.3269      80.082073      10200.993      322.84621      14169.783      1.3511692      0.66992056   
     10100  -9106.4702     -9187.0689      80.598729      13821.714      324.92908      14146.083      1.3534329      0.66992056   
     10200  -9107.6561     -9188.7742      81.118121      11229.891      327.02298      14142.737      1.3537531      0.66992056   
     10300  -9107.4828     -9187.366       79.883251      9124.0602      322.04467      14162.593      1.3518552      0.66992056   
     10400  -9105.7001     -9186.9411      81.240985      11435.388      327.5183       14202.536      1.3480533      0.66992056   
     10500  -9105.3956     -9186.0026      80.60695       11029.031      324.96222      14262.238      1.3424103      0.66992056   
     10600  -9106.2897     -9187.2935      81.003758      9077.2419      326.56193      14327.992      1.3362497      0.66992056   
     10700  -9107.4562     -9187.4618      80.005611      8997.9961      322.53796      14380.002      1.3314167      0.66992056   
     10800  -9107.3222     -9186.646       79.323825      9080.2697      319.78938      14404.771      1.3291273      0.66992056   
     10900  -9106.8818     -9186.937       80.055206      8038.0757      322.7379       14401.477      1.3294313      0.66992056   
     11000  -9106.7884     -9187.4879      80.699559      5872.1505      325.33557      14365.342      1.3327754      0.65422784   
     11100  -9105.4992     -9186.2197      80.720586      9410.6721      325.42034      14298.903      1.3389681      0.65422784   
     11200  -9105.1579     -9186.233       81.075041      11170.9        326.8493       14219.087      1.3464841      0.65422784   
     11300  -9105.2316     -9186.237       81.005444      11145.762      326.56873      14143.443      1.3536856      0.65422784   
     11400  -9106.1436     -9187.4952      81.351669      13323.858      327.96451      14092.501      1.358579       0.65422784   
     11500  -9107.4262     -9189.9208      82.494573      13854.346      332.57207      14078.144      1.3599644      0.65422784   
     11600  -9106.6697     -9189.0463      82.376589      12281.838      332.09642      14096.749      1.3581695      0.65422784   
     11700  -9107.4669     -9187.4884      80.021544      10988.063      322.60219      14146.769      1.3533673      0.65422784   
     11800  -9106.5183     -9183.984       77.465697      9413.9949      312.29844      14219.336      1.3464605      0.65422784   
     11900  -9106.6779     -9187.2198      80.541965      7933.7285      324.70024      14297.347      1.3391138      0.65422784   
     12000  -9106.6672     -9187.3986      80.731408      12113.951      325.46397      14357.915      1.3334648      0.69788511   
     12100  -9107.5115     -9187.6827      80.171291      9816.0484      323.20589      14394.109      1.3301118      0.69788511   
     12200  -9109.0305     -9188.89        79.859457      8007.0044      321.94875      14397.988      1.3297535      0.69788511   
     12300  -9107.5998     -9188.4581      80.858303      8211.936       325.97554      14364.066      1.3328938      0.69788511   
     12400  -9106.7101     -9186.6141      79.903991      9364.2985      322.12828      14301.151      1.3387576      0.69788511   
     12500  -9109.4956     -9188.6015      79.105835      8717.5246      318.91056      14231.06       1.3453513      0.69788511   
     12600  -9108.546      -9188.2824      79.736387      10325.672      321.4526       14162.189      1.3518937      0.69788511   
     12700  -9108.0229     -9188.2375      80.214609      13149.746      323.38052      14113.914      1.3565177      0.69788511   
     12800  -9107.8913     -9187.9531      80.061882      12570.733      322.76481      14097.665      1.3580812      0.69788511   
     12900  -9107.9243     -9187.1135      79.189165      11869.227      319.2465       14111.877      1.3567135      0.69788511   
     13000  -9108.5853     -9187.488       78.902661      14170.07       318.09148      14152.846      1.3527862      0.66184792   
     13100  -9106.7125     -9189.1017      82.389178      10380.477      332.14717      14205.742      1.347749       0.66184792   
     13200  -9105.5455     -9186.243       80.697568      9351.1099      325.32754      14257.201      1.3428846      0.66184792   
     13300  -9105.6021     -9186.7885      81.186389      9322.7265      327.2982       14304.824      1.3384138      0.66184792   
     13400  -9108.4473     -9189.4285      80.981225      8259.3164      326.47109      14332.657      1.3358148      0.66184792   
     13500  -9108.4457     -9188.6151      80.169316      6996.2648      323.19792      14330.402      1.3360249      0.66184792   
     13600  -9106.2602     -9186.2224      79.962118      7945.2991      322.36262      14300.956      1.3387759      0.66184792   
     13700  -9107.0328     -9186.705       79.672164      7789.3074      321.19369      14259.899      1.3426305      0.66184792   
     13800  -9106.1078     -9186.8026      80.694818      8855.6182      325.31646      14218.945      1.3464976      0.66184792   
     13900  -9105.3285     -9186.2901      80.961639      12148.059      326.39213      14185.046      1.3497154      0.66184792   
     14000  -9105.9427     -9187.5348      81.592139      11702.794      328.93396      14160.394      1.3520652      0.66159126   
     14100  -9107.0442     -9187.7497      80.70555       9647.4948      325.35972      14149.829      1.3530746      0.66159126   
     14200  -9105.8055     -9185.9037      80.098176      6914.648       322.91113      14155.36       1.3525459      0.66159126   
     14300  -9106.0392     -9188.1689      82.12979       8196.7444      331.10146      14179.022      1.3502888      0.66159126   
     14400  -9107.0965     -9186.8803      79.783846      9808.1408      321.64393      14214.97       1.3468741      0.66159126   
     14500  -9107.7478     -9188.9283      81.180553      10112.446      327.27467      14253.492      1.343234       0.66159126   
     14600  -9107.9137     -9188.0155      80.101782      7172.7309      322.92567      14284.07       1.3403585      0.66159126   
     14700  -9108.6856     -9188.6697      79.984186      9269.7868      322.45158      14303.102      1.338575       0.66159126   
     14800  -9107.9217     -9187.67        79.748329      10779.785      321.50074      14302.48       1.3386332      0.66159126   
     14900  -9107.771      -9186.6444      78.873329      9925.1946      317.97323      14284.774      1.3402924      0.66159126   
     15000  -9107.7242     -9188.3044      80.580198      9722.9572      324.85437      14249.785      1.3435834      0.70320596   
     15100  -9106.491      -9187.1323      80.641305      11874.711      325.10072      14205.637      1.347759       0.70320596   
     15200  -9104.1869     -9187.3402      83.153264      9642.6174      335.22754      14163.512      1.3517675      0.70320596   
     15300  -9105.408      -9188.3609      82.952927      8642.7624      334.41989      14133.683      1.3546204      0.70320596   
     15400  -9106.8447     -9186.3386      79.493947      11516.269      320.47521      14119.943      1.3559385      0.70320596   
     15500  -9106.8555     -9186.295       79.439527      10472.99       320.25582      14129.255      1.3550449      0.70320596   
     15600  -9106.3725     -9187.5436      81.171088      10902.332      327.23651      14157.23       1.3523673      0.70320596   
     15700  -9108.2083     -9187.1251      78.916748      11033.675      318.14827      14201.698      1.3481328      0.70320596   
     15800  -9107.0475     -9186.0118      78.964332      7962.3813      318.3401       14252.381      1.3433387      0.70320596   
     15900  -9104.8938     -9185.7556      80.861772      7431.1453      325.98952      14296.646      1.3391795      0.70320596   
     16000  -9104.6032     -9187.4504      82.847163      10377.551      333.99351      14329.353      1.3361228      0.70364735   
     16100  -9107.0887     -9185.659       78.570245      8595.8296      316.75136      14341.785      1.3349645      0.70364735   
     16200  -9107.421      -9186.8933      79.472344      10541.928      320.38812      14324.972      1.3365314      0.70364735   
     16300  -9107.3077     -9191.048       83.740305      9436.7403      337.59416      14278.584      1.3408735      0.70364735   
     16400  -9105.934      -9187.076       81.142023      12375.71       327.11934      14204.199      1.3478954      0.70364735   
     16500  -9105.9961     -9187.6813      81.685218      8331.1308      329.3092       14127.084      1.3552532      0.70364735   
     16600  -9105.6712     -9188.2587      82.587569      12552.506      332.94697      14070.25       1.3607274      0.70364735   
     16700  -9106.7698     -9187.1761      80.406239      11362.001      324.15307      14043.787      1.3632914      0.70364735   
     16800  -9107.6562     -9187.7985      80.142301      13713.393      323.08902      14055.961      1.3621107      0.70364735   
     16900  -9106.4775     -9188.2172      81.739741      11684.066      329.529        14106.143      1.357265       0.70364735   
     17000  -9107.2316     -9189.0133      81.781703      10944.556      329.69817      14179.866      1.3502085      0.71328754   
     17100  -9106.6358     -9188.3588      81.723         9219.8798      329.46151      14257.38       1.3428677      0.71328754   
     17200  -9107.1855     -9188.3839      81.198397      7991.2606      327.34661      14318.566      1.3371293      0.71328754   
     17300  -9107.5043     -9188.3733      80.869007      7630.4038      326.01869      14354.347      1.3337963      0.71328754   
     17400  -9108.2804     -9188.3227      80.042311      10183.184      322.68591      14356.193      1.3336248      0.71328754   
     17500  -9107.3721     -9189.4942      82.122084      10647.768      331.0704       14324.194      1.336604       0.71328754   
     17600  -9105.3735     -9187.3335      81.959982      9580.8088      330.41689      14272.053      1.3414871      0.71328754   
     17700  -9105.7405     -9188.3553      82.614818      7186.9175      333.05683      14214.443      1.346924       0.71328754   
     17800  -9103.9831     -9185.9342      81.951072      7239.6765      330.38097      14164          1.3517209      0.71328754   
     17900  -9106.5713     -9188.61        82.038707      9238.9685      330.73427      14131.821      1.3547989      0.71328754   
     18000  -9107.2799     -9187.9962      80.716307      10701.388      325.40309      14119.405      1.3559902      0.6271545    
     18100  -9108.4199     -9187.4998      79.079926      10822.736      318.80612      14125.549      1.3554004      0.6271545    
     18200  -9107.6131     -9190.1923      82.579264      9495.2673      332.91349      14145.871      1.3534532      0.6271545    
     18300  -9107.4387     -9186.4865      79.047841      10381.736      318.67676      14174.472      1.3507222      0.6271545    
     18400  -9105.3895     -9186.2175      80.828046      10093.961      325.85356      14206.387      1.3476879      0.6271545    
     18500  -9107.6526     -9189.2944      81.64181       7777.5319      329.1342       14242.121      1.3443064      0.6271545    
     18600  -9109.0847     -9188.5521      79.467434      9680.0457      320.36833      14265.819      1.3420733      0.6271545    
     18700  -9107.9359     -9187.4168      79.48086       8746.8461      320.42246      14276.056      1.3411109      0.6271545    
     18800  -9108.3445     -9187.8532      79.508721      9703.6252      320.53477      14268.685      1.3418037      0.6271545    
     18900  -9108.6958     -9188.0467      79.350899      11500.888      319.89853      14245.345      1.3440022      0.6271545    
     19000  -9108.658      -9188.5181      79.860088      9569.2085      321.95129      14211.64       1.3471897      0.65601644   
     19100  -9110.899      -9191.7496      80.850641      10248.524      325.94465      14174.956      1.3506761      0.65601644   
     19200  -9113.9191     -9190.7286      76.809534      10242.953      309.65316      14138.062      1.3542008      0.65601644   
     19300  -9111.3422     -9188.4545      77.112278      12820.401      310.87366      14104.137      1.3574581      0.65601644   
     19400  -9110.7931     -9188.2965      77.503404      11324.884      312.45046      14084.868      1.3593152      0.65601644   
     19500  -9111.1336     -9191.3264      80.192758      9486.2371      323.29243      14088.55       1.3589599      0.65601644   
     19600  -9110.4618     -9191.2458      80.78398       8770.5275      325.67591      14116.745      1.3562457      0.65601644   
     19700  -9109.7678     -9187.535       77.767202      9952.4451      313.51394      14160.108      1.3520924      0.65601644   
     19800  -9111.4075     -9188.4571      77.04959       9839.6353      310.62093      14209.788      1.3473652      0.65601644   
     19900  -9112.6727     -9190.1801      77.50742       9042.7959      312.46665      14256.09       1.3429892      0.65601644   
     20000  -9112.0617     -9189.2469      77.185224      8935.4406      311.16773      14286.672      1.3401144      0.679933     
     20100  -9110.4349     -9191.1334      80.698513      10683.964      325.33135      14295.869      1.3392523      0.679933     
     20200  -9111.7492     -9190.0385      78.28928       7199.4232      315.61867      14279.017      1.3408329      0.679933     
     20300  -9111.0191     -9191.2707      80.251547      8856.8156      323.52943      14234.064      1.3450673      0.679933     
     20400  -9111.0615     -9188.4937      77.432233      11246.254      312.16353      14173.625      1.3508029      0.679933     
     20500  -9110.2678     -9192.1346      81.866783      11299.517      330.04116      14112.008      1.3567009      0.679933     
     20600  -9111.784      -9189.4595      77.67556       11128.167      313.14449      14059.533      1.3617646      0.679933     
     20700  -9109.6361     -9189.7839      80.147861      12134.538      323.11143      14032.211      1.3644161      0.679933     
     20800  -9105.6776     -9186.562       80.884352      12501.658      326.08055      14039.415      1.363716       0.679933     
     20900  -9106.6926     -9189.0339      82.341263      12425.131      331.954        14084.206      1.3593791      0.679933     
     21000  -9106.639      -9189.0475      82.408458      10638.47       332.22489      14158.03       1.3522909      0.7035364    
     21100  -9109.7291     -9188.1966      78.46749       11794.708      316.33712      14243.084      1.3442155      0.7035364    
     21200  -9109.864      -9190.7731      80.909181      7568.6549      326.18065      14316.924      1.3372827      0.7035364    
     21300  -9110.7257     -9190.2565      79.530819      6115.8028      320.62386      14358.493      1.3334111      0.7035364    
     21400  -9109.6155     -9187.2227      77.607252      4890.5887      312.86911      14358.946      1.3333691      0.7035364    
     21500  -9108.5699     -9189.1085      80.538625      8409.9312      324.68677      14320.241      1.3369729      0.7035364    
     21600  -9107.8249     -9188.6753      80.850396      10270.122      325.94366      14248.508      1.3437038      0.7035364    
     21700  -9107.0491     -9186.3311      79.281964      10706.096      319.62062      14165.024      1.3516232      0.7035364    
     21800  -9106.9101     -9188.7107      81.800631      10838.529      329.77448      14095.275      1.3583115      0.7035364    
     21900  -9104.2362     -9184.8257      80.589526      12055.609      324.89198      14052.252      1.3624703      0.7035364    
     22000  -9103.7418     -9187.9496      84.207853      11048.722      339.47905      14049.996      1.3626889      0.68998302   
     22100  -9106.7178     -9188.4904      81.772529      10200.498      329.66119      14085.394      1.3592644      0.68998302   
     22200  -9106.4114     -9185.7536      79.342205      10923.656      319.86348      14149.315      1.3531238      0.68998302   
     22300  -9105.4414     -9187.1312      81.689774      7755.2537      329.32756      14231.136      1.3453441      0.68998302   
     22400  -9109.1117     -9187.3081      78.196406      9337.5151      315.24426      14306.75       1.3382337      0.68998302   
     22500  -9108.1716     -9187.8556      79.683985      10804.257      321.24134      14356.622      1.3335849      0.68998302   
     22600  -9107.1593     -9186.9046      79.74522       9034.0288      321.48821      14372.641      1.3320986      0.68998302   
     22700  -9105.1986     -9185.627       80.428459      12177.818      324.24265      14357.308      1.3335212      0.68998302   
     22800  -9106.3725     -9185.9196      79.547105      8709.833       320.68952      14318.405      1.3371443      0.68998302   
     22900  -9106.1496     -9186.845       80.695419      10355.977      325.31888      14263.815      1.3422619      0.68998302   
     23000  -9105.6142     -9186.9932      81.37894       11505.942      328.07446      14206.829      1.3476459      0.67596428   
     23100  -9106.0182     -9187.3886      81.370454      10617.678      328.04024      14160.417      1.352063       0.67596428   
     23200  -9106.3337     -9188.5492      82.215529      8181.6645      331.44711      14133.222      1.3546645      0.67596428   
     23300  -9106.7265     -9185.473       78.746551      8737.137       317.46213      14124.061      1.3555432      0.67596428   
     23400  -9105.4204     -9186.1584      80.737983      10449.064      325.49048      14134.093      1.3545811      0.67596428   
     23500  -9106.1774     -9190.0499      83.872446      12312.834      338.12688      14155.727      1.3525109      0.67596428   
     23600  -9105.6943     -9186.5472      80.852936      10485.933      325.9539       14185.843      1.3496395      0.67596428   
     23700  -9103.9847     -9186.8489      82.864167      9601.7183      334.06206      14215.62       1.3468125      0.67596428   
     23800  -9106.6351     -9188.0095      81.374331      9225.3808      328.05587      14242.521      1.3442686      0.67596428   
     23900  -9105.9937     -9188.254       82.260323      10378.885      331.6277       14261.783      1.3424531      0.67596428   
     24000  -9105.4519     -9185.3385      79.886582      12329.794      322.0581       14270.97       1.3415889      0.63979574   
     24100  -9105.8487     -9186.4971      80.648349      11609.044      325.12912      14273.397      1.3413607      0.63979574   
     24200  -9104.8992     -9187.765       82.865871      9309.5475      334.06893      14269.376      1.3417388      0.63979574   
     24300  -9105.5895     -9188.1368      82.547338      6387.3319      332.78478      14254.041      1.3431822      0.63979574   
     24400  -9103.7197     -9185.0129      81.293144      10000.866      327.72857      14229.458      1.3455028      0.63979574   
     24500  -9105.0391     -9186.4089      81.369802      9208.024       328.03761      14202.42       1.3480643      0.63979574   
     24600  -9105.2373     -9187.2206      81.983315      8682.508       330.51096      14175.422      1.3506317      0.63979574   
     24700  -9103.9877     -9186.8484      82.86071       8828.8318      334.04812      14153.865      1.3526888      0.63979574   
     24800  -9104.4217     -9188.099       83.67725       9158.6053      337.33996      14146.334      1.3534089      0.63979574   
     24900  -9107.9634     -9188.6855      80.722123      9130.2195      325.42653      14154.056      1.3526706      0.63979574   
     25000  -9109.5503     -9192.2784      82.728097      11825.944      333.5135       14173.078      1.3508551      0.66498967   
     25100  -9107.8877     -9189.5354      81.647675      11345.532      329.15784      14193.657      1.3488966      0.66498967   
     25200  -9111.0009     -9189.3281      78.327183      10272.871      315.77147      14211.316      1.3472204      0.66498967   
     25300  -9111.1072     -9190.1102      79.002956      11985.657      318.49581      14221.546      1.3462513      0.66498967   
     25400  -9111.3363     -9192.1658      80.829447      8168.5435      325.8592       14225.069      1.3459179      0.66498967   
     25500  -9108.8971     -9186.1728      77.275662      9083.6005      311.53233      14215.792      1.3467962      0.66498967   
     25600  -9110.7672     -9189.2125      78.445296      8286.5783      316.24764      14196.385      1.3486373      0.66498967   
     25700  -9110.9391     -9191.0638      80.124643      7764.6186      323.01783      14171.598      1.3509962      0.66498967   
     25800  -9111.3527     -9190.5414      79.188655      12458.35       319.24445      14144.98       1.3535385      0.66498967   
     25900  -9110.4457     -9191.6119      81.166142      13077.37       327.21657      14120.922      1.3558445      0.66498967   
     26000  -9106.4362     -9188.8191      82.382882      11421.054      332.12179      14107.169      1.3571663      0.71239772   
     26100  -9107.285      -9191.1154      83.830395      12422.787      337.95735      14111.552      1.3567448      0.71239772   
     26200  -9106.7583     -9189.7566      82.99823       11792.533      334.60253      14136.107      1.3543881      0.71239772   
     26300  -9106.2649     -9187.4988      81.23386       10070.858      327.48957      14180.882      1.3501117      0.71239772   
     26400  -9104.0502     -9186.5863      82.53609       8525.784       332.73944      14236.336      1.3448527      0.71239772   
     26500  -9104.8751     -9184.911       80.035881      5846.1895      322.65999      14289.703      1.3398301      0.71239772   
     26600  -9104.5318     -9185.5131      80.981267      9137.5793      326.47126      14331.046      1.3359649      0.71239772   
     26700  -9104.4542     -9185.3657      80.911593      7159.9589      326.19037      14353.503      1.3338748      0.71239772   
     26800  -9106.8493     -9187.6683      80.819046      5831.4096      325.81727      14347.256      1.3344555      0.71239772   
     26900  -9107.0381     -9188.8249      81.786738      8235.7767      329.71847      14312.938      1.3376552      0.71239772   
     27000  -9106.4474     -9183.7957      77.348346      8484.891       311.82535      14258.698      1.3427436      0.69967827   
     27100  -9106.9664     -9187.8987      80.932243      9049.6194      326.27362      14201.921      1.3481116      0.69967827   
     27200  -9106.4566     -9188.5409      82.084293      12002.937      330.91804      14150.546      1.3530061      0.69967827   
     27300  -9108.3056     -9187.0193      78.713763      10870.246      317.32995      14115.188      1.3563953      0.69967827   
     27400  -9108.107      -9188.0413      79.934259      11347.328      322.25031      14100.678      1.3577911      0.69967827   
     27500  -9106.3597     -9187.9203      81.560534      12258.076      328.80654      14109.377      1.3569539      0.69967827   
     27600  -9105.0105     -9187.5005      82.489944      12676.562      332.5534       14136.737      1.3543277      0.69967827   
     27700  -9104.0792     -9184.0546      79.975411      13718.234      322.41621      14180.133      1.350183       0.69967827   
     27800  -9103.8496     -9184.8241      80.97447       8819.9797      326.44386      14233.471      1.3451233      0.69967827   
     27900  -9105.6573     -9187.1843      81.526963      9265.5501      328.6712       14284.049      1.3403604      0.69967827   
     28000  -9106.373      -9185.6216      79.248596      10446.825      319.4861       14315.374      1.3374275      0.66336722   
     28100  -9105.0164     -9186.9467      81.930346      8735.1397      330.29742      14326.338      1.3364039      0.66336722   
     28200  -9105.0789     -9187.0725      81.993539      11137.72       330.55217      14319.179      1.3370721      0.66336722   
     28300  -9106.6432     -9190.3452      83.701938      11990.281      337.43949      14299.299      1.338931       0.66336722   
     28400  -9104.8137     -9188.8386      84.024883      8639.6101      338.74142      14266.127      1.3420443      0.66336722   
     28500  -9106.5734     -9185.5842      79.010813      9922.7718      318.52749      14229.258      1.3455217      0.66336722   
     28600  -9105.9342     -9185.7496      79.81535       12628.178      321.77093      14198.681      1.3484193      0.66336722   
     28700  -9106.6351     -9188.3996      81.764503      9510.7623      329.62883      14177.179      1.3504643      0.66336722   
     28800  -9107.4437     -9187.71        80.266294      10343.653      323.58889      14166.725      1.3514609      0.66336722   
     28900  -9108.6316     -9188.5622      79.930612      12098.52       322.2356       14172.363      1.3509232      0.66336722   
     29000  -9107.9222     -9189.1401      81.217928      12592.034      327.42534      14184.536      1.3497639      0.70910146   
     29100  -9108.851      -9190.287       81.435994      8043.6409      328.30446      14199.962      1.3482976      0.70910146   
     29200  -9108.5377     -9187.4223      78.884619      9153.085       318.01874      14217.411      1.3466429      0.70910146   
     29300  -9108.3441     -9188.4225      80.078404      10784.38       322.83142      14230.447      1.3454092      0.70910146   
     29400  -9106.7269     -9185.9202      79.193289      10471.109      319.26313      14238.261      1.3446708      0.70910146   
     29500  -9106.8876     -9187.3906      80.502928      9735.9007      324.54286      14246.689      1.3438754      0.70910146   
     29600  -9105.6216     -9187.5482      81.926549      10206.506      330.28211      14253.791      1.3432058      0.70910146   
     29700  -9105.4046     -9187.4662      82.061604      6660.4475      330.82657      14256.619      1.3429394      0.70910146   
     29800  -9105.3424     -9186.2947      80.952304      6037.6763      326.3545       14250.351      1.3435301      0.70910146   
     29900  -9104.4336     -9187.8283      83.394735      9980.9011      336.20101      14237.996      1.3446959      0.70910146   
     30000  -9106.5987     -9186.6999      80.101164      8755.2286      322.92317      14225.453      1.3458816      0.76276031   
     30100  -9105.1216     -9185.8546      80.73303       10486.405      325.47051      14215.068      1.3468648      0.76276031   
     30200  -9102.2113     -9184.7428      82.531473      9520.29        332.72082      14211.206      1.3472308      0.76276031   
     30300  -9102.5299     -9184.1442      81.61426       9120.5653      329.02313      14217.936      1.3465932      0.76276031   
     30400  -9103.7402     -9185.8432      82.103048      11673.567      330.99366      14234.821      1.3449958      0.76276031   
     30500  -9104.0081     -9186.9483      82.940111      9124.9327      334.36822      14258.578      1.3427549      0.76276031   
     30600  -9106.4356     -9187.431       80.995362      8315.4972      326.52808      14286.794      1.3401029      0.76276031   
     30700  -9105.7883     -9187.9266      82.138236      7920.3513      331.13551      14310.945      1.3378414      0.76276031   
     30800  -9105.422      -9184.7394      79.317481      8492.3048      319.7638       14320.906      1.3369108      0.76276031   
     30900  -9106.0345     -9186.8979      80.863464      8440.046       325.99634      14315.941      1.3373745      0.76276031   
     31000  -9105.549      -9185.9161      80.367084      10704.541      323.99522      14298.529      1.3390031      0.72298252   
     31100  -9105.5021     -9187.6596      82.157551      10726.704      331.21338      14270.747      1.3416098      0.72298252   
     31200  -9106.6363     -9188.5739      81.937542      10787.871      330.32643      14234.863      1.3449918      0.72298252   
     31300  -9108.0095     -9188.935       80.925458      10527.637      326.24627      14201.456      1.3481558      0.72298252   
     31400  -9107.5264     -9188.4444      80.917994      11814.231      326.21618      14177.418      1.3504416      0.72298252   
     31500  -9108.1966     -9188.3245      80.127878      11364.019      323.03087      14165.192      1.3516071      0.72298252   
     31600  -9108.5474     -9190.3779      81.830499      13801.209      329.89489      14162.07       1.3519051      0.72298252   
     31700  -9107.9584     -9186.6875      78.729167      10953.894      317.39205      14170.494      1.3511015      0.72298252   
     31800  -9105.3902     -9186.5165      81.126316      9483.6027      327.05602      14198.766      1.3484112      0.72298252   
     31900  -9106.1619     -9188.1035      81.941598      9228.6052      330.34278      14242.629      1.3442584      0.72298252   
     32000  -9105.907      -9186.8955      80.988477      8716.4046      326.50032      14287.979      1.3399918      0.67630192   
     32100  -9102.5574     -9185.7605      83.203086      12969.474      335.42839      14323.752      1.3366452      0.67630192   
     32200  -9101.9826     -9184.1722      82.189647      8012.2111      331.34277      14352.728      1.3339468      0.67630192   
     32300  -9102.3558     -9187.0516      84.695848      7865.7027      341.44638      14365.659      1.332746       0.67630192   
     32400  -9102.0995     -9185.8884      83.788918      8700.9919      337.79014      14353.067      1.3339152      0.67630192   
     32500  -9103.5013     -9184.908       81.40664       10925.976      328.18613      14321.342      1.3368702      0.67630192   
     32600  -9103.5574     -9184.3727      80.815248      7951.2056      325.80196      14277.509      1.3409744      0.67630192   
     32700  -9104.7572     -9186.8199      82.062725      9484.2675      330.83109      14231.937      1.3452683      0.67630192   
     32800  -9106.8118     -9189.0104      82.19863       8510.4011      331.37899      14194.296      1.3488358      0.67630192   
     32900  -9107.0495     -9186.6928      79.643363      10626.049      321.07758      14168.287      1.3513119      0.67630192   
     33000  -9108.0866     -9188.9759      80.889343      11741.408      326.10067      14160.866      1.35202        0.74901579   
     33100  -9109.0289     -9188.0942      79.065244      10416.157      318.74693      14170.568      1.3510943      0.74901579   
     33200  -9107.5194     -9189.0876      81.568225      9279.7331      328.83754      14193.538      1.3489078      0.74901579   
     33300  -9108.7552     -9189.6164      80.861206      10239.201      325.98724      14222.585      1.3461529      0.74901579   
     33400  -9109.2186     -9189.2114      79.992855      8541.0314      322.48653      14251.152      1.3434545      0.74901579   
     33500  -9109.0682     -9189.5817      80.513466      10346.486      324.58534      14272.448      1.34145        0.74901579   
     33600  -9107.276      -9189.6738      82.397829      9097.7351      332.18205      14278.789      1.3408542      0.74901579   
     33700  -9109.1029     -9188.2023      79.099471      9199.455       318.88491      14270.609      1.3416229      0.74901579   
     33800  -9110.1442     -9188.271       78.126786      8569.9028      314.96358      14249.546      1.3436059      0.74901579   
     33900  -9112.3725     -9189.4893      77.116785      10139.058      310.89182      14218.517      1.3465381      0.74901579   
     34000  -9110.7279     -9187.2282      76.500287      9192.915       308.40645      14181.188      1.3500826      0.68616314   
     34100  -9109.2342     -9190.725       81.490765      12077.351      328.52527      14145.992      1.3534416      0.68616314   
     34200  -9109.7451     -9191.3092      81.564046      10447.997      328.8207       14121.66       1.3557736      0.68616314   
     34300  -9110.6497     -9190.948       80.298278      12291.808      323.71783      14107.376      1.3571464      0.68616314   
     34400  -9112.5642     -9190.8366      78.272359      8439.0226      315.55045      14107.218      1.3571616      0.68616314   
     34500  -9112.0099     -9191.6481      79.638237      9337.6672      321.05691      14119.856      1.3559469      0.68616314   
     34600  -9109.3234     -9189.1734      79.850043      9734.8818      321.91079      14141.352      1.3538857      0.68616314   
     34700  -9107.7758     -9186.9307      79.15491       10133.347      319.10841      14174.104      1.3507573      0.68616314   
     34800  -9106.9247     -9187.5989      80.674242      8486.6735      325.23351      14216.65       1.3467149      0.68616314   
     34900  -9106.3561     -9185.0523      78.696236      6752.9182      317.25929      14255.718      1.3430242      0.68616314   
     35000  -9107.4889     -9188.8426      81.35376       10439.076      327.97294      14283.803      1.3403836      0.6247955    
     35100  -9107.5375     -9189.4513      81.913799      12140.017      330.23071      14294.962      1.3393372      0.6247955    
     35200  -9106.2751     -9185.855       79.579833      7781.7291      320.82146      14285.534      1.3402212      0.6247955    
     35300  -9105.6764     -9187.0236      81.347177      8812.1011      327.9464       14256.907      1.3429122      0.6247955    
     35400  -9106.4612     -9188.0179      81.556684      12065.938      328.79102      14215.28       1.3468447      0.6247955    
     35500  -9104.7141     -9187.9881      83.273979      13695.813      335.71419      14173.699      1.3507959      0.6247955    
     35600  -9105.0194     -9187.9763      82.9569        11270.467      334.43591      14143.503      1.3536799      0.6247955    
     35700  -9107.655      -9187.6666      80.011568      10337.232      322.56197      14129.593      1.3550125      0.6247955    
     35800  -9108.3074     -9190.7381      82.430723      14280.391      332.31466      14134.833      1.3545101      0.6247955    
     35900  -9107.2706     -9188.4497      81.179102      13428.16       327.26882      14156.691      1.3524188      0.6247955    
     36000  -9106.8241     -9187.5289      80.704784      10944.221      325.35663      14187          1.3495294      0.67448002   
     36100  -9107.0983     -9188.3097      81.211474      8868.6424      327.39932      14220.975      1.3463054      0.67448002   
     36200  -9106.3429     -9190.1177      83.774793      7818.2813      337.7332       14256.351      1.3429646      0.67448002   
     36300  -9107.4438     -9188.1518      80.70799       7755.6794      325.36956      14283.068      1.3404525      0.67448002   
     36400  -9106.4656     -9185.9649      79.499313      8600.3578      320.49685      14291.228      1.3396872      0.67448002   
     36500  -9109.9256     -9189.355       79.429382      10704.141      320.21492      14278.613      1.3408708      0.67448002   
     36600  -9109.7842     -9189.4135      79.629309      9904.5317      321.02092      14248.271      1.3437261      0.67448002   
     36700  -9109.1431     -9187.9848      78.841649      13940.394      317.84552      14202.937      1.3480152      0.67448002   
     36800  -9109.1497     -9188.6139      79.464223      13037.146      320.35538      14158.243      1.3522705      0.67448002   
     36900  -9105.4199     -9186.5196      81.099669      9283.3934      326.94859      14122.718      1.3556721      0.67448002   
     37000  -9104.6978     -9186.2112      81.513461      10777.023      328.61677      14111.66       1.3567344      0.75249241   
     37100  -9106.8291     -9189.0708      82.24177       13156.064      331.5529       14126.794      1.3552809      0.75249241   
     37200  -9105.765      -9187.0258      81.260757      10095.541      327.59801      14163.313      1.3517865      0.75249241   
     37300  -9106.4871     -9186.797       80.30995       7213.7824      323.76488      14215.589      1.3468155      0.75249241   
     37400  -9107.8222     -9188.6253      80.803097      10742.22       325.75298      14275.345      1.3411777      0.75249241   
     37500  -9107.6436     -9188.4587      80.815023      9838.4975      325.80105      14324.547      1.336571       0.75249241   
     37600  -9108.3994     -9188.7626      80.363281      7729.1869      323.97989      14351.971      1.3340171      0.75249241   
     37700  -9108.0153     -9191.1498      83.134482      8092.4745      335.15182      14347.639      1.3344199      0.75249241   
     37800  -9107.4372     -9191.1988      83.761553      8709.9333      337.67982      14310.369      1.3378952      0.75249241   
     37900  -9106.2273     -9185.3985      79.171203      10605.953      319.17409      14255.739      1.3430223      0.75249241   
     38000  -9106.2427     -9188.0136      81.770932      11471.296      329.65475      14202.745      1.3480334      0.67478644   
     38100  -9106.343      -9186.3472      80.004243      14236.833      322.53245      14161.072      1.3520003      0.67478644   
     38200  -9108.0363     -9188.9731      80.936829      11100.378      326.29211      14134.674      1.3545254      0.67478644   
     38300  -9106.0849     -9188.3827      82.297814      10586.224      331.77884      14128.026      1.3551628      0.67478644   
     38400  -9104.1911     -9186.9945      82.803432      11373.837      333.81721      14140.73       1.3539453      0.67478644   
     38500  -9106.3343     -9189.7736      83.439248      10652.846      336.38046      14168.716      1.351271       0.67478644   
     38600  -9107.7827     -9188.9634      81.18071       9792.1305      327.2753       14201.826      1.3481206      0.67478644   
     38700  -9106.4659     -9186.605       80.139092      7366.5256      323.07608      14231.902      1.3452717      0.67478644   
     38800  -9106.5864     -9186.7847      80.198366      9285.7258      323.31504      14259.628      1.342656       0.67478644   
     38900  -9107.2452     -9188.0779      80.832731      11001.917      325.87244      14274.51       1.3412562      0.67478644   
     39000  -9105.0137     -9186.5973      81.58353       9984.7988      328.89925      14273.494      1.3413517      0.70250145   
     39100  -9105.4378     -9187.5785      82.140732      10476.396      331.14557      14261.943      1.342438       0.70250145   
     39200  -9106.4969     -9187.7478      81.250882      12179.73       327.5582       14246.511      1.3438921      0.70250145   
     39300  -9107.1653     -9189.3756      82.210278      8863.9506      331.42595      14227.797      1.3456599      0.70250145   
     39400  -9107.5478     -9187.687       80.139266      12133.025      323.07678      14206.867      1.3476423      0.70250145   
     39500  -9105.4619     -9186.6143      81.1524        7340.9948      327.16117      14185.893      1.3496348      0.70250145   
     39600  -9105.472      -9187.2831      81.811007      10496.263      329.81631      14171.91       1.3509664      0.70250145   
     39700  -9106.7823     -9186.0596      79.277315      11464.088      319.60188      14172.64       1.3508968      0.70250145   
     39800  -9104.8926     -9184.5921      79.699437      7823.2056      321.30364      14182.182      1.349988       0.70250145   
     39900  -9107.6213     -9185.8451      78.223853      10514.965      315.35491      14197.935      1.3484901      0.70250145   
     40000  -9106.8341     -9187.0957      80.261616      11624.481      323.57003      14216.434      1.3467353      0.7002828    
     40100  -9107.1194     -9187.92        80.80057       9887.4553      325.74279      14233.948      1.3450783      0.7002828    
     40200  -9107.4632     -9189.7008      82.237623      9945.7157      331.53619      14245.988      1.3439415      0.7002828    
     40300  -9108.3233     -9188.4719      80.148578      11743.511      323.11432      14248          1.3437518      0.7002828    
     40400  -9106.36       -9188.1212      81.761236      10539.049      329.61566      14238.78       1.3446218      0.7002828    
     40500  -9106.2434     -9190.2066      83.96325       9505.9923      338.49295      14222.086      1.3462002      0.7002828    
     40600  -9109.376      -9190.15        80.773961      9857.9444      325.63552      14199.917      1.3483019      0.7002828    
     40700  -9108.497      -9188.3899      79.892823      10413.785      322.08326      14174.056      1.3507619      0.7002828    
     40800  -9107.243      -9188.1864      80.943358      12165.127      326.31843      14154.003      1.3526756      0.7002828    
     40900  -9106.1226     -9186.9715      80.848892      11776.273      325.9376       14145.712      1.3534684      0.7002828    
     41000  -9106.0139     -9188.7562      82.742338      9913.222       333.57091      14152.833      1.3527874      0.6761046    
     41100  -9106.7603     -9188.9172      82.156918      8924.6772      331.21083      14170.577      1.3510935      0.6761046    
     41200  -9106.7297     -9188.8757      82.145988      6485.3477      331.16676      14194.151      1.3488496      0.6761046    
     41300  -9105.8561     -9186.1201      80.264006      11353.796      323.57966      14220.134      1.346385       0.6761046    
     41400  -9106.3247     -9187.4408      81.11613       9438.9388      327.01495      14248.629      1.3436924      0.6761046    
     41500  -9105.786      -9187.6748      81.888799      10188.487      330.12992      14268.087      1.3418599      0.6761046    
     41600  -9106.5816     -9185.6469      79.065328      8219.1074      318.74726      14270.818      1.3416032      0.6761046    
     41700  -9108.3906     -9187.8852      79.49465       9101.1873      320.47805      14256.331      1.3429664      0.6761046    
     41800  -9106.0585     -9187.92        81.861528      8227.8835      330.01998      14228.054      1.3456355      0.6761046    
     41900  -9107.1271     -9188.5114      81.384218      8867.6626      328.09573      14193.877      1.3488756      0.6761046    
     42000  -9105.3153     -9186.0961      80.780742      7396.8659      325.66286      14159.068      1.3521917      0.75324367   
     42100  -9103.6601     -9184.6097      80.949558      8736.7301      326.34343      14130.685      1.3549077      0.75324367   
     42200  -9103.568      -9187.3469      83.778892      7486.7802      337.74972      14120.672      1.3558685      0.75324367   
     42300  -9104.157      -9186.2631      82.106028      10562.642      331.00567      14130.276      1.354947       0.75324367   
     42400  -9105.9665     -9188.5782      82.61171       12139.533      333.04429      14157.691      1.3523233      0.75324367   
     42500  -9108.2404     -9188.1679      79.927481      13549.935      322.22298      14195.711      1.3487014      0.75324367   
     42600  -9107.1066     -9189.016       81.909369      10412.488      330.21285      14232.064      1.3452564      0.75324367   
     42700  -9107.4273     -9187.9755      80.548236      12396.373      324.72552      14258.818      1.3427322      0.75324367   
     42800  -9107.1        -9187.9499      80.849897      9450.2026      325.94165      14271.639      1.341526       0.75324367   
     42900  -9106.146      -9186.5812      80.435181      6818.0536      324.26975      14262.636      1.3423728      0.75324367   
     43000  -9107.4968     -9188.0523      80.555534      8292.4786      324.75494      14237.4        1.3447521      0.6444264    
     43100  -9108.196      -9186.4977      78.301766      8390.4259      315.669        14205.181      1.3478022      0.6444264    
     43200  -9107.9123     -9188.121       80.20866       8132.3858      323.35654      14170.494      1.3511014      0.6444264    
     43300  -9106.7417     -9187.4612      80.719486      11763.802      325.4159       14136.495      1.3543509      0.6444264    
     43400  -9108.1054     -9188.7952      80.689827      10713.54       325.29633      14114.504      1.356461       0.6444264    
     43500  -9109.3771     -9187.9752      78.598082      12466.188      316.86359      14109.251      1.3569661      0.6444264    
     43600  -9109.7775     -9189.8655      80.088028      11206.959      322.87022      14118.677      1.3560601      0.6444264    
     43700  -9109.0039     -9189.9851      80.981197      10554.775      326.47097      14138.26       1.3541819      0.6444264    
     43800  -9106.8485     -9187.338       80.48955       9338.2948      324.48893      14162.721      1.3518429      0.6444264    
     43900  -9108.346      -9187.4399      79.093925      10642.361      318.86255      14192.25       1.3490303      0.6444264    
     44000  -9109.1605     -9189.171       80.010522      11236.334      322.55776      14216.186      1.3467589      0.73123525   
     44100  -9108.2271     -9189.4529      81.22576       9440.2862      327.45692      14228.975      1.3455484      0.73123525   
     44200  -9107.24       -9187.5608      80.320812      9263.4655      323.80867      14228.821      1.345563       0.73123525   
     44300  -9106.7737     -9185.6133      78.839565      9004.483       317.83711      14217.548      1.3466298      0.73123525   
     44400  -9106.1288     -9188.2532      82.124377      9762.8118      331.07964      14203.966      1.3479175      0.73123525   
     44500  -9106.6468     -9188.0605      81.413741      9836.0788      328.21475      14188.893      1.3493495      0.73123525   
     44600  -9108.6985     -9189.0972      80.398681      9251.2975      324.1226       14171.581      1.3509978      0.73123525   
     44700  -9111.3065     -9188.9249      77.618356      9967.0983      312.91388      14154.955      1.3525846      0.73123525   
     44800  -9110.6474     -9189.0208      78.373464      12091.481      315.95805      14139.926      1.3540222      0.73123525   
     44900  -9109.348      -9188.4891      79.141136      11057.612      319.05288      14130.969      1.3548806      0.73123525   
     45000  -9107.398      -9187.8263      80.428277      10734.933      324.24191      14133.607      1.3546277      0.66195281   
     45100  -9105.2066     -9186.3528      81.146168      13501.995      327.13605      14152.362      1.3528325      0.66195281   
     45200  -9107.0317     -9188.4033      81.37159       10739.932      328.04482      14187.614      1.3494711      0.66195281   
     45300  -9108.0159     -9186.6998      78.683951      8679.5175      317.20976      14231.149      1.3453429      0.66195281   
     45400  -9107.4491     -9188.3882      80.939078      8872.2952      326.30118      14266.596      1.3420002      0.66195281   
     45500  -9105.2473     -9188.4849      83.237572      8627.5709      335.56742      14283.97       1.3403679      0.66195281   
     45600  -9104.8861     -9188.1382      83.252081      11009.285      335.62591      14284.828      1.3402874      0.66195281   
     45700  -9105.2285     -9185.655       80.426496      10409.025      324.23473      14276.625      1.3410575      0.66195281   
     45800  -9103.8993     -9185.7557      81.856333      11337.988      329.99904      14264.237      1.3422222      0.66195281   
     45900  -9103.6392     -9186.1941      82.554814      9486.5674      332.81492      14246.642      1.3438799      0.66195281   
     46000  -9102.4505     -9186.6764      84.225855      11193.191      339.55163      14224.092      1.3460103      0.72222433   
     46100  -9104.4687     -9185.8086      81.339933      8557.1155      327.9172       14206.14       1.3477113      0.72222433   
     46200  -9103.5887     -9187.1307      83.541941      11015.666      336.79447      14201.746      1.3481282      0.72222433   
     46300  -9104.9892     -9185.0704      80.081176      8438.3242      322.84259      14208.058      1.3475293      0.72222433   
     46400  -9105.8767     -9185.8048      79.928099      9984.3369      322.22547      14222.076      1.3462011      0.72222433   
     46500  -9105.8984     -9187.5323      81.633918      11638.526      329.10238      14237.612      1.3447322      0.72222433   
     46600  -9108.068      -9186.7164      78.648483      9086.184       317.06678      14250.595      1.343507       0.72222433   
     46700  -9108.9911     -9188.8354      79.844327      9148.5439      321.88775      14258.886      1.3427258      0.72222433   
     46800  -9109.5918     -9189.5522      79.96047       12666.249      322.35597      14254.746      1.3431158      0.72222433   
     46900  -9109.9731     -9189.5165      79.543388      8277.5347      320.67453      14234.226      1.345052       0.72222433   
     47000  -9109.4627     -9187.6621      78.199363      8435.0703      315.25618      14200.456      1.3482507      0.72706343   
     47100  -9107.7225     -9188.9041      81.181641      10773.815      327.27905      14165.257      1.3516009      0.72706343   
     47200  -9105.5174     -9188.9878      83.470308      10046.553      336.50568      14134.781      1.3545151      0.72706343   
     47300  -9105.4251     -9187.3232      81.898118      12294.669      330.16749      14118.213      1.3561047      0.72706343   
     47400  -9106.1364     -9187.458       81.321507      10128.228      327.84292      14124.351      1.3555153      0.72706343   
     47500  -9104.1695     -9186.8292      82.659744      11582.102      333.23794      14150.47       1.3530134      0.72706343   
     47600  -9103.716      -9186.9459      83.229935      10399.884      335.53663      14189.961      1.3492479      0.72706343   
     47700  -9105.4596     -9185.9976      80.537986      10525.048      324.6842       14237.111      1.3447794      0.72706343   
     47800  -9105.9772     -9187.6285      81.651319      8587.689       329.17253      14276.125      1.3411045      0.72706343   
     47900  -9104.3046     -9185.4089      81.104245      6765.418       326.96704      14301.213      1.3387518      0.72706343   
     48000  -9103.8713     -9187.6926      83.821313      10550.756      337.92074      14307.85       1.3381308      0.69350829   
     48100  -9103.3151     -9186.8026      83.487453      11971.183      336.5748       14293.604      1.3394644      0.69350829   
     48200  -9102.982      -9186.2229      83.240821      12344.472      335.58052      14264.673      1.3421811      0.69350829   
     48300  -9104.1955     -9185.9173      81.721794      11162.418      329.45665      14229.179      1.3455291      0.69350829   
     48400  -9104.4694     -9185.6177      81.148335      9865.1672      327.14478      14195.06       1.3487632      0.69350829   
     48500  -9103.3174     -9186.4076      83.090117      11640.946      334.97296      14169.855      1.3511623      0.69350829   
     48600  -9105.5951     -9187.1026      81.507433      10167.803      328.59247      14158.6        1.3522364      0.69350829   
     48700  -9109.525      -9187.3225      77.797445      10612.465      313.63587      14163.799      1.3517401      0.69350829   
     48800  -9109.2113     -9190.3668      81.155505      11030.316      327.17369      14181.665      1.3500372      0.69350829   
     48900  -9108.728      -9185.5935      76.865549      9568.1804      309.87898      14201.488      1.3481527      0.69350829   
     49000  -9107.2874     -9187.3438      80.056478      9695.9543      322.74303      14225.433      1.3458835      0.8622307    
     49100  -9105.5251     -9185.9773      80.452208      9379.0817      324.33839      14248.839      1.3436726      0.8622307    
     49200  -9103.7646     -9186.6542      82.889537      9685.1901      334.16434      14265.858      1.3420696      0.8622307    
     49300  -9102.3797     -9183.7534      81.37369       8313.2598      328.05329      14275.205      1.3411909      0.8622307    
     49400  -9102.1081     -9186.8246      84.716469      10244.88       341.52951      14286.706      1.3401112      0.8622307    
     49500  -9101.8776     -9186.1925      84.314909      10195.72       339.91064      14297.376      1.3391111      0.8622307    
     49600  -9106.1144     -9187.8938      81.779334      11780.632      329.68862      14299.914      1.3388734      0.8622307    
     49700  -9105.1462     -9184.98        79.833814      9943.2633      321.84537      14290.839      1.3397236      0.8622307    
     49800  -9104.7377     -9186.4605      81.72279       9783.8571      329.46067      14271.705      1.3415198      0.8622307    
     49900  -9106.1497     -9187.0691      80.919446      9044.5921      326.22203      14246.657      1.3438784      0.8622307    
     50000  -9106.5832     -9188.546       81.962831      10783.479      330.42837      14216.203      1.3467573      0.7316461    
     50100  -9107.0883     -9185.6936      78.605362      10056.307      316.89294      14190.271      1.3492184      0.7316461    
     50200  -9106.8125     -9187.4948      80.682302      11506.294      325.266        14174.926      1.350679       0.7316461    
     50300  -9103.9387     -9187.4827      83.544065      11971.46       336.80303      14172.66       1.3508949      0.7316461    
     50400  -9103.5924     -9184.598       81.005613      9937.3411      326.56941      14186.526      1.3495745      0.7316461    
     50500  -9105.2068     -9186.5728      81.365952      9690.2646      328.02209      14213.539      1.3470097      0.7316461    
     50600  -9104.8697     -9186.3613      81.491579      10455.858      328.52855      14246.283      1.3439137      0.7316461    
     50700  -9105.2893     -9188.0093      82.719956      10938.757      333.48068      14274.912      1.3412184      0.7316461    
     50800  -9106.6041     -9188.7192      82.115074      11016.745      331.04214      14292.296      1.339587       0.7316461    
     50900  -9106.5633     -9188.9049      82.341597      9360.5154      331.95535      14297.692      1.3390815      0.7316461    
     51000  -9106.5488     -9187.7206      81.17173       11193.153      327.2391       14286.065      1.3401713      0.6576717    
     51100  -9106.5948     -9186.6802      80.085383      7752.4409      322.85955      14262.579      1.3423782      0.6576717    
     51200  -9108.1546     -9187.9195      79.764916      4250.7371      321.56761      14233.086      1.3451598      0.6576717    
     51300  -9106.4219     -9186.0123      79.590398      9241.3194      320.86405      14199.41       1.34835        0.6576717    
     51400  -9107.2051     -9186.6848      79.479653      11108.307      320.41759      14172.834      1.3508784      0.6576717    
     51500  -9109.3762     -9187.6916      78.315359      9635.0491      315.7238       14156.794      1.3524089      0.6576717    
     51600  -9110.0861     -9188.562       78.475967      9464.4589      316.37129      14150.161      1.3530429      0.6576717    
     51700  -9107.5759     -9188.8126      81.236705      11130.455      327.50104      14154.164      1.3526602      0.6576717    
     51800  -9106.8422     -9188.0349      81.192684      10125.923      327.32358      14168.484      1.3512931      0.6576717    
     51900  -9105.8488     -9187.9107      82.061884      8107.5446      330.8277       14192.497      1.3490067      0.6576717    
     52000  -9105.2961     -9186.0029      80.706756      12094.779      325.36458      14220.134      1.3463849      0.68898492   
     52100  -9105.3171     -9187.3177      82.000682      12623.848      330.58097      14247.416      1.3438068      0.68898492   
     52200  -9107.5793     -9188.3523      80.773034      9463.2068      325.63178      14268.85       1.3417882      0.68898492   
     52300  -9105.6871     -9187.3141      81.627032      6511.0808      329.07462      14275.16       1.3411951      0.68898492   
     52400  -9108.0306     -9187.7661      79.735451      10416.835      321.44883      14265.647      1.3420894      0.68898492   
     52500  -9107.3503     -9189.01        81.659759      13210.986      329.20656      14241.188      1.3443945      0.68898492   
     52600  -9108.5097     -9190.4686      81.958832      9591.0766      330.41225      14207.517      1.3475806      0.68898492   
     52700  -9108.3097     -9188.0792      79.769542      10143.147      321.58626      14169.293      1.351216       0.68898492   
     52800  -9107.0529     -9189.1837      82.130794      9571.4955      331.10551      14144.341      1.3535996      0.68898492   
     52900  -9104.7788     -9187.4095      82.630652      11576.626      333.12066      14136.081      1.3543905      0.68898492   
     53000  -9104.2565     -9185.9811      81.724678      11173.986      329.46828      14150.085      1.3530501      0.65594159   
     53100  -9106.1146     -9187.8665      81.751851      9840.7427      329.57782      14183.596      1.3498534      0.65594159   
     53200  -9107.4142     -9186.9442      79.529995      11065.853      320.62054      14222.937      1.3461196      0.65594159   
     53300  -9105.6352     -9187.7669      82.131716      11895.349      331.10923      14255.881      1.3430088      0.65594159   
     53400  -9107.6283     -9186.3264      78.698097      10217.95       317.26679      14283.165      1.3404434      0.65594159   
     53500  -9108.6068     -9186.8121      78.205367      10465.255      315.28038      14299.38       1.3389234      0.65594159   
     53600  -9107.8165     -9188.0373      80.220822      11832.808      323.40557      14299.736      1.3388901      0.65594159   
     53700  -9106.1987     -9188.4516      82.252847      9553.4492      331.59756      14286.151      1.3401633      0.65594159   
     53800  -9104.2957     -9184.5243      80.228556      10008.324      323.43675      14263.263      1.3423138      0.65594159   
     53900  -9104.2201     -9183.9781      79.758033      11403.932      321.53986      14236.613      1.3448266      0.65594159   
     54000  -9104.9455     -9187.4543      82.508805      9598.6832      332.62944      14212.621      1.3470967      0.66447666   
     54100  -9108.6084     -9187.9475      79.339124      9880.5353      319.85105      14196.335      1.3486421      0.66447666   
     54200  -9109.419      -9189.6875      80.268526      10116.718      323.59788      14185.18       1.3497027      0.66447666   
     54300  -9111.7348     -9191.4276      79.692812      9684.6605      321.27693      14176.071      1.3505699      0.66447666   
     54400  -9111.9741     -9191.4086      79.434529      8655.5777      320.23567      14171.259      1.3510285      0.66447666   
     54500  -9108.8771     -9188.444       79.566899      11322.413      320.76932      14170.017      1.3511469      0.66447666   
     54600  -9107.2536     -9188.3629      81.109292      9861.2505      326.98738      14183.138      1.349897       0.66447666   
     54700  -9106.8359     -9187.3101      80.47418       11053.941      324.42697      14208.104      1.347525       0.66447666   
     54800  -9108.3948     -9186.443       78.048151      8257.7688      314.64657      14239.409      1.3445624      0.66447666   
     54900  -9107.6908     -9188.1317      80.440829      9466.7402      324.29251      14267.77       1.3418897      0.66447666   
     55000  -9107.9506     -9188.2688      80.3182        11380.542      323.79814      14281.644      1.3405862      0.76790905   
     55100  -9108.3561     -9189.8884      81.53229       9129.2865      328.69268      14279.94       1.3407462      0.76790905   
     55200  -9111.0474     -9189.5604      78.512977      8206.0303      316.52049      14258.833      1.3427308      0.76790905   
     55300  -9109.734      -9189.9163      80.182294      10195.554      323.25025      14225.064      1.3459183      0.76790905   
     55400  -9109.5613     -9191.0877      81.526403      7663.3763      328.66894      14189.37       1.349304       0.76790905   
     55500  -9109.7213     -9188.562       78.840738      13476.772      317.84184      14153.196      1.3527527      0.76790905   
     55600  -9107.8695     -9189.939       82.069496      13528.975      330.85839      14122.531      1.3556901      0.76790905   
[...]
    386300  -9112.6721     -9191.1024      78.430342      9669.5157      316.18735      14160.691      1.3520367      0.65349105   
    386400  -9111.55       -9190.9729      79.422923      10765.783      320.18888      14179.116      1.3502798      0.65349105   
    386500  -9107.5759     -9187.2866      79.710651      10637.05       321.34885      14191.834      1.3490698      0.65349105   
    386600  -9106.8427     -9188.346       81.503309      8226.6445      328.57584      14202.697      1.348038       0.65349105   
    386700  -9106.0743     -9187.5244      81.450057      10254.801      328.36116      14209.434      1.3473988      0.65349105   
    386800  -9108.488      -9188.6359      80.147923      9452.1001      323.11168      14212.719      1.3470874      0.65349105   
    386900  -9109.3069     -9187.8376      78.530671      10590.789      316.59182      14208.1        1.3475254      0.65349105   
    387000  -9109.6455     -9192.2454      82.599975      8919.4734      332.99699      14196.631      1.348614       0.67028829   
    387100  -9109.4889     -9188.3185      78.829517      11327.152      317.7966       14180.52       1.3501461      0.67028829   
    387200  -9108.1059     -9186.5191      78.413154      9183.8813      316.11806      14165.922      1.3515375      0.67028829   
    387300  -9107.3732     -9188.4115      81.038238      11536.508      326.70093      14153.366      1.3527365      0.67028829   
    387400  -9106.8844     -9188.3943      81.509839      10251.421      328.60217      14150.096      1.3530491      0.67028829   
    387500  -9105.3832     -9188.0466      82.663387      8873.2241      333.25263      14157.984      1.3522952      0.67028829   
    387600  -9105.5574     -9186.8527      81.295326      8761.0171      327.73737      14174.486      1.3507209      0.67028829   
    387700  -9104.7073     -9185.3338      80.62646       6655.2111      325.04088      14194.429      1.3488232      0.67028829   
    387800  -9105.6849     -9189.1777      83.492772      8778.0179      336.59625      14209.78       1.347366       0.67028829   
    387900  -9105.106      -9187.24        82.134033      11078.058      331.11857      14217.632      1.3466219      0.67028829   
    388000  -9105.2758     -9185.797       80.521227      9056.2938      324.61663      14219.813      1.3464154      0.66203697   
    388100  -9106.7759     -9189.7505      82.974674      13008.909      334.50756      14217.68       1.3466173      0.66203697   
    388200  -9108.86       -9191.2187      82.358708      9313.3224      332.02433      14209.375      1.3474045      0.66203697   
    388300  -9110.022      -9189.4316      79.409544      9757.0433      320.13495      14194.316      1.3488339      0.66203697   
    388400  -9110.5569     -9189.6865      79.129549      9777.953       319.00616      14177.538      1.3504301      0.66203697   
    388500  -9110.0998     -9189.5625      79.462702      10810.142      320.34925      14162.148      1.3518977      0.66203697   
    388600  -9110.1384     -9190.2872      80.148757      10113.051      323.11504      14150.683      1.352993       0.66203697   
    388700  -9108.7        -9188.5711      79.871134      9800.1274      321.99582      14146.309      1.3534113      0.66203697   
    388800  -9106.7221     -9187.5121      80.790046      9177.2669      325.70036      14147.75       1.3532734      0.66203697   
    388900  -9106.3719     -9186.0525      79.680677      6539.5953      321.228        14157.098      1.3523799      0.66203697   
    389000  -9105.0673     -9186.0996      81.032362      9397.3216      326.67724      14175.096      1.3506628      0.66297486   
    389100  -9104.8187     -9185.9237      81.10498       11474.593      326.97         14200.527      1.348244       0.66297486   
    389200  -9105.0063     -9187.8659      82.859578      9209.1238      334.04356      14229.303      1.3455174      0.66297486   
    389300  -9105.176      -9188.4125      83.236569      11274.5        335.56338      14253.791      1.3432058      0.66297486   
    389400  -9104.4176     -9185.4764      81.05885       10484.175      326.78403      14266.538      1.3420057      0.66297486   
    389500  -9105.5555     -9188.5581      83.002603      10333.459      334.62016      14263.702      1.3422725      0.66297486   
    389600  -9106.4734     -9188.9884      82.515018      10042.675      332.65449      14245.754      1.3439636      0.66297486   
    389700  -9105.9499     -9186.8762      80.926369      11967.952      326.24994      14218.869      1.3465047      0.66297486   
    389800  -9103.195      -9186.987       83.792005      7781.9707      337.80259      14191          1.3491491      0.66297486   
    389900  -9103.9973     -9187.6158      83.618521      7781.4283      337.10319      14168.284      1.3513121      0.66297486   
    390000  -9105.5929     -9185.6901      80.09724       9628.3483      322.90735      14157.04       1.3523855      0.72711901   
    390100  -9104.9857     -9188.0605      83.074809      11255.002      334.91125      14162.054      1.3519067      0.72711901   
    390200  -9106.1973     -9187.9944      81.797056      10965.979      329.76006      14176.85       1.3504957      0.72711901   
    390300  -9104.6943     -9187.2852      82.590917      10547.314      332.96047      14194.193      1.3488456      0.72711901   
    390400  -9107.8265     -9189.1901      81.36363       7887.8389      328.01273      14213.127      1.3470487      0.72711901   
    390500  -9108.983      -9188.1547      79.171701      9030.1889      319.1761       14227.322      1.3457047      0.72711901   
    390600  -9109.063      -9189.5907      80.527729      8746.0703      324.64285      14229.004      1.3455456      0.72711901   
    390700  -9109.4158     -9187.4901      78.074344      10573.807      314.75217      14217.809      1.3466051      0.72711901   
    390800  -9107.8882     -9188.552       80.663841      10753.416      325.19157      14199.723      1.3483203      0.72711901   
    390900  -9106.0073     -9189.6471      83.639791      11263.583      337.18894      14171.821      1.3509749      0.72711901   
    391000  -9106.0408     -9186.3772      80.336452      11096.266      323.87172      14143.447      1.3536852      0.67789043   
    391100  -9106.7378     -9188.9887      82.250894      12303.741      331.58969      14120.359      1.3558986      0.67789043   
    391200  -9105.7547     -9188.3363      82.581615      8898.6886      332.92297      14105.553      1.3573218      0.67789043   
    391300  -9106.8073     -9186.6317      79.824391      10040.411      321.80738      14106.022      1.3572767      0.67789043   
    391400  -9105.5732     -9187.0861      81.512958      10639.049      328.61474      14125.339      1.3554205      0.67789043   
    391500  -9106.8267     -9188.4507      81.623993      12372.841      329.06237      14161.322      1.3519765      0.67789043   
    391600  -9110.11       -9192.5332      82.4232        9578.4815      332.28433      14201.86       1.3481174      0.67789043   
    391700  -9108.9864     -9187.4568      78.470362      11862.065      316.34869      14231.565      1.3453035      0.67789043   
    391800  -9109.7449     -9189.3561      79.611276      10168.555      320.94822      14246.456      1.3438974      0.67789043   
    391900  -9109.5501     -9189.1521      79.60196       12558.801      320.91066      14240.974      1.3444147      0.67789043   
    392000  -9109.9139     -9189.8543      79.940401      10514.844      322.27507      14216.295      1.3467486      0.68888836   
    392100  -9109.6327     -9188.4159      78.783172      12865.96       317.60977      14180.454      1.3501524      0.68888836   
    392200  -9111.471      -9189.9628      78.491748      10227.604      316.43491      14140.537      1.3539638      0.68888836   
    392300  -9109.1087     -9188.2963      79.187571      9111.0062      319.24008      14099.192      1.3579342      0.68888836   
    392400  -9108.7803     -9188.8288      80.048547      9724.802       322.71105      14069.552      1.3607949      0.68888836   
    392500  -9109.5984     -9188.6095      79.011041      9752.7279      318.52841      14063.846      1.361347       0.68888836   
    392600  -9110.686      -9188.5531      77.867112      7346.8461      313.91672      14077.179      1.3600576      0.68888836   
    392700  -9113.2795     -9192.3538      79.074288      10891.683      318.78339      14105.072      1.3573681      0.68888836   
    392800  -9112.3979     -9189.9334      77.53545       11272.156      312.57965      14136.129      1.354386       0.68888836   
    392900  -9112.4363     -9191.2406      78.804315      12272.698      317.69501      14161.908      1.3519205      0.68888836   
    393000  -9113.2476     -9190.9842      77.736621      9932.9296      313.39066      14180.608      1.3501378      0.76579998   
    393100  -9110.7504     -9189.9383      79.187893      9399.6044      319.24138      14186.067      1.3496183      0.76579998   
    393200  -9111.9068     -9190.5316      78.624735      8370.8668      316.97104      14181.023      1.3500982      0.76579998   
    393300  -9112.1644     -9191.4438      79.279387      6333.025       319.61023      14168.438      1.3512975      0.76579998   
    393400  -9111.988      -9190.3002      78.312211      9637.2328      315.71111      14153.783      1.3526967      0.76579998   
    393500  -9110.6958     -9189.454       78.758243      10527.371      317.50927      14136.733      1.3543281      0.76579998   
    393600  -9111.8528     -9191.2648      79.412035      12388.562      320.14499      14124.122      1.3555373      0.76579998   
    393700  -9109.8313     -9190.718       80.88666       10958.101      326.08986      14118.52       1.3560752      0.76579998   
    393800  -9109.146      -9187.9598      78.813866      9556.1062      317.73351      14120.178      1.3559159      0.76579998   
    393900  -9107.1869     -9186.3906      79.2037        9659.5617      319.3051       14132.825      1.3547026      0.76579998   
    394000  -9106.9774     -9188.2365      81.259117      7943.9546      327.59139      14156.344      1.3524519      0.73565697   
    394100  -9106.753      -9187.3856      80.632602      7389.3572      325.06564      14186.482      1.3495788      0.73565697   
    394200  -9109.0865     -9187.1181      78.031654      9210.9225      314.58007      14217.911      1.3465955      0.73565697   
    394300  -9109.0358     -9189.8799      80.844097      9185.5923      325.91827      14242.809      1.3442415      0.73565697   
    394400  -9109.3623     -9190.2891      80.92679       11379.087      326.25164      14255.147      1.3430781      0.73565697   
    394500  -9111.5735     -9189.8412      78.267726      9922.5702      315.53178      14248.173      1.3437354      0.73565697   
    394600  -9111.9779     -9188.3935      76.415535      6466.5267      308.06478      14219.02       1.3464904      0.73565697   
    394700  -9112.0812     -9189.5087      77.427491      9097.4864      312.14442      14175.574      1.3506172      0.73565697   
    394800  -9109.5845     -9189.0963      79.511788      9142.1428      320.54714      14128.998      1.3550695      0.73565697   
    394900  -9111.1529     -9191.7443      80.591453      9032.0303      324.89975      14088.183      1.3589953      0.73565697   
    395000  -9111.443      -9190.546       79.102965      11342.652      318.899        14062.511      1.3614762      0.71010002   
    395100  -9111.8621     -9192.0811      80.219005      11647.894      323.39825      14062.136      1.3615126      0.71010002   
    395200  -9111.6958     -9191.3799      79.684103      11630.528      321.24182      14087.373      1.3590735      0.71010002   
    395300  -9110.0474     -9188.943       78.895625      10565.17       318.06311      14131.06       1.3548718      0.71010002   
    395400  -9107.8329     -9188.9719      81.139026      9390.7684      327.10725      14189.541      1.3492878      0.71010002   
    395500  -9108.8978     -9187.5528      78.655035      8771.2814      317.09319      14253.74       1.3432106      0.71010002   
    395600  -9108.824      -9187.1738      78.349847      8781.6609      315.86284      14308.475      1.3380723      0.71010002   
    395700  -9109.2266     -9188.9249      79.698302      7921.4958      321.29906      14342.079      1.3349372      0.71010002   
    395800  -9107.5968     -9186.6465      79.049683      8630.5389      318.68419      14345.001      1.3346653      0.71010002   
    395900  -9105.3968     -9187.7929      82.396054      8043.4424      332.17489      14319.294      1.3370613      0.71010002   
    396000  -9105.1108     -9186.2576      81.146775      9450.5448      327.13849      14268.115      1.3418573      0.65919808   
    396100  -9105.8794     -9187.4649      81.585453      7619.1344      328.907        14206.024      1.3477223      0.65919808   
    396200  -9106.3208     -9186.4127      80.091876      10804.745      322.88573      14148.732      1.3531796      0.65919808   
    396300  -9105.7555     -9186.2746      80.51912       11600.428      324.60814      14108.308      1.3570567      0.65919808   
    396400  -9104.7511     -9186.7594      82.008256      12680.161      330.61151      14096.117      1.3582304      0.65919808   
    396500  -9104.2907     -9186.0893      81.798599      11845.72       329.76629      14115.547      1.3563608      0.65919808   
    396600  -9105.3334     -9187.6383      82.304859      10577.191      331.80724      14160.766      1.3520296      0.65919808   
    396700  -9104.4386     -9186.0286      81.590023      9210.5456      328.92542      14223.166      1.346098       0.65919808   
    396800  -9106.4152     -9187.8307      81.415489      10027.02       328.2218       14288.184      1.3399725      0.65919808   
    396900  -9106.4144     -9187.8954      81.48103       8810.3376      328.48602      14334.115      1.3356788      0.65919808   
    397000  -9106.3497     -9186.4957      80.145953      7761.9617      323.10374      14348.848      1.3343074      0.73704987   
    397100  -9106.1977     -9187.0789      80.881163      5962.0543      326.0677       14330.396      1.3360256      0.73704987   
    397200  -9107.9084     -9187.1566      79.248138      6737.0795      319.48425      14285.952      1.3401819      0.73704987   
    397300  -9103.9739     -9185.67        81.696117      8225.6616      329.35313      14219.982      1.3463994      0.73704987   
    397400  -9107.1095     -9187.0344      79.924915      11439.875      322.21264      14151.902      1.3528764      0.73704987   
    397500  -9105.8649     -9185.8547      79.989738      9521.9665      322.47397      14097.829      1.3580654      0.73704987   
    397600  -9106.1697     -9189.6897      83.520052      10658.421      336.70622      14068.43       1.3609034      0.73704987   
    397700  -9106.1369     -9187.0855      80.948587      10476.234      326.33951      14066.267      1.3611127      0.73704987   
    397800  -9107.2099     -9186.1564      78.946493      8384.5234      318.26819      14092.893      1.3585411      0.73704987   
    397900  -9108.5517     -9188.8959      80.344224      10012.647      323.90306      14139.92       1.3540228      0.73704987   
    398000  -9109.3498     -9188.6169      79.267124      10692.949      319.56079      14196.535      1.3486231      0.75263762   
    398100  -9109.1851     -9189.1074      79.922289      7077.7528      322.20205      14247.527      1.3437964      0.75263762   
    398200  -9109.376      -9188.1535      78.777542      9733.8556      317.58707      14279.681      1.3407705      0.75263762   
    398300  -9107.9574     -9189.6182      81.660846      12314.567      329.21094      14290.151      1.3397881      0.75263762   
    398400  -9111.5148     -9188.5461      77.031278      7307.0885      310.54711      14276.996      1.3410226      0.75263762   
    398500  -9107.6117     -9186.9953      79.383579      8928.192       320.03027      14241.762      1.3443403      0.75263762   
    398600  -9107.7088     -9187.6344      79.925599      11171.762      322.21539      14197.945      1.3484891      0.75263762   
    398700  -9107.5238     -9188.1196      80.595835      12009.89       324.91741      14158.442      1.3522515      0.75263762   
    398800  -9108.0985     -9187.9769      79.878402      8952.4152      322.02512      14130.108      1.3549631      0.75263762   
    398900  -9108.5773     -9187.8281      79.250768      11544.645      319.49485      14117.348      1.3561878      0.75263762   
    399000  -9107.0191     -9190.2287      83.209575      9761.1742      335.45455      14128.066      1.3551589      0.65501611   
    399100  -9107.9998     -9187.8857      79.885844      10655.069      322.05512      14155.796      1.3525043      0.65501611   
    399200  -9109.4488     -9191.2066      81.757856      8342.812       329.60203      14197.082      1.3485711      0.65501611   
    399300  -9106.3187     -9187.7687      81.44994       11469.167      328.36069      14238.367      1.3446609      0.65501611   
    399400  -9107.5077     -9185.618       78.11033       7211.6191      314.89724      14273.89       1.3413144      0.65501611   
    399500  -9107.5128     -9187.3554      79.842583      7058.1816      321.88072      14299.682      1.3388951      0.65501611   
    399600  -9107.3012     -9189.5149      82.213694      6955.3518      331.43972      14305.366      1.3383631      0.65501611   
    399700  -9108.7528     -9187.4845      78.731624      5530.5427      317.40195      14285.25       1.3402478      0.65501611   
    399800  -9106.8459     -9187.6573      80.811415      7699.2996      325.78651      14244.174      1.3441126      0.65501611   
    399900  -9108.3305     -9187.8575      79.527026      13385.096      320.60857      14193.632      1.3488989      0.65501611   
    400000  -9106.3986     -9189.6879      83.289353      12792.652      335.77617      14144.432      1.3535909      0.65554887   
    400100  -9106.2572     -9186.5305      80.273371      10725.294      323.61742      14109.584      1.3569341      0.65554887   
    400200  -9108.7781     -9186.8593      78.08114       10544.59       314.77957      14096.608      1.358183       0.65554887   
    400300  -9108.8155     -9188.9427      80.127126      12849.046      323.02784      14109.82       1.3569113      0.65554887   
    400310  -9108.6456     -9189.3353      80.68967       8490.7953      325.2957       14112.278      1.356675       0.65554887   
Loop time of 543.811 on 4 procs for 200000 steps with 1920 atoms

Performance: 15.888 ns/day, 1.511 hours/ns, 367.775 timesteps/s, 706.127 katom-step/s
99.6% CPU use with 4 MPI tasks x 1 OpenMP threads

MPI task timing breakdown:
Section |  min time  |  avg time  |  max time  |%varavg| %total
---------------------------------------------------------------
Pair    | 273.43     | 275.46     | 278.02     |  10.6 | 50.65
Neigh   | 7.8753     | 7.9929     | 8.0838     |   2.8 |  1.47
Comm    | 64.7       | 67.395     | 70.404     |  24.6 | 12.39
Output  | 0.30889    | 0.3155     | 0.32327    |   0.9 |  0.06
Modify  | 189.34     | 190.26     | 191.61     |   6.2 | 34.99
Other   |            | 2.387      |            |       |  0.44

Nlocal:            480 ave         486 max         475 min
Histogram: 1 0 0 1 1 0 0 0 0 1
Nghost:           2665 ave        2668 max        2658 min
Histogram: 1 0 0 0 0 0 0 0 1 2
Neighs:              0 ave           0 max           0 min
Histogram: 4 0 0 0 0 0 0 0 0 0
FullNghs:      76498.5 ave       77279 max       75678 min
Histogram: 1 0 0 0 1 1 0 0 0 1

Total # of neighbors = 305994
Ave neighs/atom = 159.37187
Neighbor list builds = 20000
Dangerous builds = 20000

unfix		3
unfix		4
Total wall time: 0:18:11
