LAMMPS (27 Jun 2024)
KOKKOS mode with Kokkos version 4.3.1 is enabled (src/KOKKOS/kokkos.cpp:72)
  will use up to 1 GPU(s) per node
WARNING: When using a single thread, the Kokkos Serial backend (i.e. Makefile.kokkos_mpi_only) gives better performance than the OpenMP backend (src/KOKKOS/kokkos.cpp:202)
  using 1 OpenMP thread(s) per MPI task
Reading data file ...
  orthogonal box = (0 0 0) to (19.665067 19.665067 19.640133)
  1 by 1 by 1 MPI processor grid
  reading atoms ...
  1296 atoms
  read_data CPU = 0.008 seconds
ACE/AL version: 2023.11.25
Loading /pc2/users/a/acepdw01/work/phase_diagram/pot_dir/interim_potential_ladder_step_1.yaml
Total number of basis functions
	H: 23 (r=1) 664 (r>1)
	O: 23 (r=1) 664 (r>1)
Mapping LAMMPS atom type #1(H) -> ACE species type #0
Mapping LAMMPS atom type #2(O) -> ACE species type #1
Loading ASI /pc2/users/a/acepdw01/work/phase_diagram/pot_dir/interim_potential_ladder_step_1.asi
LINEAR ASI is loaded

CITE-CITE-CITE-CITE-CITE-CITE-CITE-CITE-CITE-CITE-CITE-CITE-CITE

Your simulation uses code contributions which should be cited:
- Type Label Framework: https://doi.org/10.1021/acs.jpcb.3c08419
The log file lists these citations in BibTeX format.

CITE-CITE-CITE-CITE-CITE-CITE-CITE-CITE-CITE-CITE-CITE-CITE-CITE

Switching to 'neigh_modify every 1 delay 0 check yes' setting during minimization
Neighbor list info ...
  update: every = 1 steps, delay = 0 steps, check = yes
  max neighbors/atom: 2000, page size: 100000
  master list distance cutoff = 6.5
  ghost atom cutoff = 6.5
  binsize = 6.5, bins = 4 4 4
  1 neighbor lists, perpetual/occasional/extra = 1 0 0
  (1) pair pace/extrapolation/kk, perpetual
      attributes: full, newton on, kokkos_device
      pair build: full/bin/kk/device
      stencil: full/bin/3d
      bin: kk/device
Setting up cg/kk style minimization ...
  Unit style    : metal
  Current step  : 0
WARNING: Fix with atom-based arrays not compatible with sending data in Kokkos communication, switching to classic exchange/border communication (src/KOKKOS/comm_kokkos.cpp:754)
WARNING: Fix with atom-based arrays not compatible with Kokkos sorting on device, switching to classic host sorting (src/KOKKOS/atom_kokkos.cpp:216)
Per MPI rank memory allocation (min/avg/max) = 1123 | 1123 | 1123 Mbytes
   Step         TotEng         PotEng         KinEng         Press           Temp          Volume        Density     c_max_pace_gamma
         0  -6250.4972     -6250.4972      0              21939.986      0              7595.1311      1.7015372      0.62320148   
        33  -6250.6452     -6250.6452      0              22350.057      0              7595.1311      1.7015372      0.62320148   
Loop time of 0.251051 on 1 procs for 33 steps with 1296 atoms

99.6% CPU use with 1 MPI tasks x 1 OpenMP threads

Minimization stats:
  Stopping criterion = force tolerance
  Energy initial, next-to-last, final = 
     -6250.49717465847  -6250.64523648355  -6250.64523648876
  Force two-norm initial, final = 0.82052426 0.0003006328
  Force max component initial, final = 0.040662504 1.1270972e-05
  Final line search alpha, max atom move = 1 1.1270972e-05
  Iterations, force evaluations = 33 66

MPI task timing breakdown:
Section |  min time  |  avg time  |  max time  |%varavg| %total
---------------------------------------------------------------
Pair    | 0.22466    | 0.22466    | 0.22466    |   0.0 | 89.49
Neigh   | 0          | 0          | 0          |   0.0 |  0.00
Comm    | 0.001743   | 0.001743   | 0.001743   |   0.0 |  0.69
Output  | 0          | 0          | 0          |   0.0 |  0.00
Modify  | 0.014569   | 0.014569   | 0.014569   |   0.0 |  5.80
Other   |            | 0.01008    |            |       |  4.01

Nlocal:           1296 ave        1296 max        1296 min
Histogram: 1 0 0 0 0 0 0 0 0 0
Nghost:           4514 ave        4514 max        4514 min
Histogram: 1 0 0 0 0 0 0 0 0 0
Neighs:              0 ave           0 max           0 min
Histogram: 1 0 0 0 0 0 0 0 0 0
FullNghs:       251424 ave      251424 max      251424 min
Histogram: 1 0 0 0 0 0 0 0 0 0

Total # of neighbors = 251424
Ave neighs/atom = 194
Neighbor list builds = 0
Dangerous builds = 0
Setting up Verlet run ...
  Unit style    : metal
  Current step  : 33
  Time step     : 0.0005
WARNING: Fix with atom-based arrays not compatible with Kokkos sorting on device, switching to classic host sorting (src/KOKKOS/atom_kokkos.cpp:216)
Per MPI rank memory allocation (min/avg/max) = 1123 | 1123 | 1123 Mbytes
   Step         TotEng         PotEng         KinEng         Press           Temp          Volume        Density     c_max_pace_gamma
        33  -6158.5797     -6250.6452      92.065538      35297.407      550            7595.1311      1.7015372      0.62320148   
       100  -6146.1658     -6184.7745      38.608703      39289.791      230.64859      7604.2486      1.699497       0.62320148   
       200  -6129.7141     -6189.7293      60.015222      39638.94       358.53124      7681.9977      1.6822965      0.62320148   
       300  -6117.8603     -6185.1112      67.250836      38072.38       401.75684      7825.0973      1.6515319      0.62320148   
       400  -6109.6336     -6179.3155      69.681905      36323.05       416.28006      7996.0485      1.616223       0.62320148   
       500  -6102.0163     -6176.1861      74.169805      28023.963      443.0908       8151.3687      1.5854267      0.62320148   
       600  -6096.0318     -6173.1546      77.122772      28947.682      460.73184      8269.5178      1.5627753      0.62320148   
       700  -6092.1557     -6169.4976      77.341926      28119.996      462.04106      8357.5877      1.5463072      0.62320148   
       800  -6087.8841     -6170.215       82.330864      30078.72       491.84501      8421.6022      1.5345534      0.62320148   
       900  -6080.8725     -6164.0453      83.17279       26167.711      496.87468      8468.0178      1.526142       0.62320148   
      1000  -6078.3404     -6161.2381      82.897644      24109.214      495.23095      8501.1971      1.5201857      0.80542218   
      1100  -6075.6996     -6162.635       86.935333      23644.348      519.35213      8523.8546      1.5161448      0.80542218   
      1200  -6077.9398     -6162.0327      84.092943      20486.527      502.37167      8535.9192      1.5140019      0.80542218   
      1300  -6071.2657     -6158.5664      87.300739      26412.402      521.53507      8538.5419      1.5135369      0.80542218   
      1400  -6068.6697     -6158.3879      89.718241      29309.631      535.97724      8538.8094      1.5134894      0.80542218   
      1500  -6067.1685     -6155.0791      87.910622      28580.69       525.17851      8543.5634      1.5126473      0.80542218   
      1600  -6064.7134     -6154.6903      89.976954      27658.634      537.52279      8554.2702      1.510754       0.80542218   
      1700  -6063.4006     -6152.1644      88.763835      25684.949      530.27561      8570.347       1.50792        0.80542218   
      1800  -6066.0145     -6156.587       90.572535      26034.239      541.08079      8590.0696      1.5044579      0.80542218   
      1900  -6066.193      -6152.5837      86.39078       22200.481      516.09897      8610.2352      1.5009344      0.80542218   
      2000  -6064.0501     -6153.3733      89.323134      23322.262      533.61686      8628.5984      1.4977401      0.77356932   
      2100  -6063.8896     -6155.0316      91.142042      37320.741      544.48303      8643.363       1.4951817      0.77356932   
      2200  -6063.0599     -6153.1519      90.092007      31557.169      538.21012      8656.0462      1.4929909      0.77356932   
      2300  -6060.6239     -6150.49        89.866173      27041.588      536.86098      8665.1977      1.4914141      0.77356932   
      2400  -6058.7721     -6150.0409      91.268801      28522.066      545.24029      8671.6141      1.4903105      0.77356932   
      2500  -6055.6537     -6148.1289      92.475229      27070.983      552.4475       8677.9263      1.4892265      0.77356932   
      2600  -6052.7401     -6145.9481      93.208022      27835.978      556.8252       8686.847       1.4876972      0.77356932   
      2700  -6050.9725     -6143.7907      92.818203      31924.46       554.49642      8701.9369      1.4851174      0.77356932   
      2800  -6047.234      -6145.6608      98.426739      28031.911      588.00185      8720.3319      1.4819846      0.77356932   
      2900  -6044.342      -6141.4696      97.127588      31881.251      580.24071      8741.1134      1.4784613      0.77356932   
      3000  -6045.4698     -6140.3474      94.877555      29994.184      566.799        8770.8341      1.4734514      0.66999177   
      3100  -6044.5004     -6142.1993      97.698873      25708.534      583.65357      8807.535       1.4673116      0.66999177   
      3200  -6047.7911     -6143.3623      95.571196      26151.064      570.94282      8843.9152      1.4612757      0.66999177   
      3300  -6047.2548     -6141.7956      94.540779      29087.571      564.7871       8875.4         1.4560919      0.66999177   
      3400  -6048.032      -6139.6526      91.620652      27802.712      547.34225      8901.4709      1.4518272      0.66999177   
      3500  -6047.2773     -6143.2512      95.973942      28701.058      573.34883      8918.829       1.4490016      0.66999177   
      3600  -6045.7038     -6139.3463      93.642451      26351.506      559.42048      8921.1386      1.4486265      0.66999177   
      3700  -6045.9486     -6140.4176      94.468953      29380.317      564.35801      8911.1569      1.4502492      0.66999177   
      3800  -6046.6721     -6139.0598      92.387707      28492.324      551.92464      8893.9423      1.4530562      0.66999177   
      3900  -6047.5194     -6142.3082      94.788822      26383.233      566.26891      8872.0574      1.4566405      0.66999177   
      4000  -6048.1657     -6143.9031      95.737346      34845.408      571.9354       8845.074       1.4610842      0.88660525   
      4100  -6045.4537     -6138.3142      92.860542      31286.923      554.74935      8820.374       1.4651757      0.88660525   
      4200  -6044.4264     -6141.1805      96.754115      28817.366      578.00958      8808.9566      1.4670748      0.88660525   
      4300  -6046.2005     -6140.9691      94.768554      35175.098      566.14783      8808.887       1.4670863      0.88660525   
      4400  -6046.0184     -6141.5374      95.519022      32521.781      570.63113      8820.3274      1.4651835      0.88660525   
      4500  -6045.7597     -6143.2649      97.505199      32030.755      582.49656      8840.8249      1.4617864      0.88660525   
      4600  -6046.1065     -6143.5275      97.420997      32274.713      581.99354      8868.3697      1.4572462      0.88660525   
      4700  -6046.2479     -6138.9636      92.715708      25674.048      553.88412      8901.037       1.451898       0.88660525   
      4800  -6047.2088     -6138.2819      91.073065      28856.613      544.07096      8937.3036      1.4460064      0.88660525   
      4900  -6050.2458     -6142.8486      92.602813      26212.991      553.20968      8973.8096      1.4401239      0.88660525   
      5000  -6049.5701     -6140.4468      90.876648      24850.618      542.89757      8999.5319      1.4360078      0.77074022   
      5100  -6045.3219     -6134.5324      89.210492      22162.99       532.94394      9014.2476      1.4336635      0.77074022   
      5200  -6043.1944     -6135.108       91.913556      30651.027      549.09205      9019.6244      1.4328089      0.77074022   
      5300  -6043.9869     -6138.406       94.419151      30606.993      564.06049      9019.2965      1.432861       0.77074022   
      5400  -6045.3144     -6137.9169      92.602552      28270.907      553.20813      9010.6156      1.4342414      0.77074022   
      5500  -6043.7623     -6135.5093      91.746993      28987.604      548.09701      8995.1533      1.4367068      0.77074022   
      5600  -6040.5241     -6136.4447      95.920606      31262.66       573.03019      8978.1023      1.4394354      0.77074022   
      5700  -6039.6292     -6133.7864      94.157196      31214.054      562.49558      8964.7914      1.4415726      0.77074022   
      5800  -6041.1074     -6133.4565      92.34917       29911.945      551.69442      8963.857       1.4417229      0.77074022   
      5900  -6041.7668     -6132.539       90.772185      29288.589      542.2735       8976.149       1.4397486      0.77074022   
      6000  -6043.8424     -6135.9557      92.113212      27776.564      550.2848       9004.1468      1.4352718      0.75954546   
      6100  -6045.9529     -6136.9051      90.952201      29660.698      543.34892      9043.0565      1.4290962      0.75954546   
      6200  -6043.5438     -6134.0893      90.545517      25907.347      540.91939      9089.5241      1.4217904      0.75954546   
      6300  -6041.5022     -6133.195       91.692765      29460.488      547.77305      9139.4865      1.4140179      0.75954546   
      6400  -6040.579      -6134.9438      94.364791      26679.29       563.73575      9186.0308      1.4068533      0.75954546   
      6500  -6044.1291     -6136.637       92.50792       23174.693      552.64279      9219.8502      1.4016928      0.75954546   
      6600  -6043.4505     -6134.2256      90.77508       24445.477      542.29079      9234.8173      1.3994211      0.75954546   
      6700  -6041.6994     -6134.9013      93.201885      26326.977      556.78854      9236.7854      1.3991229      0.75954546   
      6800  -6040.859      -6130.3536      89.494563      28152.736      534.64098      9223.8821      1.4010801      0.75954546   
      6900  -6040.2884     -6130.6732      90.384748      20898.016      539.95895      9200.3545      1.404663       0.75954546   
      7000  -6040.3339     -6131.5641      91.230235      25439.958      545.0099       9168.8088      1.4094958      0.65334757   
      7100  -6041.7649     -6130.772       89.007094      25617.579      531.72884      9138.6743      1.4141436      0.65334757   
      7200  -6041.2681     -6130.9175      89.649385      31648.603      535.56589      9120.1333      1.4170185      0.65334757   
      7300  -6040.2572     -6129.7783      89.521082      30139.346      534.7994       9121.5184      1.4168034      0.65334757   
      7400  -6036.4755     -6127.0111      90.535577      27829.51       540.86         9137.9726      1.4142522      0.65334757   
      7500  -6035.3044     -6126.518       91.213641      28921.303      544.91076      9174.5743      1.4086101      0.65334757   
      7600  -6034.7378     -6126.299       91.561191      30107.604      546.98703      9228.9161      1.4003159      0.65334757   
      7700  -6036.6878     -6129.7168      93.029026      30951.806      555.75588      9295.6792      1.3902586      0.65334757   
      7800  -6034.7788     -6126.2873      91.508435      29459.967      546.67186      9357.9081      1.3810135      0.65334757   
      7900  -6035.3142     -6125.4835      90.169294      25706.458      538.67182      9410.7068      1.3732654      0.65334757   
      8000  -6034.5486     -6125.5809      91.032361      23676.109      543.82779      9452.5213      1.3671906      0.75359412   
      8100  -6036.5687     -6126.0701      89.501463      26877.915      534.6822       9479.8712      1.3632461      0.75359412   
      8200  -6036.8831     -6127.2094      90.326296      21080.994      539.60976      9493.9481      1.3612248      0.75359412   
      8300  -6033.6559     -6125.2505      91.594557      30298.146      547.18635      9496.1972      1.3609024      0.75359412   
      8400  -6031.7734     -6124.3025      92.529103      32203.585      552.76934      9495.0916      1.3610609      0.75359412   
      8500  -6031.5257     -6119.0313      87.505576      26346.304      522.75876      9497.5487      1.3607088      0.75359412   
      8600  -6031.7598     -6122.9383      91.178556      27653.936      544.70116      9509.6826      1.3589726      0.75359412   
      8700  -6029.7489     -6120.7104      90.961478      27284.274      543.40434      9527.4881      1.3564328      0.75359412   
      8800  -6030.7449     -6120.7664      90.021531      30218.889      537.78909      9548.0179      1.3535163      0.75359412   
      8900  -6032.3277     -6122.0685      89.740784      29531.364      536.1119       9568.2945      1.350648       0.75359412   
      9000  -6036.5499     -6124.8855      88.335651      29240.407      527.71764      9584.7932      1.3483231      0.70112733   
      9100  -6033.0116     -6124.7374      91.725774      28618.935      547.97025      9599.1599      1.3463051      0.70112733   
      9200  -6031.5299     -6122.465       90.93512       27745.361      543.24687      9614.1111      1.3442114      0.70112733   
      9300  -6031.1789     -6122.7065      91.527585      29871.628      546.78627      9637.2071      1.3409899      0.70112733   
      9400  -6029.2175     -6119.5993      90.381772      29173.543      539.94117      9665.1962      1.3371066      0.70112733   
      9500  -6029.6145     -6119.9219      90.307415      27709.004      539.49696      9701.1626      1.3321494      0.70112733   
      9600  -6028.9263     -6118.359       89.432748      30625.121      534.2717       9740.1148      1.3268219      0.70112733   
      9700  -6031.1504     -6121.6818      90.53144       29793.562      540.83529      9772.8907      1.3223721      0.70112733   
      9800  -6030.0264     -6121.7052      91.678796      25392.099      547.6896       9793.0637      1.3196481      0.70112733   
      9900  -6030.9681     -6123.5808      92.612703      25796.165      553.26876      9806.5413      1.3178344      0.70112733   
     10000  -6026.8848     -6123.4631      96.578268      26197.564      576.95907      9812.7037      1.3170068      0.70035941   
     10100  -6029.0075     -6118.6776      89.670086      24861.328      535.68956      9811.6783      1.3171445      0.70035941   
     10200  -6028.6496     -6119.5187      90.869157      31661.176      542.85281      9807.4033      1.3177186      0.70035941   
     10300  -6028.1091     -6119.4285      91.319454      29445.379      545.54289      9800.6363      1.3186285      0.70035941   
     10400  -6029.0228     -6123.0072      93.98441       27624.912      561.46335      9794.4649      1.3194593      0.70035941   
     10500  -6026.0903     -6118.744       92.653649      26141.448      553.51337      9795.5303      1.3193158      0.70035941   
     10600  -6030.4221     -6124.5906      94.168555      26848.444      562.56343      9801.6445      1.3184928      0.70035941   
     10700  -6028.5922     -6122.9755      94.383299      29857.623      563.84632      9802.0614      1.3184367      0.70035941   
     10800  -6024.6045     -6120.2165      95.611968      27498.735      571.18639      9800.1515      1.3186937      0.70035941   
     10900  -6027.0209     -6118.7427      91.721806      32182.798      547.94654      9805.4754      1.3179777      0.70035941   
     11000  -6024.1929     -6121.7147      97.521816      28695.461      582.59583      9817.7813      1.3163257      0.76755157   
     11100  -6024.3935     -6117.9199      93.526343      26442.85       558.72685      9832.9671      1.3142928      0.76755157   
     11200  -6025.5865     -6120.6442      95.057667      27644.906      567.87499      9848.5298      1.3122159      0.76755157   
     11300  -6027.4501     -6120.4747      93.02457       26562.379      555.72926      9863.4912      1.3102255      0.76755157   
     11400  -6029.8253     -6119.1747      89.349378      27770.457      533.77364      9874.2035      1.3088041      0.76755157   
     11500  -6029.813      -6122.4046      92.59166       29883.673      553.14305      9878.3179      1.308259       0.76755157   
     11600  -6028.7192     -6122.5854      93.866132      24169.65       560.75676      9878.9015      1.3081817      0.76755157   
     11700  -6028.3483     -6121.081       92.73272       28438.16       553.98575      9877.5164      1.3083651      0.76755157   
     11800  -6029.8805     -6119.7931      89.912582      32214.518      537.13823      9876.0385      1.3085609      0.76755157   
     11900  -6031.479      -6121.3764      89.897368      24242.417      537.04734      9872.223       1.3090666      0.76755157   
     12000  -6028.8412     -6123.5104      94.669211      24529.309      565.55435      9861.2848      1.3105187      0.74973544   
     12100  -6029.5882     -6121.5059      91.917737      23710.069      549.11703      9846.3763      1.3125029      0.74973544   
     12200  -6028.7974     -6122.1864      93.389053      28831.181      557.90668      9831.8046      1.3144482      0.74973544   
     12300  -6029.3773     -6119.5624      90.185092      29219.839      538.7662       9819.8263      1.3160516      0.74973544   
     12400  -6026.7022     -6119.7258      93.023614      27311.856      555.72355      9809.2651      1.3174685      0.74973544   
     12500  -6024.7343     -6120.1518      95.417483      34051.088      570.02453      9802.7547      1.3183435      0.74973544   
     12600  -6026.1622     -6119.3221      93.159901      26803.883      556.53773      9803.5481      1.3182368      0.74973544   
     12700  -6026.8404     -6118.1077      91.267261      27335.468      545.23109      9810.4705      1.3173066      0.74973544   
     12800  -6028.024      -6122.7997      94.775734      27717.249      566.19073      9826.3205      1.3151818      0.74973544   
     12900  -6026.9979     -6122.8904      95.892531      29824.096      572.86248      9848.7588      1.3121854      0.74973544   
     13000  -6031.7679     -6124.0729      92.305012      26352.548      551.43062      9874.3882      1.3087796      0.87815834   
     13100  -6031.7321     -6120.8548      89.12274       26082.083      532.41971      9897.8457      1.3056779      0.87815834   
     13200  -6032.133      -6124.895       92.762034      26357.435      554.16087      9915.1014      1.3034055      0.87815834   
     13300  -6031.811      -6124.3712      92.560196      29467.813      552.95509      9923.453       1.3023086      0.87815834   
     13400  -6032.9946     -6123.6554      90.660858      30545.05       541.60843      9920.9966      1.302631       0.87815834   
     13500  -6034.43       -6120.6747      86.244667      23880.223      515.22609      9907.1286      1.3044544      0.87815834   
     13600  -6031.2986     -6123.0265      91.72791       28954.2        547.98301      9881.897       1.3077851      0.87815834   
     13700  -6032.7697     -6124.3435      91.573755      30287.857      547.06208      9848.6457      1.3122005      0.87815834   
     13800  -6034.5207     -6123.4491      88.928465      22521.342      531.25911      9808.6447      1.3175518      0.87815834   
     13900  -6031.2988     -6122.4192      91.120482      28566.341      544.35423      9773.3218      1.3223138      0.87815834   
     14000  -6030.881      -6119.056       88.175013      31063.014      526.75798      9746.48        1.3259554      0.81056423   
     14100  -6028.6624     -6117.3548      88.692415      29855.729      529.84894      9733.5533      1.3277164      0.81056423   
     14200  -6029.9388     -6121.6774      91.738644      29311.726      548.04713      9739.6746      1.3268819      0.81056423   
     14300  -6030.5848     -6122.0417      91.456954      26824.006      546.36431      9761.2602      1.3239477      0.81056423   
     14400  -6032.3062     -6123.2741      90.967862      27134.934      543.44248      9797.1085      1.3191033      0.81056423   
     14500  -6034.3507     -6122.6843      88.333583      28753.074      527.70528      9843.9309      1.312829       0.81056423   
     14600  -6033.3679     -6124.2565      90.888617      28030.666      542.96907      9892.7951      1.3063444      0.81056423   
     14700  -6030.9937     -6121.0507      90.057053      28840.313      538.0013       9929.8227      1.3014732      0.81056423   
     14800  -6029.4064     -6121.8387      92.432237      30803.326      552.19066      9950.4951      1.2987693      0.81056423   
     14900  -6027.5797     -6118.4324      90.852637      29153.583      542.75412      9959.7103      1.2975676      0.81056423   
     15000  -6025.4228     -6116.0024      90.579566      28766.207      541.1228       9957.2035      1.2978943      0.68949302   
     15100  -6026.6595     -6122.1228      95.463211      29770.653      570.29771      9947.9056      1.2991074      0.68949302   
     15200  -6027.0131     -6120.9562      93.943015      26910.744      561.21606      9936.8368      1.3005545      0.68949302   
     15300  -6028.5329     -6119.9021      91.369263      25017.27       545.84045      9929.6259      1.301499       0.68949302   
     15400  -6029.6094     -6121.9189      92.309512      24794.723      551.4575       9920.5047      1.3026956      0.68949302   
     15500  -6031.1432     -6122.3943      91.251056      31409.315      545.13428      9906.4541      1.3045433      0.68949302   
     15600  -6029.0932     -6121.2351      92.141921      28280.917      550.45631      9888.5037      1.3069114      0.68949302   
     15700  -6028.6219     -6121.047       92.42506       28747.856      552.14779      9869.3455      1.3094483      0.68949302   
     15800  -6026.444      -6117.8399      91.395868      28173.116      545.99939      9857.4702      1.3110258      0.68949302   
     15900  -6029.4592     -6120.5815      91.122331      30019.975      544.36527      9854.1749      1.3114642      0.68949302   
     16000  -6025.8853     -6120.5313      94.645958      27265.201      565.41544      9857.1788      1.3110646      0.97783227   
     16100  -6025.3256     -6117.122       91.796344      30063.342      548.39183      9866.3636      1.3098441      0.97783227   
     16200  -6025.0416     -6120.5586      95.516994      28424.247      570.61901      9881.7153      1.3078092      0.97783227   
     16300  -6028.1827     -6122.2185      94.035809      25710.617      561.77041      9893.5433      1.3062456      0.97783227   
     16400  -6032.5805     -6122.4323      89.851767      30047.465      536.77492      9901.0965      1.3052492      0.97783227   
     16500  -6036.2459     -6125.7149      89.468987      22530.695      534.48819      9904.6138      1.3047856      0.97783227   
     16600  -6032.5893     -6122.9039      90.314573      25922.179      539.53972      9903.9227      1.3048767      0.97783227   
     16700  -6029.9653     -6119.6451      89.679846      27665.352      535.74786      9904.9507      1.3047413      0.97783227   
     16800  -6028.4081     -6119.2826      90.874562      26083.32       542.8851       9909.0821      1.3041973      0.97783227   
     16900  -6029.0829     -6123.0987      94.015845      30587.635      561.65114      9915.4673      1.3033574      0.97783227   
     17000  -6031.3695     -6124.0663      92.696779      26807.837      553.77104      9922.1804      1.3024756      0.68821105   
     17100  -6033.084      -6122.9702      89.886197      26341.832      536.98061      9924.7087      1.3021438      0.68821105   
     17200  -6033.5503     -6124.886       91.335767      24513.435      545.64034      9918.7932      1.3029204      0.68821105   
     17300  -6034.1309     -6123.903       89.77214       29026.306      536.29923      9901.6298      1.3051789      0.68821105   
     17400  -6035.0965     -6122.0493      86.95282       26501.27       519.45659      9880.4511      1.3079765      0.68821105   
     17500  -6033.6519     -6123.8838      90.23188       25666.572      539.04571      9860.2067      1.310662       0.68821105   
     17600  -6030.4975     -6121.8992      91.401625      28172.05       546.03378      9842.9894      1.3129546      0.68821105   
     17700  -6031.6879     -6120.6743      88.986378      27958.616      531.60508      9832.7466      1.3143223      0.68821105   
     17800  -6030.688      -6123.4448      92.756739      25455.708      554.12923      9833.677       1.3141979      0.68821105   
     17900  -6032.7159     -6124.6964      91.980448      30228.355      549.49167      9842.6467      1.3130003      0.68821105   
     18000  -6030.3036     -6119.984       89.680418      30492.539      535.75128      9852.9112      1.3116324      0.74927487   
     18100  -6030.9281     -6123.3285      92.400399      29816.057      552.00046      9869.3943      1.3094418      0.74927487   
     18200  -6031.1413     -6119.9715      88.830164      28396.639      530.67186      9888.3456      1.3069323      0.74927487   
     18300  -6033.2442     -6122.4033      89.159132      26510.809      532.63712      9911.7184      1.3038504      0.74927487   
     18400  -6032.5599     -6122.3285      89.768645      31296.678      536.27835      9937.222       1.3005041      0.74927487   
     18500  -6029.6195     -6121.1106      91.491149      28567.341      546.5686       9957.1402      1.2979026      0.74927487   
     18600  -6028.9937     -6119.7266      90.732833      26644.33       542.03841      9969.0888      1.296347       0.74927487   
     18700  -6028.5007     -6119.9943      91.493632      25071.914      546.58343      9970.6593      1.2961428      0.74927487   
     18800  -6023.4223     -6118.8835      95.461118      26119.374      570.28521      9960.8439      1.29742        0.74927487   
     18900  -6024.2824     -6117.8579      93.575546      28501.52       559.02079      9943.7886      1.2996453      0.74927487   
     19000  -6024.4967     -6118.1885      93.691841      26828.212      559.71554      9929.9476      1.3014568      0.70259889   
     19100  -6024.6855     -6117.3361      92.650559      29004.079      553.49492      9915.7996      1.3033137      0.70259889   
     19200  -6026.2124     -6119.1377      92.925359      26543.386      555.13657      9899.9388      1.3054018      0.70259889   
     19300  -6025.5954     -6115.7778      90.182419      28015.673      538.75023      9885.9403      1.3072502      0.70259889   
     19400  -6025.8834     -6120.6293      94.745946      33378.498      566.01277      9875.2961      1.3086593      0.70259889   
     19500  -6024.7588     -6120.3764      95.617659      27167.632      571.22038      9869.4772      1.3094309      0.70259889   
     19600  -6027.8883     -6119.3874      91.499136      29640.501      546.61631      9864.5369      1.3100866      0.70259889   
     19700  -6025.9647     -6118.5456      92.580965      28775.128      553.07916      9859.8197      1.3107134      0.70259889   
     19800  -6027.9745     -6118.3281      90.353576      26211.879      539.77273      9857.8047      1.3109813      0.70259889   
     19900  -6027.0607     -6118.7706      91.709926      27848.835      547.87557      9858.9986      1.3108226      0.70259889   
     20000  -6026.0291     -6118.4371      92.407957      29841.704      552.04561      9862.499       1.3103573      0.71358387   
     20033  -6024.8249     -6117.7818      92.956853      31715.697      555.32472      9864.1498      1.310138       0.71358387   
Loop time of 84.3137 on 1 procs for 20000 steps with 1296 atoms

Performance: 10.247 ns/day, 2.342 hours/ns, 237.209 timesteps/s, 307.423 katom-step/s
99.8% CPU use with 1 MPI tasks x 1 OpenMP threads

MPI task timing breakdown:
Section |  min time  |  avg time  |  max time  |%varavg| %total
---------------------------------------------------------------
Pair    | 63.694     | 63.694     | 63.694     |   0.0 | 75.54
Neigh   | 0.87078    | 0.87078    | 0.87078    |   0.0 |  1.03
Comm    | 0.88379    | 0.88379    | 0.88379    |   0.0 |  1.05
Output  | 0.025876   | 0.025876   | 0.025876   |   0.0 |  0.03
Modify  | 18.378     | 18.378     | 18.378     |   0.0 | 21.80
Other   |            | 0.461      |            |       |  0.55

Nlocal:           1296 ave        1296 max        1296 min
Histogram: 1 0 0 0 0 0 0 0 0 0
Nghost:           4079 ave        4079 max        4079 min
Histogram: 1 0 0 0 0 0 0 0 0 0
Neighs:              0 ave           0 max           0 min
Histogram: 1 0 0 0 0 0 0 0 0 0
FullNghs:       196616 ave      196616 max      196616 min
Histogram: 1 0 0 0 0 0 0 0 0 0

Total # of neighbors = 196616
Ave neighs/atom = 151.70988
Neighbor list builds = 1999
Dangerous builds = 1996
Setting up Verlet run ...
  Unit style    : metal
  Current step  : 20033
  Time step     : 0.0005
WARNING: Fix with atom-based arrays not compatible with Kokkos sorting on device, switching to classic host sorting (src/KOKKOS/atom_kokkos.cpp:216)
Per MPI rank memory allocation (min/avg/max) = 1142 | 1142 | 1142 Mbytes
   Step         TotEng         PotEng         KinEng         Press           Temp          Volume        Density     c_max_pace_gamma
     20033  -6025.7162     -6117.7818      92.065538      31619.183      550            9864.1498      1.310138       0.71358387   
     20100  -6027.3381     -6117.9625      90.624376      24232.338      541.39049      9864.5835      1.3100804      0.71358387   
     20200  -6028.7797     -6123.9085      95.128771      26455.396      568.29977      9868.1095      1.3096123      0.71358387   
     20300  -6027.4715     -6118.7479      91.276483      29221.582      545.28618      9870.2727      1.3093253      0.71358387   
     20400  -6027.1712     -6119.6917      92.520547      29617.045      552.71823      9873.3226      1.3089209      0.71358387   
     20500  -6026.9661     -6120.2443      93.278132      30992.735      557.24404      9879.1681      1.3081464      0.71358387   
     20600  -6028.0197     -6121.6534      93.633681      26112.88       559.36809      9894.0269      1.3061818      0.71358387   
     20700  -6030.5541     -6119.5416      88.987451      30197.67       531.61149      9909.7291      1.3041121      0.71358387   
     20800  -6030.3163     -6120.6098      90.29346       27037.686      539.41359      9924.6526      1.3021512      0.71358387   
     20900  -6027.9914     -6119.4534      91.462055      28808.174      546.39479      9934.8319      1.300817       0.71358387   
     21000  -6028.6961     -6119.7833      91.087197      27100.491      544.15538      9941.6122      1.2999298      0.6862743    
     21100  -6028.9877     -6123.8059      94.818238      23556.513      566.44464      9942.7044      1.299787       0.6862743    
     21200  -6033.2906     -6122.7127      89.422101      28842.337      534.20809      9930.6812      1.3013607      0.6862743    
     21300  -6028.3346     -6121.7062      93.371622      27081.003      557.80255      9910.732       1.3039802      0.6862743    
     21400  -6027.4934     -6117.1891      89.695714      26963.922      535.84266      9890.6623      1.3066261      0.6862743    
     21500  -6027.1994     -6121.389       94.189565      28523.737      562.68894      9875.5627      1.3086239      0.6862743    
     21600  -6026.4429     -6121.1284      94.68551       31026.032      565.65172      9863.6339      1.3102066      0.6862743    
     21700  -6026.6135     -6118.2863      91.672851      31060.423      547.65408      9852.1267      1.3117369      0.6862743    
     21800  -6029.4821     -6120.8157      91.333662      26394.923      545.62777      9847.8043      1.3123126      0.6862743    
     21900  -6030.8448     -6121.5802      90.735438      27082.092      542.05397      9846.8735      1.3124367      0.6862743    
     22000  -6029.0067     -6119.9485      90.941723      29064.724      543.28632      9852.6242      1.3116706      0.76400962   
     22100  -6029.774      -6119.697       89.923002      28869.486      537.20048      9865.641       1.30994        0.76400962   
     22200  -6029.6599     -6119.8831      90.22313       28469.493      538.99345      9882.6918      1.3076799      0.76400962   
     22300  -6027.8477     -6118.5974      90.749704      27107.967      542.1392       9900.9392      1.3052699      0.76400962   
     22400  -6026.7955     -6116.7929      89.997475      21122.675      537.64538      9916.1911      1.3032623      0.76400962   
     22500  -6023.9051     -6117.0386      93.133534      30697.743      556.38021      9926.541       1.3019034      0.76400962   
     22600  -6021.3612     -6115.4311      94.069838      24610.202      561.97369      9936.7546      1.3005653      0.76400962   
     22700  -6020.3732     -6115.7412      95.368014      28384.889      569.72901      9952.4815      1.2985101      0.76400962   
     22800  -6017.3977     -6117.7235      100.32583      25317.989      599.347        9974.6292      1.2956269      0.76400962   
     22900  -6015.0704     -6111.6718      96.601384      26553.926      577.09716      9994.6548      1.2930309      0.76400962   
     23000  -6016.7779     -6114.769       97.991071      29722.601      585.39916      10015.193      1.2903794      0.73602679   
     23100  -6016.2947     -6110.7709      94.476206      25139.929      564.40134      10035.975      1.2877073      0.73602679   
     23200  -6019.4851     -6115.5533      96.068183      26887.382      573.91182      10049.363      1.2859918      0.73602679   
     23300  -6019.0259     -6115.3642      96.338285      26774.996      575.52541      10049.861      1.285928       0.73602679   
     23400  -6020.5231     -6113.7325      93.209462      22316.811      556.8338       10043.194      1.2867817      0.73602679   
     23500  -6020.3222     -6115.3653      95.043032      26511.218      567.78756      10021.941      1.2895104      0.73602679   
     23600  -6018.7358     -6116.3356      97.599748      29342.252      583.0614       9988.2338      1.2938622      0.73602679   
     23700  -6019.2515     -6115.2658      96.0143        32559.634      573.58992      9948.1362      1.2990773      0.73602679   
     23800  -6020.6621     -6114.7654      94.103285      30833.423      562.17351      9908.7998      1.3042344      0.73602679   
     23900  -6021.9427     -6119.0308      97.088125      26877.818      580.00496      9877.8643      1.308319       0.73602679   
     24000  -6021.6264     -6116.4169      94.790498      28871.325      566.27893      9856.6913      1.3111294      0.92199228   
     24100  -6019.8269     -6112.7745      92.947523      29246.241      555.26898      9846.649       1.3124666      0.92199228   
     24200  -6018.9186     -6113.4327      94.514162      28762.177      564.62809      9846.0608      1.312545       0.92199228   
     24300  -6020.5095     -6115.679       95.169459      28133.023      568.54284      9856.9281      1.3110979      0.92199228   
     24400  -6020.2617     -6114.9971      94.735426      30220.349      565.94992      9880.5384      1.3079649      0.92199228   
     24500  -6020.2795     -6115.3185      95.039031      30010.674      567.76366      9914.7489      1.3034519      0.92199228   
     24600  -6021.8786     -6118.1281      96.249516      26094.795      574.99511      9954.2364      1.2982812      0.92199228   
     24700  -6022.1831     -6118.2097      96.026629      25405.402      573.66358      9990.027       1.2936299      0.92199228   
     24800  -6023.5992     -6119.2052      95.60592       25920.573      571.15026      10014.836      1.2904254      0.92199228   
     24900  -6026.7576     -6120.0362      93.278567      26511.4        557.24664      10023.884      1.2892605      0.92199228   
     25000  -6026.1495     -6118.6809      92.531466      27403.727      552.78345      10014.741      1.2904376      0.75700345   
     25100  -6022.6832     -6117.397       94.713855      30090.306      565.82106      9994.1602      1.2930949      0.75700345   
     25200  -6020.9433     -6118.1151      97.171805      25909.926      580.50487      9970.5195      1.2961609      0.75700345   
     25300  -6022.4988     -6119.7883      97.28951       30541.313      581.20803      9948.1936      1.2990698      0.75700345   
     25400  -6024.0984     -6116.7416      92.643215      28464.762      553.45104      9928.4487      1.3016533      0.75700345   
     25500  -6023.3962     -6117.2785      93.882259      28289.85       560.8531       9911.8882      1.303828       0.75700345   
     25600  -6020.6125     -6116.2119      95.599444      29073.847      571.11157      9902.4819      1.3050666      0.75700345   
     25700  -6021.0398     -6114.056       93.016187      31552.69       555.67918      9905.6321      1.3046515      0.75700345   
     25800  -6023.6105     -6116.9713      93.360831      30403.08       557.73809      9926.533       1.3019045      0.75700345   
     25900  -6025.9539     -6119.7747      93.820822      28729.714      560.48608      9961.1552      1.2973794      0.75700345   
     26000  -6027.6954     -6118.8255      91.130092      29253.073      544.41164      10001.958      1.2920868      0.81839103   
     26100  -6029.7317     -6121.4748      91.743127      24534.798      548.07391      10038.44       1.2873911      0.81839103   
     26200  -6027.2747     -6119.6315      92.356823      25933.008      551.74014      10059.155      1.2847399      0.81839103   
     26300  -6025.4101     -6121.0159      95.605796      25283.099      571.14952      10061.135      1.2844871      0.81839103   
     26400  -6024.4569     -6116.9083      92.451391      26661.271      552.30509      10043.255      1.2867739      0.81839103   
     26500  -6027.2114     -6119.6487      92.437312      24006.427      552.22098      10018.997      1.2898893      0.81839103   
     26600  -6027.0989     -6119.0361      91.937239      26767.201      549.23354      9988.7972      1.2937892      0.81839103   
     26700  -6025.3021     -6119.2622      93.960108      33676.025      561.31817      9956.7481      1.2979537      0.81839103   
     26800  -6025.6961     -6117.5855      91.889437      27484.672      548.94797      9931.2548      1.3012855      0.81839103   
     26900  -6025.1737     -6114.2121      89.038377      32431.97       531.91572      9911.7151      1.3038508      0.81839103   
     27000  -6026.1015     -6120.4847      94.383244      30697.361      563.84598      9899.0894      1.3055138      0.7075509    
     27100  -6028.7473     -6121.0782      92.330821      27810.865      551.5848       9893.3006      1.3062777      0.7075509    
     27200  -6030.3673     -6120.4393      90.072067      28620.655      538.09099      9899.4386      1.3054678      0.7075509    
     27300  -6030.6866     -6121.6684      90.981813      28818.468      543.52582      9913.0584      1.3036741      0.7075509    
     27400  -6026.8008     -6121.726       94.925178      29692.096      567.0835       9930.3049      1.30141        0.7075509    
     27500  -6026.4162     -6120.3698      93.953551      29505.724      561.279        9952.5151      1.2985057      0.7075509    
     27600  -6025.4467     -6117.9698      92.523074      27675.127      552.73332      9980.4133      1.294876       0.7075509    
     27700  -6027.2568     -6122.5928      95.335957      26662.942      569.5375       10011.123      1.2909039      0.7075509    
     27800  -6025.6531     -6116.5182      90.865184      25125.176      542.82908      10035          1.2878324      0.7075509    
     27900  -6026.7512     -6119.4334      92.68216       26143.422      553.6837       10043.776      1.2867071      0.7075509    
     28000  -6025.7729     -6116.935       91.162122      27326.367      544.60299      10038.672      1.2873613      0.8316893    
     28100  -6028.051      -6119.5275      91.47654       26742.364      546.48132      10020.026      1.2897569      0.8316893    
     28200  -6028.1566     -6118.1793      90.022692      28564.171      537.79602      9986.288       1.2941143      0.8316893    
     28300  -6025.4832     -6118.0787      92.595459      27641.509      553.16575      9941.4786      1.2999473      0.8316893    
     28400  -6024.2012     -6115.2283      91.027016      33475.184      543.79586      9892.0774      1.3064392      0.8316893    
     28500  -6024.5224     -6118.3248      93.802442      29671.57       560.37627      9845.9667      1.3125575      0.8316893    
     28600  -6026.4023     -6121.4015      94.999234      26373.445      567.52591      9809.025       1.3175008      0.8316893    
     28700  -6025.0112     -6119.1263      94.115084      30799.669      562.24399      9779.9126      1.3214226      0.8316893    
     28800  -6026.8643     -6118.8652      92.000865      31448.666      549.61364      9765.615       1.3233573      0.8316893    
     28900  -6028.2682     -6119.2919      91.023709      33068.119      543.7761       9771.0485      1.3226214      0.8316893    
     29000  -6033.078      -6121.0962      88.018268      27702.267      525.82159      9796.7134      1.3191565      0.71539535   
     29100  -6030.4676     -6121.0636      90.596055      29956.268      541.2213       9831.7605      1.3144541      0.71539535   
     29200  -6030.0066     -6119.9276      89.92092       28756.259      537.18804      9874.5661      1.308756       0.71539535   
     29300  -6030.5032     -6121.4371      90.933891      28878.871      543.23953      9928.4657      1.3016511      0.71539535   
     29400  -6028.9455     -6117.8364      88.890924      27633          531.03484      9983.419       1.2944862      0.71539535   
     29500  -6029.7126     -6121.3612      91.648548      27882.239      547.5089       10033.323      1.2880477      0.71539535   
     29600  -6028.9254     -6123.6456      94.720196      25425.135      565.85894      10064.926      1.2840033      0.71539535   
     29700  -6030.1828     -6122.4271      92.244336      27150.579      551.06814      10074.456      1.2827887      0.71539535   
     29800  -6029.3889     -6121.8508      92.46185       26692.788      552.36757      10058.861      1.2847774      0.71539535   
     29900  -6029.9594     -6122.6468      92.687429      24422.231      553.71518      10017.679      1.290059       0.71539535   
     30000  -6024.9428     -6118.8296      93.886727      24843.383      560.87979      9958.8067      1.2976854      0.75709442   
     30100  -6025.7036     -6117.9674      92.263702      29816.883      551.18383      9900.0108      1.3053923      0.75709442   
     30200  -6025.5862     -6118.3937      92.807472      30925.285      554.43232      9848.4897      1.3122213      0.75709442   
     30300  -6024.6446     -6119.4804      94.835776      31054.633      566.54941      9809.0069      1.3175032      0.75709442   
     30400  -6026.7273     -6121.1634      94.436121      28881.306      564.16187      9789.8287      1.3200842      0.75709442   
     30500  -6024.7946     -6118.8193      94.024646      29295.424      561.70372      9795.0572      1.3193795      0.75709442   
     30600  -6029.5656     -6120.3467      90.781108      28711.904      542.32681      9820.4849      1.3159633      0.75709442   
     30700  -6028.4946     -6120.732       92.237344      23551.807      551.02637      9856.562       1.3111466      0.75709442   
     30800  -6024.5639     -6115.371       90.807147      32204.876      542.48236      9895.3416      1.3060083      0.75709442   
     30900  -6027.8748     -6121.1866      93.311858      26333.152      557.44552      9934.3463      1.3008806      0.75709442   
     31000  -6024.6312     -6118.6818      94.050601      26455.748      561.85878      9967.8302      1.2965106      0.74257622   
     31100  -6024.5843     -6119.4032      94.81885       25470          566.4483       9998.8975      1.2924823      0.74257622   
     31200  -6026.2088     -6121.6404      95.431575      28708.252      570.10872      10024.867      1.2891341      0.74257622   
     31300  -6027.8267     -6117.0074      89.180731      28452.661      532.76614      10035.098      1.2878198      0.74257622   
     31400  -6029.2591     -6119.0628      89.803647      21861.498      536.48745      10027.723      1.288767       0.74257622   
     31500  -6028.6073     -6121.0668      92.459459      24341.594      552.35328      9997.2263      1.2926983      0.74257622   
     31600  -6026.8012     -6119.6761      92.874888      25528.455      554.83506      9948.8453      1.2989847      0.74257622   
     31700  -6025.7392     -6119.342       93.602735      25940.809      559.18322      9894.984       1.3060555      0.74257622   
     31800  -6026.8544     -6119.3066      92.452189      25323.6        552.30985      9849.5089      1.3120855      0.74257622   
     31900  -6028.5102     -6118.5985      90.088312      27901.018      538.18804      9814.218       1.3168036      0.74257622   
     32000  -6025.8182     -6118.4025      92.584337      32312.444      553.09931      9797.3803      1.3190667      0.71125739   
     32100  -6027.1075     -6120.1221      93.014579      30541.646      555.66958      9803.5685      1.3182341      0.71125739   
     32200  -6027.375      -6119.3995      92.024524      27016.394      549.75498      9828.4016      1.3149033      0.71125739   
     32300  -6028.5485     -6122.5876      94.039027      27151.162      561.78963      9866.8975      1.3097732      0.71125739   
     32400  -6027.385      -6122.1568      94.771771      27575.637      566.16705      9906.559       1.3045294      0.71125739   
     32500  -6026.4234     -6119.2277      92.804269      24758.271      554.41318      9942.1337      1.2998616      0.71125739   
     32600  -6028.5353     -6121.7473      93.212048      28123.078      556.84926      9974.1607      1.2956878      0.71125739   
     32700  -6028.4931     -6118.1326      89.639452      26553.755      535.50655      10001.254      1.2921777      0.71125739   
     32800  -6028.8642     -6118.7138      89.849644      26029.548      536.76223      10021.873      1.2895192      0.71125739   
     32900  -6027.0733     -6120.7286      93.655281      28386.839      559.49713      10033.202      1.2880631      0.71125739   
     33000  -6030.7144     -6119.1705      88.456119      23575.874      528.43731      10030.725      1.2883812      0.75506337   
     33100  -6029.5196     -6119.9581      90.438453      24085.465      540.27979      10008.622      1.2912265      0.75506337   
     33200  -6028.8754     -6120.3009      91.425488      27764.874      546.17633      9971.4862      1.2960353      0.75506337   
     33300  -6027.6375     -6120.6708      93.033311      28834.591      555.78148      9928.3966      1.3016601      0.75506337   
     33400  -6028.9715     -6120.6456      91.674053      25911.5        547.66127      9885.8417      1.3072633      0.75506337   
     33500  -6030.2878     -6120.3158      90.02808       27544.474      537.82821      9849.0227      1.3121503      0.75506337   
     33600  -6027.7729     -6120.2897      92.516869      32679.078      552.69625      9820.1965      1.316002       0.75506337   
     33700  -6029.2925     -6119.4089      90.11638       31207.256      538.35572      9801.7995      1.318472       0.75506337   
     33800  -6031.8818     -6124.485       92.60322       31532.977      553.21211      9798.7982      1.3188758      0.75506337   
     33900  -6030.1342     -6123.1097      92.975514      29859.799      555.4362       9805.6951      1.3179482      0.75506337   
     34000  -6030.4951     -6121.8912      91.3961        27179.681      546.00077      9822.3364      1.3157153      1.0156241    
     34100  -6029.7794     -6124.658       94.878608      29151.948      566.80529      9851.4196      1.311831       1.0156241    
     34200  -6031.8349     -6123.5149      91.680029      26728.492      547.69696      9889.3648      1.3067976      1.0156241    
     34300  -6031.7762     -6121.5243      89.748023      26307.483      536.15515      9930.0368      1.3014451      1.0156241    
     34400  -6033.5365     -6125.3076      91.771083      24377.072      548.24092      9967.295       1.2965803      1.0156241    
     34500  -6034.8017     -6122.7565      87.954822      26359.982      525.44256      9993.0007      1.293245       1.0156241    
     34600  -6033.7128     -6124.4604      90.747643      29870.599      542.12689      10004.915      1.2917049      1.0156241    
     34700  -6030.6371     -6122.3039      91.666801      25165.931      547.61794      10002.156      1.2920612      1.0156241    
     34800  -6028.6934     -6120.9017      92.208308      27306.375      550.8529       9987.7326      1.2939271      1.0156241    
     34900  -6026.2505     -6120.6021      94.351652      26833.032      563.65725      9972.084       1.2959576      1.0156241    
     35000  -6024.1799     -6117.4562      93.276283      29665.765      557.233        9962.9058      1.2971515      0.86918555   
     35100  -6025.6963     -6119.3302      93.633895      27315.772      559.36937      9959.1364      1.2976424      0.86918555   
     35200  -6026.0167     -6120.0816      94.064911      28850.275      561.94426      9957.2897      1.2978831      0.86918555   
     35300  -6027.1627     -6120.0249      92.862208      30495.212      554.75931      9952.856       1.2984613      0.86918555   
     35400  -6028.2903     -6120.777       92.486671      30071.968      552.51585      9947.7741      1.2991246      0.86918555   
     35500  -6029.7177     -6119.4421      89.724438      31395.001      536.01426      9943.7284      1.2996532      0.86918555   
     35600  -6027.3308     -6119.4049      92.074072      25405.554      550.05098      9944.1449      1.2995987      0.86918555   
     35700  -6027.4423     -6119.9699      92.527545      28502.846      552.76003      9951.1879      1.2986789      0.86918555   
     35800  -6025.8092     -6117.6461      91.836906      30249.5        548.63415      9958.3693      1.2977424      0.86918555   
     35900  -6029.413      -6119.6339      90.220924      29478.073      538.98026      9963.5014      1.2970739      0.86918555   
     36000  -6025.5899     -6116.0616      90.4717        29340.615      540.4784       9965.0537      1.2968719      0.75201228   
     36100  -6024.9984     -6117.3139      92.315517      24900.562      551.49337      9964.2599      1.2969752      0.75201228   
     36200  -6024.0493     -6117.3091      93.259879      31150.248      557.135        9962.303       1.29723        0.75201228   
     36300  -6026.0453     -6117.4115      91.366163      26193.831      545.82193      9959.7167      1.2975668      0.75201228   
     36400  -6029.709      -6118.7075      88.998463      28331.671      531.67728      9955.3134      1.2981407      0.75201228   
     36500  -6033.3049     -6123.2543      89.949363      26794.383      537.35796      9945.8639      1.2993741      0.75201228   
     36600  -6030.3019     -6123.5398      93.237878      29649.154      557.00357      9930.1941      1.3014245      0.75201228   
     36700  -6027.4594     -6115.7182      88.258851      31191.816      527.25883      9907.1716      1.3044488      0.75201228   
     36800  -6025.3351     -6119.0287      93.693564      29238.349      559.72583      9885.1203      1.3073587      0.75201228   
     36900  -6025.4958     -6118.5979      93.102068      28978.139      556.19223      9868.3666      1.3095782      0.75201228   
     37000  -6027.2829     -6119.8185      92.535534      29172.978      552.80776      9853.7292      1.3115235      0.68025145   
     37100  -6029.4245     -6120.7626      91.338115      31131.088      545.65437      9844.7081      1.3127253      0.68025145   
     37200  -6030.3067     -6119.1347      88.828048      26315.072      530.65922      9847.0037      1.3124193      0.68025145   
     37300  -6031.3501     -6119.0918      87.741612      30138.336      524.16884      9861.3603      1.3105086      0.68025145   
     37400  -6033.5405     -6123.2213      89.680814      23910.379      535.75364      9878.3642      1.3082528      0.68025145   
     37500  -6033.1655     -6123.9578      90.792251      30253.35       542.39337      9891.5608      1.3065075      0.68025145   
     37600  -6030.6109     -6123.2108      92.599938      29211.844      553.19251      9903.113       1.3049834      0.68025145   
     37700  -6032.407      -6120.5306      88.123626      26210.242      526.45099      9912.0245      1.3038101      0.68025145   
     37800  -6031.1703     -6120.7599      89.589522      26439.534      535.20826      9919.5849      1.3028164      0.68025145   
     37900  -6032.527      -6122.9068      90.379849      25251.568      539.92968      9927.9657      1.3017166      0.68025145   
     38000  -6030.0451     -6118.7563      88.711232      28074.335      529.96136      9937.7986      1.3004286      0.75495018   
     38100  -6030.3354     -6121.9839      91.648456      29669.976      547.50835      9945.5748      1.2994119      0.75495018   
     38200  -6030.5015     -6121.8229      91.321419      27970.476      545.55463      9950.1583      1.2988133      0.75495018   
     38300  -6032.3692     -6120.9188      88.549627      27539.283      528.99593      9952.8599      1.2984608      0.75495018   
     38400  -6031.2292     -6122.1001      90.870862      27308.286      542.863        9957.6659      1.2978341      0.75495018   
     38500  -6027.9309     -6121.2037      93.272797      28992.996      557.21217      9959.2453      1.2976282      0.75495018   
     38600  -6026.9125     -6119.4583      92.545742      25981.438      552.86874      9954.0545      1.2983049      0.75495018   
     38700  -6025.8416     -6117.4861      91.644449      20780.845      547.48441      9939.8503      1.3001602      0.75495018   
     38800  -6020.884      -6117.1953      96.311334      28144.086      575.36441      9916.491       1.3032229      0.75495018   
     38900  -6022.1697     -6116.8498      94.680168      32049.213      565.61981      9887.1679      1.3070879      0.75495018   
     39000  -6023.5378     -6117.6176      94.079792      27904.073      562.03316      9863.8018      1.3101843      0.79461588   
     39100  -6024.0699     -6119.1875      95.117665      28407.425      568.23342      9850.9725      1.3118906      0.79461588   
     39200  -6026.1912     -6118.7304      92.539206      25252.212      552.8297       9847.1499      1.3123998      0.79461588   
     39300  -6026.6831     -6120.1249      93.441781      32055.396      558.22168      9857.3893      1.3110366      0.79461588   
     39400  -6027.3606     -6120.1463      92.785675      27935.848      554.3021       9879.8356      1.308058       0.79461588   
     39500  -6026.1347     -6122.5571      96.422435      30080.374      576.02812      9916.9447      1.3031632      0.79461588   
     39600  -6029.869      -6121.2888      91.419804      32929.648      546.14238      9961.098       1.2973869      0.79461588   
     39700  -6028.3511     -6120.3939      92.042848      24574.16       549.86445      9998.7288      1.2925041      0.79461588   
     39800  -6030.7633     -6122.9173      92.153933      21845.895      550.52807      10017.781      1.290046       0.79461588   
     39900  -6030.2363     -6122.0545      91.818267      25449.961      548.5228       10016.661      1.2901902      0.79461588   
     40000  -6028.8526     -6122.9303      94.077735      26857.556      562.02087      10001.664      1.2921248      0.69036848   
     40100  -6027.8615     -6120.4229      92.561411      26141.421      552.96234      9977.7168      1.295226       0.69036848   
     40200  -6025.164      -6119.1795      94.015467      31302.767      561.64888      9954.701       1.2982206      0.69036848   
     40300  -6025.4456     -6118.7295      93.283836      30019.103      557.27812      9942.0129      1.2998774      0.69036848   
     40400  -6025.5164     -6118.6117      93.095336      32974.141      556.15202      9938.8022      1.3002973      0.69036848   
     40500  -6028.3466     -6122.518       94.171354      29261.559      562.58015      9941.3675      1.2999618      0.69036848   
     40600  -6027.3733     -6119.6555      92.282134      27708.37       551.29394      9943.4112      1.2996946      0.69036848   
     40700  -6024.8565     -6116.212       91.35551       29802.735      545.75829      9946.4947      1.2992917      0.69036848   
     40800  -6024.6637     -6120.2057      95.541943      30159.684      570.76806      9949.2411      1.298933       0.69036848   
     40900  -6027.1225     -6123.4928      96.370363      23492.863      575.71704      9947.3889      1.2991749      0.69036848   
     41000  -6027.5255     -6118.1299      90.604414      24206.207      541.27124      9937.5095      1.3004665      0.70299226   
     41100  -6026.0432     -6119.7739      93.730695      29053.693      559.94766      9924.5009      1.3021711      0.70299226   
     41200  -6025.0414     -6117.8838      92.842336      26656.105      554.6406       9913.5197      1.3036135      0.70299226   
     41300  -6022.743      -6118.6911      95.948009      29797.521      573.1939       9909.2829      1.3041708      0.70299226   
     41400  -6024.4886     -6117.88        93.391329      24516.758      557.92028      9914.2219      1.3035212      0.70299226   
     41500  -6027.5871     -6120.1981      92.611007      28756.227      553.25863      9923.9439      1.3022441      0.70299226   
     41600  -6029.1521     -6119.8989      90.7468        24879.698      542.12185      9932.524       1.3011192      0.70299226   
     41700  -6028.8447     -6122.5144      93.669706      30527.989      559.58331      9941.4672      1.2999487      0.70299226   
     41800  -6027.8597     -6120.1644      92.304726      28426.275      551.42891      9945.3875      1.2994363      0.70299226   
     41900  -6025.0341     -6117.6778      92.643725      26103.116      553.45409      9942.4104      1.2998254      0.70299226   
     42000  -6023.9811     -6118.1653      94.18427       25702.159      562.65731      9938.3869      1.3003517      0.71967642   
     42100  -6023.6128     -6117.6187      94.005907      30357.765      561.59177      9932.9018      1.3010697      0.71967642   
     42200  -6025.736      -6116.9143      91.178239      31224.246      544.69927      9929.1449      1.301562       0.71967642   
     42300  -6025.2444     -6120.337       95.092623      29783.535      568.08382      9924.6201      1.3021554      0.71967642   
     42400  -6023.0437     -6118.9449      95.901218      30297.889      572.91437      9921.1222      1.3026145      0.71967642   
     42500  -6024.5333     -6120.1954      95.662082      31851.169      571.48577      9923.4179      1.3023132      0.71967642   
     42600  -6026.6743     -6119.3372      92.662925      24220.46       553.56879      9930.9126      1.3013303      0.71967642   
     42700  -6029.9152     -6121.2676      91.352391      36043.242      545.73965      9936.0967      1.3006514      0.71967642   
     42800  -6031.2628     -6124.6102      93.347458      31405.574      557.6582       9938.0129      1.3004006      0.71967642   
     42900  -6031.1531     -6124.1241      92.970965      25779.134      555.40903      9934.4733      1.3008639      0.71967642   
     43000  -6026.8032     -6120.3116      93.508457      28532.245      558.62         9927.8911      1.3017264      0.88541022   
     43100  -6025.4039     -6116.9369      91.532961      30270.085      546.81838      9925.822       1.3019978      0.88541022   
     43200  -6024.0983     -6120.4284      96.330178      27985.581      575.47698      9931.3467      1.3012735      0.88541022   
     43300  -6026.5418     -6119.7939      93.25213       26394.229      557.0887       9941.0469      1.3000037      0.88541022   
     43400  -6026.8275     -6120.4645      93.637018      29552.788      559.38803      9949.5636      1.2988909      0.88541022   
     43500  -6023.1945     -6116.439       93.244419      25326.221      557.04264      9952.1442      1.2985541      0.88541022   
     43600  -6023.8875     -6117.8868      93.999284      28663.937      561.55221      9951.4212      1.2986485      0.88541022   
     43700  -6023.0785     -6118.639       95.560441      26961.591      570.87857      9948.9871      1.2989662      0.88541022   
     43800  -6022.2649     -6119.1728      96.907863      32304.922      578.92807      9944.3152      1.2995765      0.88541022   
     43900  -6024.5999     -6119.7871      95.187202      27617.269      568.64884      9939.6763      1.300183       0.88541022   
     44000  -6027.9542     -6120.5616      92.607415      27034.721      553.23718      9935.0066      1.3007941      0.73680431   
     44100  -6027.2197     -6119.9735      92.753837      25148.755      554.1119       9930.6815      1.3013606      0.73680431   
     44200  -6026.9785     -6116.7454      89.766945      25792.245      536.26819      9925.0275      1.302102       0.73680431   
     44300  -6027.14       -6118.5489      91.408929      26831.492      546.07742      9915.8274      1.3033101      0.73680431   
     44400  -6029.9927     -6119.4134      89.420686      29045.271      534.19964      9902.8753      1.3050147      0.73680431   
     44500  -6026.0139     -6120.177       94.163137      30178.979      562.53107      9887.9726      1.3069816      0.73680431   
     44600  -6030.2288     -6121.2644      91.035642      26367.954      543.84739      9870.1795      1.3093377      0.73680431   
     44700  -6030.1996     -6123.1228      92.923248      30459.184      555.12396      9853.6251      1.3115374      0.73680431   
     44800  -6029.5919     -6122.7739      93.182046      31195.769      556.67002      9838.7235      1.3135238      0.73680431   
     44900  -6026.9122     -6117.9766      91.064378      28008.565      544.01906      9827.7211      1.3149944      0.73680431   
     45000  -6029.0128     -6120.5382      91.525392      24685.057      546.77316      9819.4802      1.316098       0.77490373   
     45100  -6029.8145     -6118.7438      88.929377      28185.181      531.26456      9815.2917      1.3166596      0.77490373   
     45200  -6028.6848     -6120.4862      91.801421      27019.825      548.42216      9819.1682      1.3161398      0.77490373   
     45300  -6027.6156     -6121.4448      93.829207      25860.387      560.53616      9834.8693      1.3140386      0.77490373   
     45400  -6026.1112     -6118.0912      91.98004       30270.382      549.48923      9862.2165      1.3103949      0.77490373   
     45500  -6027.2218     -6122.3005      95.078743      29301.674      568.0009       9904.3289      1.3048232      0.77490373   
     45600  -6028.2221     -6120.7447      92.522628      29103.261      552.73066      9953.7267      1.2983477      0.77490373   
     45700  -6029.4447     -6117.5688      88.124018      29025.641      526.45334      10003.546      1.2918817      0.77490373   
     45800  -6030.6338     -6118.7953      88.161501      23790.168      526.67726      10046.266      1.2863882      0.77490373   
     45900  -6032.1832     -6127.1876      95.00441       24729.139      567.55683      10073.826      1.2828689      0.77490373   
     46000  -6033.5524     -6123.0804      89.52795       24866.62       534.84043      10074.799      1.2827449      0.77707872   
     46100  -6035.0012     -6123.2038      88.202592      27453.594      526.92274      10048.012      1.2861647      0.77707872   
     46200  -6033.2374     -6122.7597      89.522311      28555.581      534.80675      9999.3955      1.2924179      0.77707872   
     46300  -6030.5123     -6121.0504      90.538163      32819.838      540.87545      9944.553       1.2995454      0.77707872   
     46400  -6027.5931     -6120.5265      92.933403      27823.41       555.18463      9897.9391      1.3056655      0.77707872   
     46500  -6028.6377     -6118.7478      90.110141      25705.34       538.31845      9867.4626      1.3096982      0.77707872   
     46600  -6024.5804     -6115.9961      91.415758      29297.162      546.11821      9853.9109      1.3114994      0.77707872   
     46700  -6023.4947     -6114.9131      91.418409      27690.092      546.13405      9856.8731      1.3111052      0.77707872   
     46800  -6023.6883     -6117.4576      93.769293      33708.497      560.17824      9878.0704      1.3082917      0.77707872   
     46900  -6025.7979     -6119.2332      93.435312      27081.967      558.18304      9912.0042      1.3038128      0.77707872   
     47000  -6025.6235     -6120.2525      94.629077      29408.12       565.31459      9950.9086      1.2987154      0.75455645   
     47100  -6029.1606     -6120.1692      91.008608      24720.661      543.68589      9985.4853      1.2942183      0.75455645   
     47200  -6030.3745     -6121.4004      91.025899      26134.655      543.78919      10004.922      1.291704       0.75455645   
     47300  -6030.0034     -6122.6081      92.604744      23364.499      553.22122      10005.97       1.2915687      0.75455645   
     47400  -6027.0731     -6119.8749      92.801878      28712.025      554.3989       9992.0074      1.2933735      0.75455645   
     47500  -6024.6814     -6117.1116      92.430167      27277.202      552.17829      9970.3742      1.2961798      0.75455645   
     47600  -6020.8876     -6118.2075      97.319941      25561.221      581.38983      9948.4142      1.299041       0.75455645   
     47700  -6022.3747     -6117.1994      94.82474       31312.481      566.48349      9928.5267      1.3016431      0.75455645   
     47800  -6025.3922     -6117.1261      91.733917      29984.137      548.01889      9916.1953      1.3032617      0.75455645   
     47900  -6025.4461     -6116.8713      91.425232      26960.671      546.17481      9913.1553      1.3036614      0.75455645   
     48000  -6025.7599     -6119.1462      93.386366      28427.295      557.89063      9918.167       1.3030027      0.67496078   
     48100  -6025.2574     -6117.5074      92.249948      25042.761      551.10167      9928.1503      1.3016924      0.67496078   
     48200  -6024.1461     -6117.7539      93.607806      31198.317      559.21352      9941.7465      1.2999122      0.67496078   
     48300  -6027.2806     -6121.8468      94.566199      29075.161      564.93896      9964.417       1.2969547      0.67496078   
     48400  -6028.1942     -6118.6069      90.412699      27320.648      540.12593      9989.6655      1.2936767      0.67496078   
     48500  -6029.2718     -6121.5218      92.249988      29602.586      551.10191      10011.324      1.290878       0.67496078   
     48600  -6031.1863     -6123.9748      92.788439      27493.437      554.31861      10023.531      1.289306       0.67496078   
     48700  -6028.0584     -6120.3591      92.300696      28088.884      551.40483      10027.6        1.2887828      0.67496078   
     48800  -6028.2936     -6119.2591      90.965464      26936.442      543.42815      10028.476      1.2886702      0.67496078   
     48900  -6028.4176     -6119.394       90.976339      28372.964      543.49312      10024.388      1.2891957      0.67496078   
     49000  -6028.683      -6122.0584      93.375384      22689.088      557.82502      10015.305      1.2903649      0.88735621   
     49100  -6029.5414     -6121.853       92.311633      30490.62       551.47017      9994.7272      1.2930216      0.88735621   
     49200  -6025.8541     -6118.4309      92.576755      26092.44       553.05401      9963.9296      1.2970182      0.88735621   
     49300  -6028.8658     -6122.0483      93.1825        27737.126      556.67274      9929.7527      1.3014823      0.88735621   
     49400  -6025.2868     -6117.677       92.390149      28014.758      551.93923      9897.6138      1.3057084      0.88735621   
     49500  -6027.4066     -6120.6005      93.193936      32642.381      556.74105      9875.1785      1.3086749      0.88735621   
     49600  -6025.7892     -6123.2685      97.479281      30956.462      582.34173      9866.4214      1.3098364      0.88735621   
     49700  -6027.1473     -6117.6875      90.540168      30039.742      540.88743      9874.522       1.3087619      0.88735621   
     49800  -6028.8559     -6119.0698      90.21392       28457.708      538.93842      9898.4669      1.3055959      0.88735621   
     49900  -6030.1081     -6121.0922      90.98409       27513.566      543.53942      9937.0469      1.300527       0.88735621   
     50000  -6030.5585     -6122.9798      92.421312      27776.786      552.12539      9981.7454      1.2947032      0.82831592   
     50100  -6032.9638     -6123.3094      90.345522      22496.961      539.72462      10021.431      1.2895761      0.82831592   
     50200  -6034.3755     -6123.8828      89.507268      30680.94       534.71688      10046.157      1.2864021      0.82831592   
     50300  -6033.3252     -6121.4567      88.131444      21445.684      526.4977       10052.133      1.2856373      0.82831592   
     50400  -6031.3122     -6119.2946      87.982358      25222.204      525.60706      10040.573      1.2871175      0.82831592   
     50500  -6033.0717     -6122.259       89.187286      24229.626      532.80531      10013.041      1.2906567      0.82831592   
     50600  -6030.1182     -6120.554       90.43572       28918.426      540.26346      9970.5223      1.2961606      0.82831592   
     50700  -6030.0301     -6121.9665      91.936427      30069.65       549.22869      9922.2847      1.3024619      0.82831592   
     50800  -6030.1501     -6124.2551      94.105014      30271.05       562.18384      9876.9889      1.308435       0.82831592   
     50900  -6033.7846     -6125.6975      91.912886      32967.701      549.08806      9841.3099      1.3131786      0.82831592   
     51000  -6032.7957     -6120.7612      87.965575      27602.028      525.5068       9814.2775      1.3167956      0.7061975    
     51100  -6034.1987     -6122.6372      88.438436      30063.948      528.33167      9796.4884      1.3191868      0.7061975    
     51200  -6035.0367     -6125.0693      90.032566      29633.611      537.85502      9791.1123      1.3199111      0.7061975    
     51300  -6031.5668     -6120.6053      89.038477      28429.555      531.91632      9796.3561      1.3192046      0.7061975    
     51400  -6029.1608     -6121.3418      92.181018      31308.519      550.68987      9821.9785      1.3157632      0.7061975    
     51500  -6027.5585     -6123.8521      96.293569      29756.349      575.25828      9862.9237      1.3103009      0.7061975    
     51600  -6026.9925     -6119.475       92.48254       26949.628      552.49117      9908.6154      1.3042587      0.7061975    
     51700  -6027.4009     -6118.395       90.99407       29648.297      543.59904      9950.2747      1.2987981      0.7061975    
     51800  -6027.6901     -6120.2934      92.603291      22953.731      553.21254      9983.4891      1.2944771      0.7061975    
     51900  -6027.9976     -6120.4349      92.437369      20547.217      552.22132      9999.7316      1.2923745      0.7061975    
     52000  -6027.2755     -6119.3772      92.101688      25463.529      550.21596      10000.518      1.2922729      0.74465882   
     52100  -6031.5388     -6123.2091      91.670317      26185.52       547.63895      9989.4932      1.2936991      0.74465882   
     52200  -6031.3203     -6121.0884      89.76812       27151.734      536.27521      9970.6947      1.2961382      0.74465882   
     52300  -6027.8557     -6121.4072      93.55151       27560.383      558.8772       9951.2297      1.2986735      0.74465882   
     52400  -6026.5592     -6119.9251      93.365968      29115.037      557.76877      9933.2135      1.3010289      0.74465882   
     52500  -6028.2844     -6117.4639      89.179523      26513.006      532.75893      9916.6557      1.3032012      0.74465882   
     52600  -6028.0664     -6118.9457      90.879309      27932.665      542.91346      9902.9174      1.3050092      0.74465882   
     52700  -6028.6064     -6119.5025      90.896104      32497.58       543.01379      9892.3786      1.3063994      0.74465882   
     52800  -6029.3457     -6122.3145      92.968729      30351.393      555.39567      9886.9552      1.3071161      0.74465882   
     52900  -6030.1767     -6120.7254      90.548669      27550.721      540.93822      9885.0875      1.307363       0.74465882   
     53000  -6028.4459     -6118.3402      89.894224      27991.252      537.02856      9888.1584      1.306957       1.0215878    
     53100  -6028.1186     -6122.0377      93.919101      27197.551      561.0732       9900.5229      1.3053248      1.0215878    
     53200  -6030.539      -6120.1106      89.571578      26825.643      535.10107      9918.1007      1.3030114      1.0215878    
     53300  -6027.8808     -6119.0648      91.183957      27447.906      544.73343      9942.3046      1.2998393      1.0215878    
     53400  -6025.7975     -6119.9654      94.167921      28732.273      562.55965      9974.4303      1.2956527      1.0215878    
     53500  -6028.1489     -6122.007       93.858076      24868.089      560.70863      10007.749      1.2913391      1.0215878    
     53600  -6027.9356     -6121.0145      93.078948      28589.989      556.05412      10032.784      1.2881169      1.0215878    
     53700  -6026.0368     -6118.0496      92.012757      29530.198      549.68468      10050.442      1.2858536      1.0215878    
     53800  -6028.14       -6119.6714      91.53138       27243.183      546.80894      10060.478      1.2845709      1.0215878    
     53900  -6028.1762     -6120.0288      91.852685      28064.885      548.72841      10063.934      1.2841298      1.0215878    
     54000  -6029.9558     -6124.1985      94.242703      28145.924      563.00639      10061.642      1.2844224      0.80014216   
     54100  -6030.3071     -6122.6213      92.314132      29102.377      551.4851       10051.095      1.2857702      0.80014216   
     54200  -6032.8636     -6123.5899      90.726236      23685.517      541.999        10031.465      1.2882862      0.80014216   
     54300  -6031.9786     -6120.5505      88.571902      26738.197      529.129        9999.0766      1.2924591      0.80014216   
     54400  -6032.2701     -6121.8143      89.544191      27382.302      534.93746      9961.2689      1.2973646      0.80014216   
     54500  -6028.7936     -6117.2109      88.417263      28076.622      528.20518      9926.2505      1.3019415      0.80014216   
     54600  -6027.4282     -6120.3641      92.935905      31069.772      555.19958      9904.0129      1.3048648      0.80014216   
     54700  -6026.512      -6122.0993      95.587303      31065.841      571.03904      9895.5054      1.3059866      0.80014216   
     54800  -6023.9547     -6119.1551      95.200431      28377.914      568.72787      9894.5599      1.3061114      0.80014216   
     54900  -6024.5806     -6120.2806      95.699916      27484.686      571.71179      9898.7682      1.3055562      0.80014216   
     55000  -6026.475      -6119.4613      92.986245      27965.471      555.50031      9910.0078      1.3040755      0.6575795    
     55100  -6022.9629     -6117.8481      94.885141      29456.676      566.84432      9925.2982      1.3020665      0.6575795    
     55200  -6023.4331     -6116.0039      92.570818      24864.281      553.01854      9944.9531      1.2994931      0.6575795    
     55300  -6022.8006     -6113.2526      90.451939      23024.848      540.36035      9960.2629      1.2974957      0.6575795    
     55400  -6021.8336     -6118.3483      96.514677      32643.469      576.57918      9973.3201      1.295797       0.6575795    
     55500  -6024.4896     -6121.4205      96.930931      27495.69       579.06588      9983.3082      1.2945005      0.6575795    
[...]
   2006000  -6033.1285     -6121.9459      88.817465      27317.613      530.59599      9905.3547      1.304688       0.72933471   
   2006100  -6031.5898     -6121.5767      89.986915      25326.318      537.5823       9878.9567      1.3081744      0.72933471   
   2006200  -6030.9653     -6122.3228      91.357478      30982.946      545.77005      9853.0654      1.3116119      0.72933471   
   2006300  -6027.5717     -6118.7034      91.131746      26987.766      544.42152      9829.0741      1.3148133      0.72933471   
   2006400  -6029.7868     -6122.3529      92.56612       28955.585      552.99048      9812.4215      1.3170447      0.72933471   
   2006500  -6029.3462     -6121.0923      91.746034      32662.018      548.09128      9805.9694      1.3179113      0.72933471   
   2006600  -6027.5832     -6119.1804      91.597236      28886.61       547.20236      9809.7161      1.3174079      0.72933471   
   2006700  -6027.9458     -6117.2736      89.327793      31928.873      533.6447       9822.732       1.3156623      0.72933471   
   2006800  -6028.8856     -6119.447       90.561379      28300.253      541.01415      9850.4297      1.3119629      0.72933471   
   2006900  -6031.2515     -6122.0259      90.774312      29466.088      542.28621      9889.8414      1.3067346      0.72933471   
   2007000  -6030.2707     -6122.6613      92.390514      23723.203      551.9414       9931.8082      1.301213       0.65653078   
   2007100  -6030.3381     -6123.8395      93.501377      31680.823      558.57771      9972.7965      1.295865       0.65653078   
   2007200  -6030.7529     -6121.5449      90.792026      28450.843      542.39203      10012.488      1.2907279      0.65653078   
   2007300  -6029.6777     -6119.5413      89.86357       27597.332      536.84543      10050.331      1.2858679      0.65653078   
   2007400  -6030.5279     -6119.525       88.997045      26616.875      531.6688       10080.19       1.282059       0.65653078   
   2007500  -6031.9108     -6122.2224      90.311634      25220.87       539.52216      10092.35       1.2805142      0.65653078   
   2007600  -6033.0388     -6121.364       88.325172      26176.328      527.65503      10077.233      1.2824351      0.65653078   
   2007700  -6035.3507     -6123.0545      87.70387       22275.292      523.94337      10033.67       1.2880031      0.65653078   
   2007800  -6032.0879     -6122.631       90.543076      25440.91       540.9048       9965.1611      1.2968579      0.65653078   
   2007900  -6028.9957     -6121.6145      92.618876      33653.558      553.30564      9885.1838      1.3073503      0.65653078   
   2008000  -6023.5411     -6117.1021      93.561071      32812.689      558.93432      9813.8266      1.3168561      0.65419202   
   2008100  -6024.5385     -6116.3322      91.793722      32989.455      548.37617      9769.8955      1.3227775      0.65419202   
   2008200  -6026.8981     -6121.0753      94.177227      33914.366      562.61524      9757.5848      1.3244464      0.65419202   
   2008300  -6027.0319     -6119.5517      92.519841      29745.636      552.71401      9769.1056      1.3228845      0.65419202   
   2008400  -6027.8064     -6117.0143      89.207915      32160.412      532.92854      9804.2705      1.3181397      0.65419202   
   2008500  -6027.7433     -6119.4732      91.729842      31683.522      547.99455      9861.9648      1.3104283      0.65419202   
   2008600  -6029.1553     -6122.8912      93.735906      30705.179      559.97878      9929.5242      1.3015123      0.65419202   
   2008700  -6028.7896     -6119.5555      90.765923      29973.416      542.23609      9990.4177      1.2935793      0.65419202   
   2008800  -6031.6232     -6121.8158      90.192615      23878.387      538.81115      10031.668      1.2882601      0.65419202   
   2008900  -6032.156      -6121.6541      89.498065      26589.617      534.6619       10051.919      1.2856647      0.65419202   
   2009000  -6032.3685     -6121.9787      89.610167      23131.864      535.3316       10050.524      1.2858431      0.74658281   
   2009100  -6032.7059     -6124.0037      91.297826      21684.721      545.41368      10030.157      1.2884541      0.74658281   
   2009200  -6031.7823     -6122.9405      91.158238      27605.016      544.57978      9991.5657      1.2934307      0.74658281   
   2009300  -6027.075      -6118.1116      91.036611      29774.641      543.85319      9945.8768      1.2993724      0.74658281   
   2009400  -6026.4381     -6117.8747      91.436635      31677.585      546.24293      9903.5614      1.3049243      0.74658281   
   2009500  -6025.46       -6118.8405      93.38049       33021.772      557.85553      9866.7677      1.3097904      0.74658281   
   2009600  -6024.8933     -6115.0765      90.183179      33247.336      538.75477      9842.5074      1.3130189      0.74658281   
   2009700  -6025.636      -6118.8262      93.190178      30243.949      556.7186       9838.292       1.3135815      0.74658281   
   2009800  -6023.61       -6115.7721      92.162135      30021.703      550.57707      9846.833       1.3124421      0.74658281   
   2009900  -6024.4255     -6118.1984      93.772966      32032.745      560.20018      9865.8173      1.3099166      0.74658281   
   2010000  -6024.54       -6116.1766      91.636646      26765.284      547.43779      9887.5728      1.3070344      0.74276975   
   2010100  -6026.3496     -6116.574       90.224364      32885.676      539.00081      9911.7863      1.3038415      0.74276975   
   2010200  -6027.8709     -6120.3839      92.513035      27994.773      552.67335      9932.5618      1.3011143      0.74276975   
   2010300  -6029.9068     -6121.4276      91.520884      26920.017      546.74623      9941.1341      1.2999923      0.74276975   
   2010400  -6027.6805     -6120.7175      93.037041      28447.82       555.80376      9937.0517      1.3005264      0.74276975   
   2010500  -6027.7262     -6117.638       89.911788      27230.077      537.13349      9927.4764      1.3017808      0.74276975   
   2010600  -6025.4115     -6122.3287      96.917209      30867.889      578.9839       9918.0053      1.3030239      0.74276975   
   2010700  -6025.5542     -6118.4574      92.90318       29849.266      555.00408      9912.9706      1.3036857      0.74276975   
   2010800  -6026.4792     -6119.6506      93.171406      28692.348      556.60646      9915.4864      1.3033549      0.74276975   
   2010900  -6025.868      -6121.6856      95.817614      27326.538      572.41492      9924.6125      1.3021564      0.74276975   
   2011000  -6025.7411     -6119.6121      93.870972      26960.663      560.78567      9941.9543      1.2998851      0.70645614   
   2011100  -6025.8367     -6119.3927      93.555995      28291.367      558.904        9963.3785      1.2970899      0.70645614   
   2011200  -6027.5268     -6120.497       92.970197      26131.158      555.40443      9981.2652      1.2947655      0.70645614   
   2011300  -6026.6149     -6120.3305      93.715574      26780.71       559.85732      9992.0913      1.2933627      0.70645614   
   2011400  -6026.6805     -6120.506       93.82549       27364.798      560.51396      9994.3297      1.293073       0.70645614   
   2011500  -6029.3239     -6120.1409      90.816974      27612.787      542.54107      9990.9389      1.2935119      0.70645614   
   2011600  -6030.8342     -6119.9173      89.083056      30733.512      532.18264      9979.0149      1.2950575      0.70645614   
   2011700  -6032.6877     -6122.2539      89.56623       25280.349      535.06912      9959.3807      1.2976106      0.70645614   
   2011800  -6032.047      -6121.8106      89.763637      27291.161      536.24843      9926.6616      1.3018876      0.70645614   
   2011900  -6032.4085     -6124.1006      91.692127      27403.931      547.76924      9883.4036      1.3075858      0.70645614   
   2012000  -6027.0573     -6120.5516      93.494384      29974.14       558.53593      9836.9372      1.3137624      0.70660968   
   2012100  -6028.2407     -6119.8912      91.650591      33505.195      547.5211       9795.8823      1.3192684      0.70660968   
   2012200  -6024.9924     -6117.2029      92.21055       36630.231      550.8663       9774.5443      1.3221484      0.70660968   
   2012300  -6030.4558     -6122.318       91.862208      32456.884      548.7853       9782.6664      1.3210507      0.70660968   
   2012400  -6032.1468     -6124.3441      92.197273      29025.028      550.78698      9816.3205      1.3165216      0.70660968   
   2012500  -6032.0135     -6123.5482      91.53474       27940.694      546.82901      9867.3796      1.3097092      0.70660968   
   2012600  -6031.0721     -6121.8596      90.787539      27023.615      542.36523      9923.1155      1.3023529      0.70660968   
   2012700  -6031.4744     -6120.8331      89.358737      30111.726      533.82956      9973.4686      1.2957777      0.70660968   
   2012800  -6030.1667     -6121.3108      91.144082      22961.869      544.49521      10012.094      1.2907787      0.70660968   
   2012900  -6031.1292     -6124.8021      93.672929      27344.997      559.60256      10033.296      1.2880512      0.70660968   
   2013000  -6029.4727     -6125.5429      96.070231      24934.402      573.92406      10034.044      1.287955       0.81824859   
   2013100  -6028.0124     -6122.4902      94.477865      25276.923      564.41125      10010.894      1.2909335      0.81824859   
   2013200  -6029.9692     -6120.9255      90.956305      28566.975      543.37344      9971.8711      1.2959853      0.81824859   
   2013300  -6029.6249     -6121.4848      91.859959      31938.371      548.77187      9929.2196      1.3015522      0.81824859   
   2013400  -6026.8623     -6120.4148      93.55254       33907.456      558.88336      9894.1352      1.3061675      0.81824859   
   2013500  -6028.8967     -6122.0582      93.161438      26600.887      556.54691      9872.9914      1.3089648      0.81824859   
   2013600  -6029.0073     -6121.6681      92.660773      28323.547      553.55593      9863.8816      1.3101737      0.81824859   
   2013700  -6027.4253     -6117.0932      89.667891      28867.123      535.67644      9866.0656      1.3098836      0.81824859   
   2013800  -6026.9919     -6119.0174      92.025459      30596.264      549.76057      9878.9572      1.3081743      0.81824859   
   2013900  -6026.8613     -6120.4619      93.600575      27615.585      559.17032      9900.67        1.3053054      0.81824859   
   2014000  -6026.9381     -6119.6524      92.714261      26462.171      553.87548      9927.3981      1.301791       0.78063137   
   2014100  -6031.6589     -6119.7541      88.095188      25920.407      526.28111      9957.3163      1.2978796      0.78063137   
   2014200  -6032.4204     -6123.1421      90.721718      27317.867      541.97201      9977.489       1.2952555      0.78063137   
   2014300  -6029.958      -6121.7434      91.78531       28217.473      548.32591      9983.7481      1.2944435      0.78063137   
   2014400  -6029.0204     -6122.7544      93.733981      25678.237      559.96729      9976.9797      1.2953217      0.78063137   
   2014500  -6030.7036     -6122.2831      91.579523      25280.204      547.09654      9962.483       1.2972065      0.78063137   
   2014600  -6028.5791     -6122.1139      93.534738      26840.887      558.777        9943.5109      1.2996816      0.78063137   
   2014700  -6029.9762     -6120.5371      90.560817      28415.605      541.01078      9926.2486      1.3019418      0.78063137   
   2014800  -6029.8743     -6122.3891      92.51472       29445.765      552.68341      9911.8084      1.3038385      0.78063137   
   2014900  -6028.8296     -6120.7952      91.965593      26314.613      549.40293      9899.9553      1.3053996      0.78063137   
   2015000  -6027.8469     -6119.2176      91.370751      31561.299      545.84934      9893.2241      1.3062878      0.75354566   
   2015100  -6030.712      -6122.9838      92.271883      26186.337      551.23271      9896.2943      1.3058825      0.75354566   
   2015200  -6030.667      -6122.0799      91.412904      27332.618      546.10116      9901.2748      1.3052256      0.75354566   
   2015300  -6028.7323     -6118.4329      89.700551      33533.747      535.87156      9906.6475      1.3045178      0.75354566   
   2015400  -6028.7525     -6121.4638      92.711363      26530.7        553.85816      9911.9658      1.3038179      0.75354566   
   2015500  -6029.8975     -6122.3562      92.458685      27015.36       552.34866      9916.9112      1.3031677      0.75354566   
   2015600  -6029.4284     -6123.2431      93.814664      25965.513      560.44929      9922.4581      1.3024392      0.75354566   
   2015700  -6029.0644     -6120.7755      91.711096      26874.196      547.88256      9927.4123      1.3017892      0.75354566   
   2015800  -6027.9437     -6120.5689      92.625201      26886.27       553.34343      9931.1276      1.3013022      0.75354566   
   2015900  -6024.3907     -6116.808       92.417312      27554.032      552.1015       9932.2168      1.3011595      0.75354566   
   2016000  -6025.1473     -6117.0524      91.905121      31262.35       549.04166      9933.7769      1.3009551      0.8554429    
   2016100  -6024.7818     -6123.5957      98.813899      31814.607      590.31474      9940.0765      1.3001306      0.8554429    
   2016200  -6024.0145     -6117.5587      93.544169      30921.304      558.83335      9952.5714      1.2984984      0.8554429    
   2016300  -6023.8577     -6118.8167      94.958919      29697.729      567.28507      9971.1836      1.2960746      0.8554429    
   2016400  -6025.5879     -6119.1361      93.548229      31201.715      558.8576       9987.3977      1.2939705      0.8554429    
   2016500  -6028.4723     -6118.8642      90.391863      27698.794      540.00145      9997.9556      1.292604       0.8554429    
   2016600  -6028.4046     -6120.8344      92.429807      29529.269      552.17615      10002.969      1.2919562      0.8554429    
   2016700  -6028.9723     -6121.0677      92.095415      31120.993      550.17848      9999.9087      1.2923516      0.8554429    
   2016800  -6027.2938     -6120.5363      93.24251       23978.659      557.03123      9986.8725      1.2940385      0.8554429    
   2016900  -6028.2904     -6120.0297      91.739272      26185.199      548.05088      9965.3482      1.2968335      0.8554429    
   2017000  -6026.9661     -6119.0932      92.127079      28604.496      550.36765      9940.3839      1.3000904      0.72759214   
   2017100  -6026.6884     -6118.0241      91.335744      32994.757      545.64021      9917.2664      1.303121       0.72759214   
   2017200  -6026.7427     -6119.4683      92.725617      30668.133      553.94331      9901.2954      1.3052229      0.72759214   
   2017300  -6025.8832     -6119.6827      93.79949       29519.288      560.35864      9894.12        1.3061695      0.72759214   
   2017400  -6028.8988     -6121.1496      92.250807      28141.238      551.1068       9900.0272      1.3053901      0.72759214   
   2017500  -6030.4259     -6121.6684      91.242533      28478.316      545.08336      9910.8234      1.3039681      0.72759214   
   2017600  -6030.1115     -6122.4406      92.329087      26460.466      551.57444      9926.8579      1.3018619      0.72759214   
   2017700  -6029.5785     -6122.0795      92.500966      27617.009      552.60125      9942.4679      1.2998179      0.72759214   
   2017800  -6030.0911     -6124.9495      94.858366      27561.917      566.68437      9957.541       1.2978503      0.72759214   
   2017900  -6028.531      -6119.6915      91.160512      26088.704      544.59337      9965.4614      1.2968188      0.72759214   
   2018000  -6027.8392     -6121.8241      93.984949      27836.034      561.46657      9966.5961      1.2966712      0.74520511   
   2018100  -6030.8492     -6123.6334      92.784164      27889.539      554.29307      9964.4805      1.2969465      0.74520511   
   2018200  -6028.3255     -6122.7674      94.441825      28638.93       564.19595      9963.782       1.2970374      0.74520511   
   2018300  -6031.3079     -6120.8526      89.544619      29774.099      534.94002      9962.8923      1.2971532      0.74520511   
   2018400  -6036.0057     -6124.2276      88.221941      27464.318      527.03833      9959.6996      1.297569       0.74520511   
   2018500  -6034.0339     -6121.8208      87.786908      24017.323      524.43944      9946.9122      1.2992372      0.74520511   
   2018600  -6035.8139     -6123.0605      87.246666      25264.919      521.21203      9930.9954      1.3013195      0.74520511   
   2018700  -6033.0678     -6124.1174      91.049679      25844.492      543.93125      9918.7663      1.3029239      0.74520511   
   2018800  -6032.7603     -6126.3246      93.56431       30368.779      558.95367      9910.3671      1.3040282      0.74520511   
   2018900  -6034.1483     -6122.8518      88.703511      26254.96       529.91523      9905.6631      1.3046474      0.74520511   
   2019000  -6033.3559     -6122.2733      88.917426      29149.366      531.19316      9903.9346      1.3048751      0.69440536   
   2019100  -6030.746      -6120.4528      89.706781      28864.639      535.90877      9901.9209      1.3051405      0.69440536   
   2019200  -6030.344      -6121.8555      91.511486      28266.548      546.69009      9903.9174      1.3048774      0.69440536   
   2019300  -6029.2315     -6121.8081      92.576591      29391.536      553.05303      9908.3898      1.3042884      0.69440536   
   2019400  -6030.1519     -6120.9492      90.79725       28760.977      542.42324      9916.8178      1.3031799      0.69440536   
   2019500  -6028.7638     -6119.0346      90.270758      26978.347      539.27797      9928.7833      1.3016094      0.69440536   
   2019600  -6027.8505     -6119.4838      91.633252      30646.526      547.41752      9947.5104      1.299159       0.69440536   
   2019700  -6028.574      -6120.6954      92.121399      31723.242      550.33371      9974.2695      1.2956736      0.69440536   
   2019800  -6029.3075     -6119.1812      89.873733      26183.091      536.90614      10002.128      1.2920648      0.69440536   
   2019900  -6030.9336     -6122.1613      91.227643      25661.164      544.99441      10024.607      1.2891676      0.69440536   
   2020000  -6031.3622     -6122.5569      91.194645      25173.138      544.79728      10037.267      1.2875415      0.70456115   
   2020033  -6030.2309     -6123.7832      93.552338      27676.514      558.88215      10038.713      1.2873561      0.70456115   
Loop time of 8311.65 on 1 procs for 2000000 steps with 1296 atoms

Performance: 10.395 ns/day, 2.309 hours/ns, 240.626 timesteps/s, 311.852 katom-step/s
99.8% CPU use with 1 MPI tasks x 1 OpenMP threads

MPI task timing breakdown:
Section |  min time  |  avg time  |  max time  |%varavg| %total
---------------------------------------------------------------
Pair    | 6266       | 6266       | 6266       |   0.0 | 75.39
Neigh   | 94.478     | 94.478     | 94.478     |   0.0 |  1.14
Comm    | 88.304     | 88.304     | 88.304     |   0.0 |  1.06
Output  | 5.2947     | 5.2947     | 5.2947     |   0.0 |  0.06
Modify  | 1812.3     | 1812.3     | 1812.3     |   0.0 | 21.80
Other   |            | 45.25      |            |       |  0.54

Nlocal:           1296 ave        1296 max        1296 min
Histogram: 1 0 0 0 0 0 0 0 0 0
Nghost:           4441 ave        4441 max        4441 min
Histogram: 1 0 0 0 0 0 0 0 0 0
Neighs:              0 ave           0 max           0 min
Histogram: 1 0 0 0 0 0 0 0 0 0
FullNghs:       193110 ave      193110 max      193110 min
Histogram: 1 0 0 0 0 0 0 0 0 0

Total # of neighbors = 193110
Ave neighs/atom = 149.00463
Neighbor list builds = 200000
Dangerous builds = 200000
Total wall time: 2:19:56
