LAMMPS (7 Feb 2024 - Update 1)
KOKKOS mode with Kokkos version 4.2.0 is enabled (src/KOKKOS/kokkos.cpp:72)
  will use up to 2 GPU(s) per node
  using 1 OpenMP thread(s) per MPI task
package kokkos
package kokkos newton on neigh half

units		metal						## E in [eV], t in [ps], P in [10000 Pa], l in [A]
atom_style	atomic						## mass x y z vx vy vz

neighbor	0.5 bin						## neighbor list, skin = 0.5 Angstrom
neigh_modify	every 2 delay 10 check yes			## update of neighbor list

############################## main variables
variable        seed equal 37951

variable	temperature equal 300
variable	tempDamp equal 0.1

variable        pressure equal 100
variable        pressureDamp equal 1.0 				# This is 1 ps

##############################

read_data water.dat
Reading data file ...
  orthogonal box = (0 0 0) to (18.207572 23.629178 22.213196)
  1 by 2 by 1 MPI processor grid
  reading atoms ...
  864 atoms
  read_data CPU = 0.010 seconds

mass		1 1.008    # H
mass		2 15.9994  # O


pair_style	pace/extrapolation
ACE/AL version: 2023.11.25
pair_coeff	* * /home/cicn/cicn607503/pd/pot_dir/interim_potential_ladder_step_5.yaml /home/cicn/cicn607503/pd/pot_dir/interim_potential_ladder_step_5.asi H O
Loading /home/cicn/cicn607503/pd/pot_dir/interim_potential_ladder_step_5.yaml
Total number of basis functions
	H: 24 (r=1) 863 (r>1)
	O: 24 (r=1) 863 (r>1)
Mapping LAMMPS atom type #1(H) -> ACE species type #0
Mapping LAMMPS atom type #2(O) -> ACE species type #1
Loading ASI /home/cicn/cicn607503/pd/pot_dir/interim_potential_ladder_step_5.asi
LINEAR ASI is loaded

fix pace_gamma all pair 1000 pace/extrapolation gamma 1
compute max_pace_gamma all reduce max f_pace_gamma
variable dump_skip equal "c_max_pace_gamma < 10"

dump pace_dump all custom 1000 extrapolative_structures.dump id type x y z f_pace_gamma
dump_modify pace_dump skip v_dump_skip
dump_modify pace_dump element H O

variable max_pace_gamma equal c_max_pace_gamma

timestep	0.0005						## timestep = 0.0005*ps = 0.5 fs

thermo		100
thermo_style custom step etotal pe ke press temp vol density c_max_pace_gamma


min_style cg/kk
minimize 0.0 5.0e-4 10000 100000
Switching to 'neigh_modify every 1 delay 0 check yes' setting during minimization
Neighbor list info ...
  update: every = 1 steps, delay = 0 steps, check = yes
  max neighbors/atom: 2000, page size: 100000
  master list distance cutoff = 6.5
  ghost atom cutoff = 6.5
  binsize = 6.5, bins = 3 4 4
  1 neighbor lists, perpetual/occasional/extra = 1 0 0
  (1) pair pace/extrapolation/kk, perpetual
      attributes: full, newton on, kokkos_device
      pair build: full/bin/kk/device
      stencil: full/bin/3d
      bin: kk/device
WARNING: Fix with atom-based arrays not compatible with sending data in Kokkos communication, switching to classic exchange/border communication (src/KOKKOS/comm_kokkos.cpp:666)
WARNING: Fix with atom-based arrays not compatible with Kokkos sorting on device, switching to classic host sorting (src/KOKKOS/atom_kokkos.cpp:218)
Per MPI rank memory allocation (min/avg/max) = 449.3 | 453 | 456.7 Mbytes
   Step         TotEng         PotEng         KinEng         Press           Temp          Volume        Density     c_max_pace_gamma
         0  -4180.2701     -4180.2701      0              309.14185      0              9556.7825      0.90151666     0.5877825    
       100  -4182.3963     -4182.3963      0             -6479.0667      0              9556.7825      0.90151666     0.5877825    
       174  -4182.3964     -4182.3964      0             -6480.3888      0              9556.7825      0.90151666     0.5877825    
Loop time of 0.623339 on 2 procs for 174 steps with 864 atoms

99.0% CPU use with 2 MPI tasks x 1 OpenMP threads

Minimization stats:
  Stopping criterion = force tolerance
  Energy initial, next-to-last, final = 
      -4180.2701144618  -4182.39644829383  -4182.39644830578
  Force two-norm initial, final = 6.6050737 0.00039957885
  Force max component initial, final = 0.28115465 3.2573508e-05
  Final line search alpha, max atom move = 1 3.2573508e-05
  Iterations, force evaluations = 174 348

MPI task timing breakdown:
Section |  min time  |  avg time  |  max time  |%varavg| %total
---------------------------------------------------------------
Pair    | 0.42592    | 0.42804    | 0.43016    |   0.3 | 68.67
Neigh   | 0.00043165 | 0.00046788 | 0.00050412 |   0.0 |  0.08
Comm    | 0.063705   | 0.066799   | 0.069894   |   1.2 | 10.72
Output  | 0.00015585 | 0.00015637 | 0.00015688 |   0.0 |  0.03
Modify  | 0.079773   | 0.081707   | 0.08364    |   0.7 | 13.11
Other   |            | 0.04617    |            |       |  7.41

Nlocal:            432 ave         433 max         431 min
Histogram: 1 0 0 0 0 0 0 0 0 1
Nghost:           2186 ave        2191 max        2181 min
Histogram: 1 0 0 0 0 0 0 0 0 1
Neighs:              0 ave           0 max           0 min
Histogram: 2 0 0 0 0 0 0 0 0 0
FullNghs:        46055 ave       46168 max       45942 min
Histogram: 1 0 0 0 0 0 0 0 0 1

Total # of neighbors = 92110
Ave neighs/atom = 106.6088
Neighbor list builds = 1
Dangerous builds = 0

################## equilibration of main calculation
# Equilibrate to specified number of ice

fix             3 all nph aniso ${pressure} ${pressure} ${pressureDamp}
fix             3 all nph aniso 100 ${pressure} ${pressureDamp}
fix             3 all nph aniso 100 100 ${pressureDamp}
fix             3 all nph aniso 100 100 1
fix             4 all temp/csvr ${temperature} ${temperature} ${tempDamp} ${seed}
fix             4 all temp/csvr 300 ${temperature} ${tempDamp} ${seed}
fix             4 all temp/csvr 300 300 ${tempDamp} ${seed}
fix             4 all temp/csvr 300 300 0.1 ${seed}
fix             4 all temp/csvr 300 300 0.1 37951
velocity 	all create ${temperature} ${seed} dist gaussian
velocity 	all create 300 ${seed} dist gaussian
velocity 	all create 300 37951 dist gaussian

run 200000
WARNING: Fix with atom-based arrays not compatible with sending data in Kokkos communication, switching to classic exchange/border communication (src/KOKKOS/comm_kokkos.cpp:666)
WARNING: Fix with atom-based arrays not compatible with Kokkos sorting on device, switching to classic host sorting (src/KOKKOS/atom_kokkos.cpp:218)
Per MPI rank memory allocation (min/avg/max) = 454.1 | 455.3 | 456.4 Mbytes
   Step         TotEng         PotEng         KinEng         Press           Temp          Volume        Density     c_max_pace_gamma
       174  -4148.931      -4182.3964      33.465452     -2740.1091      300            9556.7825      0.90151666     0.5877825    
       200  -4147.1406     -4161.468       14.327449     -721.35455      128.43797      9553.9687      0.90178217     0.5877825    
       300  -4139.8516     -4160.7813      20.92969       1240.5153      187.62355      9515.6491      0.90541365     0.5877825    
       400  -4133.8084     -4158.1932      24.384865     -984.16327      218.59736      9440.7997      0.91259204     0.5877825    
       500  -4129.5089     -4156.408       26.899116     -97.564339      241.13629      9344.2562      0.92202081     0.5877825    
       600  -4126.6724     -4153.6009      26.928528      1355.5619      241.39995      9258.0136      0.93060984     0.5877825    
       700  -4124.7145     -4152.8928      28.178312      4656.4227      252.60361      9206.8815      0.93577815     0.5877825    
       800  -4122.9133     -4152.227       29.313646      2611.676       262.78127      9202.0384      0.93627066     0.5877825    
       900  -4120.9102     -4152.3175      31.407382      4021.3857      281.5505       9247.9448      0.93162306     0.5877825    
      1000  -4118.9289     -4148.9031      29.974139      1405.8469      268.70224      9335.0716      0.92292796     0.80753478   
      1100  -4119.1409     -4148.3707      29.229819      2100.1552      262.02981      9442.5945      0.91241858     0.80753478   
      1200  -4117.8578     -4148.8017      30.94396      -1427.6134      277.39617      9546.8271      0.90245676     0.80753478   
      1300  -4116.3611     -4147.4557      31.09464      -1435.7033      278.74693      9634.3222      0.894261       0.80753478   
      1400  -4116.2459     -4147.1839      30.93805       1297.2198      277.34319      9699.5725      0.88824519     0.80753478   
      1500  -4116.3044     -4148.8744      32.570009     -2395.8613      291.97283      9740.4683      0.88451585     0.80753478   
      1600  -4115.9831     -4147.7333      31.750186     -2734.0176      284.62356      9752.6963      0.88340683     0.80753478   
      1700  -4115.9193     -4148.2062      32.286947      413.17877      289.43533      9737.2316      0.88480986     0.80753478   
      1800  -4115.3573     -4147.0847      31.727426      210.62455      284.41952      9692.1139      0.88892874     0.80753478   
      1900  -4114.7328     -4147.0045      32.271721     -17.89562       289.29884      9629.8333      0.89467786     0.80753478   
      2000  -4114.695      -4147.828       33.133063      232.77586      297.02032      9559.4751      0.90126272     0.82990803   
      2100  -4114.0744     -4147.5198      33.445436     -93.006832      299.82058      9497.4258      0.90715092     0.82990803   
      2200  -4113.1743     -4146.3191      33.144828      1928.1356      297.12578      9452.0578      0.91150506     0.82990803   
      2300  -4111.7927     -4143.8461      32.053332      1704.8181      287.3411       9427.7991      0.91385046     0.82990803   
      2400  -4111.5911     -4144.8845      33.29339       2593.6119      298.45756      9429.5386      0.91368189     0.82990803   
      2500  -4111.3245     -4146.4436      35.11908       1890.1834      314.8239       9458.6094      0.91087371     0.82990803   
      2600  -4110.2153     -4143.8526      33.637268      171.08278      301.54024      9508.515       0.90609297     0.82990803   
      2700  -4110.3222     -4143.9418      33.619596      409.50289      301.38182      9574.8968      0.89981112     0.82990803   
      2800  -4109.3218     -4144.2019      34.880056     -3050.0455      312.68118      9648.876       0.89291215     0.82990803   
      2900  -4108.5067     -4143.4623      34.955558     -899.21785      313.35801      9717.8292      0.88657646     0.82990803   
      3000  -4109.1578     -4143.0346      33.876822     -849.42038      303.68772      9769.4233      0.88189429     0.82532188   
      3100  -4108.6827     -4142.3618      33.679079     -4000.6036      301.91505      9793.9109      0.8796893      0.82532188   
      3200  -4107.9732     -4141.9295      33.956256     -992.2927       304.39981      9789.5334      0.88008266     0.82532188   
      3300  -4108.2149     -4143.818       35.603099     -881.89137      319.16287      9761.2719      0.88263073     0.82532188   
      3400  -4110.0095     -4144.0545      34.045006     -606.24132      305.1954       9711.698       0.88713617     0.82532188   
      3500  -4109.5213     -4143.9981      34.476791      2304.4701      309.06612      9645.9431      0.89318365     0.82532188   
      3600  -4109.8954     -4144.6162      34.720854      1278.6983      311.25401      9577.108       0.89960336     0.82532188   
      3700  -4111.3727     -4146.1607      34.787994      3646.6904      311.85589      9513.086       0.9056576      0.82532188   
      3800  -4111.9918     -4144.8049      32.813047      2608.1774      294.15154      9464.8018      0.91027776     0.82532188   
      3900  -4110.6305     -4145.1985      34.568018      368.63914      309.88392      9438.4536      0.91281887     0.82532188   
      4000  -4111.419      -4146.4711      35.052092      779.40079      314.22339      9438.4161      0.9128225      0.88150721   
      4100  -4112.9922     -4146.453       33.460799     -1512.8404      299.95829      9462.3592      0.91051273     0.88150721   
      4200  -4113.0584     -4146.0779      33.019492      3874.5557      296.00221      9507.0769      0.90623003     0.88150721   
      4300  -4113.7108     -4146.9961      33.285303      2489.5578      298.38507      9565.0116      0.90074105     0.88150721   
      4400  -4113.2511     -4145.5111      32.259933     -1010.2133      289.19317      9623.8575      0.8952334      0.88150721   
      4500  -4112.7691     -4145.2122      32.443126      855.96548      290.83539      9670.1929      0.89094381     0.88150721   
      4600  -4112.6688     -4144.8398      32.171038      949.6003       288.39627      9697.4059      0.88844364     0.88150721   
      4700  -4113.5919     -4146.7917      33.199863      449.2639       297.61914      9702.5832      0.88796957     0.88150721   
      4800  -4113.031      -4146.7179      33.686879     -1953.5422      301.98498      9686.8764      0.88940937     0.88150721   
      4900  -4112.3501     -4145.4295      33.079381     -3604.5719      296.53909      9649.2094      0.8928813      0.88150721   
      5000  -4112.082      -4145.6411      33.559082     -217.72731      300.83934      9602.2235      0.89725037     0.81626083   
      5100  -4112.0871     -4145.8019      33.714813      1517.9257      302.2354       9556.8609      0.90150926     0.81626083   
      5200  -4112.224      -4146.3603      34.136273      3339.6254      306.01356      9520.9158      0.90491281     0.81626083   
      5300  -4112.5624     -4146.636       34.073597      423.77112      305.4517       9498.623       0.90703659     0.81626083   
      5400  -4112.2405     -4145.7697      33.529193     -1100.1643      300.57141      9490.6128      0.90780214     0.81626083   
      5500  -4112.9232     -4145.9386      33.015424      1010.0632      295.96574      9498.8383      0.90701603     0.81626083   
      5600  -4111.2943     -4145.9201      34.625879     -927.93338      310.40262      9520.0492      0.90499518     0.81626083   
      5700  -4111.775      -4145.6666      33.891605      3026.8692      303.82024      9552.4366      0.9019268      0.81626083   
      5800  -4111.1668     -4144.6469      33.480137      803.73937      300.13165      9595.046       0.89792155     0.81626083   
      5900  -4111.3468     -4144.788       33.441139      3544.4028      299.78205      9641.7939      0.89356801     0.81626083   
      6000  -4111.0673     -4145.2957      34.228444     -370.99829      306.83982      9684.8476      0.88959568     0.87136957   
      6100  -4110.8455     -4144.1561      33.310583      60.621562      298.61169      9719.3576      0.88643704     0.87136957   
      6200  -4110.6961     -4144.225       33.528849      345.47905      300.56832      9743.6645      0.8842257      0.87136957   
      6300  -4111.6071     -4144.6939      33.086758     -1058.5546      296.60521      9748.0528      0.88382765     0.87136957   
      6400  -4111.9059     -4143.8989      31.99307      -1843.0753      286.80088      9731.1754      0.88536053     0.87136957   
      6500  -4111.0894     -4144.3632      33.273793      490.84154      298.28189      9693.7962      0.88877447     0.87136957   
      6600  -4111.5354     -4145.2109      33.675508     -2135.9716      301.88305      9640.855       0.89365503     0.87136957   
      6700  -4112.3274     -4146.53        34.2026       -362.5047       306.60814      9575.9695      0.89971032     0.87136957   
      6800  -4110.0395     -4144.601       34.561444      2385.3352      309.82499      9511.2353      0.90583381     0.87136957   
      6900  -4110.0416     -4144.5182      34.476604      129.13418      309.06444      9467.1882      0.91004831     0.87136957   
      7000  -4109.3878     -4143.8344      34.446609     -743.05807      308.79556      9449.4465      0.91175696     0.84913888   
      7100  -4109.2321     -4143.4633      34.231175      1371.2939      306.8643       9459.29        0.91080816     0.84913888   
      7200  -4110.6489     -4144.3146      33.66569       1854.9758      301.79503      9495.9671      0.90729028     0.84913888   
      7300  -4110.18       -4145.6198      35.439877      1759.8343      317.69967      9550.7979      0.90208155     0.84913888   
      7400  -4109.7356     -4144.8189      35.083384     -1214.513       314.5039       9616.3398      0.89593325     0.84913888   
      7500  -4110.0885     -4144.699       34.610505      186.76849      310.2648       9687.0541      0.88939305     0.84913888   
      7600  -4110.7449     -4144.8397      34.094884     -1704.2405      305.64253      9748.1746      0.88381661     0.84913888   
      7700  -4110.0692     -4143.6119      33.542731     -3568.3793      300.69277      9790.7583      0.87997256     0.84913888   
      7800  -4111.8143     -4144.2577      32.44339      -2551.7219      290.83776      9803.6963      0.87881125     0.84913888   
      7900  -4111.4073     -4145.6128      34.205502      770.95327      306.63416      9784.8979      0.88049959     0.84913888   
      8000  -4113.2341     -4145.5529      32.318851     -4188.4101      289.72133      9731.1943      0.88535881     0.84298299   
      8100  -4113.0139     -4145.6023      32.588315     -907.76172      292.13693      9655.6024      0.89229012     0.84298299   
      8200  -4113.6729     -4147.227       33.554084      725.29525      300.79455      9565.2234      0.9007211      0.84298299   
      8300  -4112.8831     -4147.1695      34.28645       808.07404      307.35981      9475.091       0.90928927     0.84298299   
      8400  -4111.7172     -4145.1185      33.401309      3010.2919      299.425        9407.096       0.91586166     0.84298299   
      8500  -4112.1362     -4144.6809      32.544751      1315.4694      291.74641      9373.9692      0.91909824     0.84298299   
      8600  -4112.2972     -4144.6597      32.362527      3879.9149      290.11287      9378.5565      0.91864869     0.84298299   
      8700  -4111.9778     -4145.5663      33.588541      3757.642       301.10343      9415.9981      0.91499579     0.84298299   
      8800  -4112.3554     -4145.6065      33.251124     -1867.677       298.07867      9478.93        0.908921       0.84298299   
      8900  -4113.0659     -4145.2596      32.193731     -2129.4096      288.5997       9559.8693      0.90122556     0.84298299   
      9000  -4113.543      -4145.9543      32.411289      275.27353      290.54999      9639.3268      0.89379671     0.80525818   
      9100  -4113.0399     -4144.8264      31.786502     -2078.2102      284.94911      9703.1097      0.88792138     0.80525818   
      9200  -4113.2896     -4146.0784      32.788832     -750.28815      293.93447      9747.9613      0.88383594     0.80525818   
      9300  -4112.5284     -4145.0326      32.504215      1582.9242      291.38302      9767.7445      0.88204586     0.80525818   
      9400  -4112.5197     -4145.6448      33.1251        527.76355      296.94893      9760.6198      0.8826897      0.80525818   
      9500  -4111.4        -4144.5209      33.120844     -2784.0463      296.91078      9725.8374      0.88584646     0.80525818   
      9600  -4112.6383     -4146.5217      33.88339      -1865.7984      303.7466       9674.4045      0.89055596     0.80525818   
      9700  -4111.9664     -4146.1644      34.197979      1136.7265      306.56672      9613.9066      0.89616001     0.80525818   
      9800  -4113.1433     -4146.2266      33.083304      391.25365      296.57425      9555.1202      0.90167349     0.80525818   
      9900  -4113.3313     -4145.7037      32.372355     -940.61109      290.20097      9509.8335      0.90596734     0.80525818   
     10000  -4113.1662     -4145.5726      32.406386      1162.4667      290.50604      9482.0298      0.90862387     0.85188352   
     10100  -4114.1218     -4147.4759      33.354148      1012.505       299.00222      9476.5388      0.90915035     0.85188352   
     10200  -4114.6502     -4147.0717      32.421425      1529.3862      290.64086      9491.1924      0.9077467      0.85188352   
     10300  -4114.3154     -4145.3115      30.996079      706.31196      277.86339      9518.2723      0.90516412     0.85188352   
     10400  -4113.5909     -4146.5485      32.957559      2610.5085      295.44702      9550.2732      0.90213112     0.85188352   
     10500  -4113.4627     -4146.4619      32.999185     -518.13681      295.82017      9586.7224      0.89870117     0.85188352   
     10600  -4112.9715     -4146.4145      33.442972     -1199.6402      299.79848      9620.5655      0.89553972     0.85188352   
     10700  -4113.1699     -4146.3902      33.220266      629.95639      297.80204      9646.4141      0.89314003     0.85188352   
     10800  -4112.5878     -4145.5952      33.007425     -1078.0794      295.89403      9663.3313      0.89157645     0.85188352   
     10900  -4113.8152     -4146.9056      33.090417      777.51659      296.63801      9665.2996      0.89139488     0.85188352   
     11000  -4113.3624     -4147.5987      34.236257     -618.52198      306.90986      9652.4693      0.89257975     0.92038326   
     11100  -4114.0592     -4147.8587      33.799482     -3016.2514      302.99441      9630.9655      0.89457267     0.92038326   
     11200  -4113.4604     -4145.4466      31.986122     -829.00551      286.7386       9601.7746      0.89729232     0.92038326   
     11300  -4113.8126     -4146.0079      32.195296      2564.1435      288.61373      9577.1461      0.89959979     0.92038326   
     11400  -4113.221      -4146.2321      33.011122     -1580.5224      295.92718      9559.5489      0.90125577     0.92038326   
     11500  -4112.7967     -4145.9166      33.119917      1069.4144      296.90246      9548.8968      0.90226115     0.92038326   
     11600  -4112.8703     -4146.0175      33.147216     -212.5664       297.14719      9544.8867      0.90264021     0.92038326   
     11700  -4112.79       -4146.1477      33.357673      555.75548      299.03382      9550.5083      0.90210891     0.92038326   
     11800  -4112.4205     -4145.1329      32.712378     -2145.9409      293.24909      9563.99        0.90083727     0.92038326   
     11900  -4112.1943     -4143.534       31.339659     -191.35571      280.9434       9587.6673      0.89861259     0.92038326   
     12000  -4110.4003     -4144.5704      34.170114     -82.867793      306.31692      9615.2758      0.89603239     0.77983434   
     12100  -4110.8294     -4144.9168      34.087373     -658.41836      305.57519      9642.0507      0.89354421     0.77983434   
     12200  -4110.1855     -4145.2545      35.06906       79.192873      314.3755       9664.5416      0.89146479     0.77983434   
     12300  -4109.9465     -4143.8954      33.948852     -2851.3907      304.33343      9681.8998      0.88986653     0.77983434   
     12400  -4109.4096     -4142.3514      32.941875     -2670.7202      295.30641      9691.2313      0.8890097      0.77983434   
     12500  -4110.219      -4144.4987      34.27976      -322.30128      307.29984      9692.5831      0.88888571     0.77983434   
     12600  -4110.1244     -4144.5692      34.444771     -923.94374      308.77908      9684.436       0.88963349     0.77983434   
     12700  -4111.199      -4146.1684      34.969438      2600.6121      313.48244      9668.1954      0.89112789     0.77983434   
     12800  -4111.0433     -4144.505       33.46172       843.94047      299.96655      9644.3884      0.89332763     0.77983434   
     12900  -4112.3876     -4144.3737      31.986178     -911.46432      286.7391       9612.6747      0.89627485     0.77983434   
     13000  -4113.0356     -4146.5092      33.473623     -2332.0953      300.07325      9575.1691      0.89978553     0.85116238   
     13100  -4113.128      -4146.6888      33.560841     -337.48285      300.85511      9536.8642      0.90339952     0.85116238   
     13200  -4112.4342     -4146.8851      34.450956      430.58147      308.83452      9509.5783      0.90599165     0.85116238   
     13300  -4111.3812     -4147.0949      35.713689      2276.3079      320.15426      9500.7858      0.90683011     0.85116238   
     13400  -4112.3197     -4144.871       32.551288      2560.5679      291.80501      9513.7014      0.90559901     0.85116238   
     13500  -4111.6566     -4146.0308      34.374223      318.67927      308.14666      9548.3333      0.9023144      0.85116238   
     13600  -4111.5452     -4145.1164      33.571187      1341.341       300.94786      9595.9638      0.89783567     0.85116238   
     13700  -4110.8268     -4144.9019      34.075065     -1386.7413      305.46486      9653.3143      0.89250161     0.85116238   
     13800  -4110.9561     -4144.5417      33.585663     -2239.4414      301.07763      9710.1655      0.88727619     0.85116238   
     13900  -4109.7388     -4143.5294      33.790615     -258.91711      302.91491      9750.7122      0.88358659     0.85116238   
     14000  -4111.3987     -4144.3054      32.906668      464.18814      294.9908       9771.0899      0.88174387     0.88241779   
     14100  -4110.3915     -4144.4043      34.012809     -2772.463       304.90677      9762.572       0.88251319     0.88241779   
     14200  -4110.5018     -4144.9346      34.432872      2029.6198      308.67241      9729.35        0.88552663     0.88241779   
     14300  -4111.0369     -4144.8114      33.774477     -2165.6783      302.77025      9677.9905      0.89022598     0.88241779   
     14400  -4110.3596     -4143.7141      33.354533      2475.2377      299.00567      9610.9546      0.89643526     0.88241779   
     14500  -4111.6473     -4145.453       33.805752     -1873.1117      303.05061      9538.4688      0.90324755     0.88241779   
     14600  -4111.478      -4145.5217      34.04369      -1147.3771      305.1836       9474.3355      0.90936177     0.88241779   
     14700  -4111.6267     -4146.298       34.671308      3092.0997      310.80986      9428.4496      0.91378741     0.88241779   
     14800  -4110.3623     -4143.9552      33.592867      4364.6338      301.14221      9410.275       0.91555227     0.88241779   
     14900  -4109.7858     -4144.449       34.66316      -252.11444      310.73682      9425.876       0.91403691     0.88241779   
     15000  -4110.2403     -4143.9977      33.757446     -967.91294      302.61758      9474.5178      0.90934428     0.83076014   
     15100  -4110.5002     -4144.1946      33.694404      1300.0263      302.05244      9546.8466      0.90245491     0.83076014   
     15200  -4112.2098     -4145.5192      33.309398     -524.90101      298.60106      9630.8753      0.89458106     0.83076014   
     15300  -4111.6151     -4145.684       34.068961     -1684.6386      305.41015      9714.2783      0.88690054     0.83076014   
     15400  -4113.5945     -4146.054       32.4595       -329.71914      290.98218      9781.152       0.8808368      0.83076014   
     15500  -4113.0392     -4145.5488      32.509588     -2011.6834      291.43119      9821.7413      0.87719665     0.83076014   
     15600  -4111.8925     -4144.8808      32.988307     -1342.5479      295.72265      9832.5926      0.87622858     0.83076014   
     15700  -4111.0234     -4144.2392      33.215836      564.02355      297.76233      9809.2653      0.87831232     0.83076014   
     15800  -4111.4099     -4144.0281      32.618217     -1899.514       292.40499      9753.0216      0.88337737     0.83076014   
     15900  -4112.4209     -4144.044       31.623125      649.44493      283.48452      9672.4401      0.89073683     0.83076014   
     16000  -4113.9406     -4146.8887      32.948109     -3045.5895      295.3623       9581.9146      0.89915209     0.80828733   
     16100  -4114.7201     -4147.6602      32.940097      20.400153      295.29047      9494.3152      0.90744813     0.80828733   
     16200  -4115.0638     -4147.3611      32.297245     -73.659609      289.52765      9422.4641      0.91436789     0.80828733   
     16300  -4114.0539     -4146.8673      32.813347      2710.8504      294.15423      9373.3032      0.91916354     0.80828733   
     16400  -4114.2913     -4148.8431      34.551751      2479.456       309.73809      9356.8551      0.92077931     0.80828733   
     16500  -4114.1146     -4147.8908      33.776233      2944.6023      302.78599      9374.4784      0.91904832     0.80828733   
     16600  -4113.9277     -4146.3579      32.430212      2326.9578      290.71963      9420.703       0.91453882     0.80828733   
     16700  -4114.4867     -4147.8207      33.334017     -5.878955       298.82176      9489.3758      0.90792048     0.80828733   
     16800  -4113.5395     -4147.3117      33.772223      467.07527      302.75005      9563.2811      0.90090404     0.80828733   
     16900  -4113.7716     -4146.9062      33.134558     -1556.0034      297.03371      9632.4762      0.89443238     0.80828733   
     17000  -4112.0545     -4145.2103      33.155817     -1856.4189      297.22429      9685.7142      0.88951609     0.80671729   
     17100  -4111.4135     -4144.3224      32.908885     -1638.4522      295.01068      9720.6144      0.88632243     0.80671729   
     17200  -4112.2416     -4145.1301      32.888477      309.4246       294.82773      9731.347       0.88534492     0.80671729   
     17300  -4111.2858     -4144.4153      33.129579     -1292.8693      296.98909      9714.527       0.88687783     0.80671729   
     17400  -4111.5549     -4145.2042      33.649323     -1304.4496      301.64831      9675.714       0.89043543     0.80671729   
     17500  -4112.8172     -4145.459       32.641805      281.82084      292.61645      9622.4831      0.89536126     0.80671729   
     17600  -4111.7139     -4144.868       33.154152      879.56531      297.20937      9564.7685      0.90076394     0.80671729   
     17700  -4111.5565     -4145.9184      34.361927      800.95099      308.03643      9514.1389      0.90555737     0.80671729   
     17800  -4112.6254     -4147.5398      34.914346      1571.7259      312.98857      9480.0772      0.90881102     0.80671729   
     17900  -4111.4227     -4145.5066      34.083951     -1636.2198      305.54452      9464.309       0.91032516     0.80671729   
     18000  -4111.7836     -4145.3336      33.550072     -161.96418      300.75858      9465.8285      0.91017903     0.82027251   
     18100  -4111.5537     -4144.9013      33.347625      1937.0433      298.94375      9480.0362      0.90881494     0.82027251   
     18200  -4111.0289     -4144.2552      33.226258     -2149.7         297.85575      9510.977       0.90585842     0.82027251   
     18300  -4110.035      -4143.8845      33.849487     -2609.4804      303.44267      9552.1649      0.90195246     0.82027251   
     18400  -4110.5365     -4145.2291      34.692597      249.27715      311.0007       9600.2021      0.89743929     0.82027251   
     18500  -4111.5041     -4144.7167      33.212617     -606.96478      297.73347      9644.9434      0.89327622     0.82027251   
     18600  -4111.9915     -4145.233       33.241545     -740.79758      297.99279      9673.221       0.89066492     0.82027251   
     18700  -4112.7462     -4146.4353      33.689035     -1499.9173      302.00431      9678.4637      0.89018246     0.82027251   
     18800  -4110.7609     -4143.9882      33.227306     -64.004549      297.86515      9663.3432      0.89157535     0.82027251   
     18900  -4110.2226     -4144.3874      34.164817      1315.3668      306.26944      9634.529       0.89424181     0.82027251   
     19000  -4110.4677     -4143.4665      32.998791      2181.0186      295.81663      9598.0842      0.89763732     0.89996786   
     19100  -4111.1424     -4144.9945      33.852115     -598.28814      303.46623      9560.9997      0.90111901     0.89996786   
     19200  -4111.5585     -4146.2366      34.678064      1043.4122      310.87043      9525.1046      0.90451485     0.89996786   
     19300  -4111.5096     -4145.889       34.379415      1139.5244      308.1932       9495.9249      0.90729431     0.89996786   
     19400  -4110.5386     -4145.2427      34.704103      1328.7061      311.10385      9481.8634      0.90863981     0.89996786   
     19500  -4111.6009     -4145.9708      34.369902      1255.6046      308.10792      9488.9499      0.90796123     0.89996786   
     19600  -4112.3107     -4145.3905      33.079792     -3428.1486      296.54277      9509.1739      0.90603019     0.89996786   
     19700  -4114.4126     -4146.2229      31.810262      1204.4444      285.16211      9529.4696      0.90410054     0.89996786   
     19800  -4113.1466     -4146.0665      32.919924      103.36548      295.10963      9543.9967      0.90272439     0.89996786   
     19900  -4114.4205     -4148.4794      34.058883     -300.13242      305.3198       9555.8319      0.90160634     0.89996786   
     20000  -4112.7781     -4146.3446      33.566464     -612.98944      300.90553      9561.4         0.90108129     0.83395688   
     20100  -4112.1589     -4145.2616      33.102734      1811.5296      296.74843      9565.7757      0.9006691      0.83395688   
     20200  -4111.8279     -4147.4594      35.631446     -81.162473      319.41699      9568.9192      0.90037322     0.83395688   
     20300  -4111.2294     -4145.4433      34.213918      768.25092      306.7096       9568.815       0.90038303     0.83395688   
     20400  -4109.7541     -4144.6381      34.884092     -94.807891      312.71736      9568.808       0.90038368     0.83395688   
     20500  -4109.7323     -4144.7438      35.011549      1242.121       313.85994      9574.0235      0.8998932      0.83395688   
     20600  -4109.9153     -4144.579       34.663718      2273.0194      310.74182      9580.2826      0.89930526     0.83395688   
     20700  -4111.0826     -4145.3269      34.244288     -1893.6425      306.98186      9584.6472      0.89889574     0.83395688   
     20800  -4111.3288     -4144.901       33.572138     -1670.6158      300.95639      9584.4953      0.89890999     0.83395688   
     20900  -4113.0081     -4145.7602      32.752069     -992.25131      293.60491      9580.3873      0.89929544     0.83395688   
     21000  -4112.4747     -4147.0592      34.584576      1893.692       310.03235      9572.7332      0.90001449     0.83898967   
     21100  -4112.9835     -4146.5752      33.59169       4352.6858      301.13166      9560.8269      0.9011353      0.83898967   
     21200  -4113.7643     -4147.7084      33.944175      622.16835      304.29151      9546.8404      0.9024555      0.83898967   
     21300  -4114.9143     -4147.6078      32.693538     -1670.1897      293.08021      9530.9209      0.90396287     0.83898967   
     21400  -4114.9178     -4146.3929      31.475117      550.02644      282.15771      9511.703       0.90578928     0.83898967   
     21500  -4114.6178     -4146.3628      31.74497       341.26942      284.57679      9492.7323      0.90759945     0.83898967   
     21600  -4114.122      -4147.0047      32.882736      34.022287      294.77626      9480.5875      0.90876209     0.83898967   
     21700  -4113.1822     -4147.0067      33.824555      2428.6848      303.21917      9482.8822      0.90854219     0.83898967   
     21800  -4113.6001     -4146.5319      32.931794     -2551.005       295.21604      9501.3829      0.90677312     0.83898967   
     21900  -4114.2237     -4147.6         33.376374      1380.1792      299.20146      9531.6624      0.90389255     0.83898967   
     22000  -4112.4523     -4146.2131      33.760811     -1003.2749      302.64774      9568.4765      0.90041488     0.85873258   
     22100  -4113.1181     -4145.5888      32.470702     -2113.1745      291.08259      9610.0111      0.89652327     0.85873258   
     22200  -4112.2799     -4145.8701      33.590214     -356.70695      301.11843      9649.5238      0.8928522      0.85873258   
     22300  -4113.1864     -4146.2047      33.018313     -660.46658      295.99164      9675.5637      0.89044927     0.85873258   
     22400  -4113.3549     -4146.5564      33.201482     -1396.791       297.63365      9686.8309      0.88941355     0.85873258   
     22500  -4113.3301     -4145.3504      32.020318     -2551.5206      287.04514      9673.9749      0.89059551     0.85873258   
     22600  -4112.8637     -4146.7939      33.930154      2023.178       304.16581      9635.8892      0.89411557     0.85873258   
     22700  -4113.6832     -4146.3566      32.67338      -1374.166       292.8995       9583.1529      0.89903591     0.85873258   
     22800  -4112.6199     -4146.5429      33.923023      1036.339       304.10188      9527.2645      0.90430979     0.85873258   
     22900  -4112.8586     -4146.8839      34.025237      2541.2675      305.01818      9480.2812      0.90879146     0.85873258   
     23000  -4113.8598     -4148.1206      34.260821     -1789.3957      307.13007      9450.5146      0.91165391     0.83639219   
     23100  -4112.6555     -4146.8037      34.148155      2797.795       306.12007      9439.6777      0.91270051     0.83639219   
     23200  -4113.5816     -4146.4902      32.90861       3326.9445      295.00821      9452.2421      0.9114873      0.83639219   
     23300  -4112.6482     -4145.0567      32.408475     -2277.2757      290.52477      9478.8348      0.90893014     0.83639219   
     23400  -4113.8174     -4145.2728      31.455384      74.736279      281.98081      9515.8301      0.90539643     0.83639219   
     23500  -4113.7173     -4146.4897      32.772384      1477.5415      293.78701      9557.7519      0.90142522     0.83639219   
     23600  -4112.5007     -4146.2451      33.744407      860.81484      302.50068      9602.1987      0.89725269     0.83639219   
     23700  -4113.2836     -4146.5796      33.296003     -1490.4211      298.48098      9639.6906      0.89376298     0.83639219   
     23800  -4113.6316     -4145.0908      31.459147     -2809.422       282.01455      9665.2226      0.89140199     0.83639219   
     23900  -4113.3679     -4146.2273      32.859393     -2043.3002      294.567        9673.4913      0.89064003     0.83639219   
     24000  -4113.4383     -4145.9712      32.5329       -2617.5096      291.64017      9662.7931      0.89162611     0.95694394   
     24100  -4113.1984     -4147.0184      33.819986     -2596.4329      303.17821      9637.6657      0.89395076     0.95694394   
     24200  -4112.4902     -4145.4556      32.965376     -1183.3444      295.51709      9605.9269      0.89690445     0.95694394   
     24300  -4111.5251     -4144.1804      32.655317     -99.399395      292.73757      9576.0749      0.89970042     0.95694394   
     24400  -4111.8337     -4145.5335      33.699767     -235.2009       302.10051      9547.5021      0.90239295     0.95694394   
     24500  -4113.0441     -4146.3911      33.346946     -1421.611       298.93766      9524.633       0.90455964     0.95694394   
     24600  -4113.0808     -4147.5757      34.494857     -335.88659      309.22808      9511.3069      0.905827       0.95694394   
     24700  -4111.3279     -4146.4812      35.153298      3684.4597      315.13065      9509.782       0.90597225     0.95694394   
     24800  -4110.7723     -4144.3903      33.618039      1886.0024      301.36787      9518.1442      0.9051763      0.95694394   
     24900  -4110.0671     -4143.7657      33.698595     -1331.574       302.09         9540.2925      0.90307489     0.95694394   
     25000  -4109.1346     -4144.4018      35.267216     -625.06581      316.15186      9576.2943      0.8996798      0.8425023    
     25100  -4109.1674     -4142.8139      33.646521      2053.1541      301.62319      9618.8418      0.8957002      0.8425023    
     25200  -4109.7255     -4143.8079      34.082349      888.93515      305.53015      9662.1894      0.89168182     0.8425023    
     25300  -4109.3907     -4143.9908      34.600036     -556.66649      310.17095      9695.7765      0.88859294     0.8425023    
     25400  -4109.3809     -4144.1207      34.739814     -1941.9063      311.42398      9715.0001      0.88683463     0.8425023    
     25500  -4110.8266     -4143.513       32.686437      114.9049       293.01655      9717.6805      0.88659002     0.8425023    
     25600  -4110.2926     -4143.4775      33.184914     -1719.9611      297.48513      9704.6975      0.88777611     0.8425023    
     25700  -4110.6031     -4143.5117      32.908604      938.61467      295.00815      9674.035       0.89058997     0.8425023    
     25800  -4111.3637     -4145.1643      33.800633     -3596.4837      303.00473      9635.0324      0.89419509     0.8425023    
     25900  -4111.3213     -4144.771       33.449705     -399.99629      299.85884      9593.3073      0.89808429     0.8425023    
     26000  -4110.9549     -4144.559       33.604109      2122.1343      301.24299      9551.7467      0.90199195     0.87785851   
     26100  -4111.1117     -4144.9993      33.887574      379.10496      303.78411      9516.9027      0.90529438     0.87785851   
     26200  -4111.5502     -4145.0081      33.457839      2559.1196      299.93176      9496.9984      0.90719175     0.87785851   
     26300  -4111.3613     -4145.655       34.293672      2733.5836      307.42456      9492.7524      0.90759753     0.87785851   
     26400  -4112.4632     -4145.4067      32.943465     -303.30137      295.32066      9501.9466      0.90671932     0.87785851   
     26500  -4111.9079     -4145.4808      33.572904      3698.8445      300.96325      9522.6744      0.90474569     0.87785851   
     26600  -4113.036      -4145.825       32.789022     -2160.726       293.93617      9554.1349      0.90176648     0.87785851   
     26700  -4111.7633     -4145.254       33.490719      2042.9534      300.22651      9592.1231      0.89819517     0.87785851   
     26800  -4111.369      -4144.9537      33.584713     -350.77944      301.06911      9631.7032      0.89450416     0.87785851   
     26900  -4110.7357     -4144.0388      33.303108      1983.2367      298.54468      9670.5505      0.89091087     0.87785851   
     27000  -4111.3477     -4144.8111      33.46341      -4435.891       299.9817       9702.3665      0.8879894      0.80360888   
     27100  -4111.8465     -4144.8078      32.96124      -331.45369      295.48001      9717.1078      0.88664228     0.80360888   
     27200  -4112.4507     -4145.1987      32.748025      2197.5575      293.56865      9711.5185      0.88715257     0.80360888   
     27300  -4113.0713     -4145.1675      32.096151     -534.86669      287.72495      9689.909       0.88913101     0.80360888   
     27400  -4113.6626     -4146.3317      32.669113      689.98311      292.86125      9656.9155      0.89216878     0.80360888   
     27500  -4113.8617     -4146.702       32.840356     -611.74915      294.39635      9611.2543      0.8964073      0.80360888   
     27600  -4112.3772     -4146.059       33.681815     -965.99222      301.93958      9561.1677      0.90110318     0.80360888   
     27700  -4112.4864     -4145.3817      32.89529       1010.1547      294.8888       9524.3547      0.90458607     0.80360888   
     27800  -4112.1708     -4145.5267      33.355874      3593.3659      299.01769      9502.5562      0.90666115     0.80360888   
     27900  -4111.3065     -4144.856       33.549412     -84.874768      300.75266      9495.1578      0.90736761     0.80360888   
     28000  -4111.6808     -4144.6269      32.9461       -1902.8316      295.34429      9503.5517      0.90656618     0.78460671   
     28100  -4111.7804     -4143.806       32.025658      1893.8001      287.09301      9531.6398      0.90389469     0.78460671   
     28200  -4112.7994     -4146.5088      33.709339     -27.059184      302.18632      9577.9689      0.8995225      0.78460671   
     28300  -4113.8433     -4145.7917      31.948406     -1501.9617      286.40049      9631.1508      0.89455547     0.78460671   
     28400  -4113.0478     -4146.3428      33.295052     -1242.8973      298.47246      9679.8135      0.89005833     0.78460671   
     28500  -4112.2967     -4145.7102      33.41354      -382.44546      299.53464      9714.1298      0.88691409     0.78460671   
     28600  -4112.1281     -4145.2655      33.137404     -3030.6096      297.05923      9727.532       0.88569214     0.78460671   
     28700  -4110.7848     -4144.7497      33.96489      -837.91144      304.4772       9718.8798      0.88648062     0.78460671   
     28800  -4112.0351     -4145.141       33.105883     -649.49835      296.77666      9695.6043      0.88860873     0.78460671   
     28900  -4111.3738     -4145.2728      33.898953     -772.42587      303.88611      9659.213       0.89195658     0.78460671   
     29000  -4112.4454     -4144.9115      32.466074     -2437.334       291.04111      9613.1599      0.89622961     0.89102212   
     29100  -4112.75       -4145.5485      32.798484      2763.5097      294.02099      9563.3437      0.90089815     0.89102212   
     29200  -4112.3713     -4145.8249      33.453558     -538.51517      299.89338      9521.906       0.9048187      0.89102212   
     29300  -4112.3068     -4145.4361      33.129296      2768.2536      296.98654      9497.1146      0.90718065     0.89102212   
     29400  -4111.6856     -4144.2168      32.531165      1980.4592      291.62462      9490.5155      0.90781145     0.89102212   
     29500  -4112.1859     -4146.0205      33.834601      68.583615      303.30923      9498.6984      0.90702938     0.89102212   
     29600  -4111.519      -4146.0397      34.520737      2315.4923      309.46008      9521.0685      0.90489829     0.89102212   
     29700  -4111.9129     -4144.9242      33.01138      -1874.2784      295.92949      9555.293       0.90165719     0.89102212   
     29800  -4112.1546     -4145.6175      33.462936      838.75614      299.97745      9595.8247      0.89784868     0.89102212   
     29900  -4111.9855     -4147.1631      35.177672      1928.3435      315.34915      9636.8475      0.89402666     0.89102212   
     30000  -4112.9518     -4145.6838      32.731951      582.32042      293.42456      9674.3706      0.89055908     0.8500669    
     30100  -4113.0385     -4146.6167      33.57815      -2669.4447      301.01028      9701.7998      0.88804126     0.8500669    
     30200  -4111.4594     -4145.0582      33.598821     -1888.9682      301.19559      9709.8641      0.88730373     0.8500669    
     30300  -4111.146      -4145.3386      34.192612     -1503.665       306.51861      9700.5073      0.88815959     0.8500669    
     30400  -4111.3254     -4145.1517      33.826289      51.242168      303.23471      9672.7928      0.89070435     0.8500669    
     30500  -4111.7165     -4145.9145      34.197942      45.23435       306.56638      9636.2847      0.89407888     0.8500669    
     30600  -4112.2566     -4144.6027      32.346072     -1058.3062      289.96535      9595.8716      0.8978443      0.8500669    
     30700  -4112.6697     -4146.2821      33.612392     -187.36347      301.31724      9559.0737      0.90130057     0.8500669    
     30800  -4113.4413     -4146.5512      33.109822      1252.1989      296.81197      9530.8137      0.90397304     0.8500669    
     30900  -4113.3485     -4146.3858      33.037254      289.97585      296.16144      9514.8175      0.90549278     0.8500669    
     31000  -4113.4374     -4147.1683      33.730919      359.44141      302.37978      9512.9907      0.90566667     0.80871862   
     31100  -4112.9793     -4145.8833      32.903989      1721.4602      294.96679      9521.7685      0.90483177     0.80871862   
     31200  -4114.3178     -4146.8616      32.543845     -812.69665      291.73829      9543.8231      0.90274081     0.80871862   
     31300  -4112.9506     -4146.2643      33.313738     -749.79251      298.63997      9573.7188      0.89992183     0.80871862   
     31400  -4113.124      -4145.8246      32.700671     -1684.9776      293.14415      9606.8564      0.89681767     0.80871862   
     31500  -4111.9849     -4145.7871      33.802154     -1007.4086      303.01836      9631.1702      0.89455366     0.80871862   
     31600  -4112.0594     -4146.404       34.344661      2432.71        307.88164      9648.7618      0.89292271     0.80871862   
     31700  -4112.1561     -4145.2627      33.10655       329.96652      296.78264      9663.7799      0.89153506     0.80871862   
     31800  -4112.5258     -4146.4055      33.879689     -975.70709      303.71342      9678.4985      0.89017926     0.80871862   
     31900  -4113.8331     -4146.0928      32.259671     -247.71898      289.19081      9682.2677      0.88983272     0.80871862   
     32000  -4113.9733     -4146.3534      32.380039      403.38292      290.26985      9672.0119      0.89077626     0.91270316   
     32100  -4112.4371     -4145.6638      33.226782      2307.8002      297.86045      9649.8632      0.8928208      0.91270316   
     32200  -4113.1286     -4147.1719      34.043326     -938.64353      305.18034      9623.547       0.89526228     0.91270316   
     32300  -4111.6862     -4145.7887      34.102469      1411.3357      305.71052      9592.7972      0.89813204     0.91270316   
     32400  -4111.0311     -4146.2839      35.252821     -1.0671665      316.02282      9564.3895      0.90079964     0.91270316   
     32500  -4110.5441     -4145.892       35.347807      1958.5888      316.87432      9545.586       0.90257409     0.91270316   
     32600  -4110.5237     -4144.4111      33.887398     -2073.2484      303.78253      9536.9266      0.90339362     0.91270316   
     32700  -4110.4439     -4145.7733      35.329421      980.75067      316.7095       9542.474       0.90286844     0.91270316   
     32800  -4112.071      -4145.597       33.526004      595.13191      300.54282      9557.5057      0.90144844     0.91270316   
     32900  -4112.4754     -4145.4593      32.983882     -1570.3034      295.68298      9580.0955      0.89932283     0.91270316   
     33000  -4111.5811     -4146.067       34.485835     -172.76864      309.14719      9603.9185      0.89709201     0.76144076   
     33100  -4112.6226     -4145.9582      33.335567     -2284.0535      298.83565      9625.579       0.89507328     0.76144076   
     33200  -4111.6116     -4144.9543      33.342653     -1433.8389      298.89917      9640.0018      0.89373412     0.76144076   
     33300  -4111.5775     -4145.7538      34.176364      1032.3054      306.37295      9643.2719      0.89343105     0.76144076   
     33400  -4111.9049     -4146.5712      34.666304      892.07635      310.76501      9637.8735      0.89393149     0.76144076   
     33500  -4112.1115     -4146.0126      33.901085      1045.1183      303.90522      9627.381       0.89490574     0.76144076   
     33600  -4112.3379     -4144.2556      31.917732      2133.2194      286.12551      9608.7596      0.89664004     0.76144076   
     33700  -4112.0343     -4144.931       32.89668      -1534.6782      294.90126      9586.3101      0.89873982     0.76144076   
     33800  -4111.2615     -4146.4951      35.233595      17.974143      315.85046      9564.9758      0.90074442     0.76144076   
     33900  -4112.2397     -4145.515       33.275329      3060.6078      298.29565      9550.1769      0.9021402      0.76144076   
     34000  -4111.6767     -4144.2715      32.594837      819.21371      292.1954       9547.742       0.90237027     0.83643747   
     34100  -4112.2563     -4146.4737      34.217452      1971.3196      306.74128      9554.4859      0.90173335     0.83643747   
     34200  -4112.4073     -4145.6411      33.233762     -1451.4433      297.92302      9569.9307      0.90027805     0.83643747   
     34300  -4111.5547     -4144.6688      33.114103      2246.4946      296.85035      9593.499       0.89806635     0.83643747   
     34400  -4111.4974     -4143.4179      31.920534     -2705.6033      286.15063      9622.6868      0.89534231     0.83643747   
     34500  -4111.7215     -4145.2696      33.548157      180.823        300.74141      9651.0411      0.89271183     0.83643747   
     34600  -4111.405      -4144.9299      33.52488       1227.6122      300.53274      9672.4014      0.89074039     0.83643747   
     34700  -4111.3713     -4145.0828      33.711497     -3485.2719      302.20567      9691.3131      0.8890022      0.83643747   
     34800  -4110.7228     -4144.8818      34.15903      -1009.6169      306.21756      9700.0642      0.88820016     0.83643747   
     34900  -4111.4376     -4145.0314      33.593819     -1102.1489      301.15075      9698.9962      0.88829797     0.83643747   
     35000  -4112.4405     -4145.0287      32.588183     -315.34618      292.13575      9687.2757      0.8893727      0.82166024   
     35100  -4112.2128     -4144.8922      32.679458      219.00506      292.95398      9660.7549      0.89181422     0.82166024   
     35200  -4112.4089     -4145.8462      33.437254     -594.18694      299.74723      9624.0422      0.89521621     0.82166024   
     35300  -4114.1604     -4145.9258      31.765446     -1128.4         284.76036      9581.5341      0.8991878      0.82166024   
     35400  -4112.8132     -4146.5881      33.774873      1704.3989      302.7738       9540.4557      0.90305944     0.82166024   
     35500  -4112.898      -4145.6455      32.747518     -1438.6996      293.56411      9512.475       0.90571576     0.82166024   
     35600  -4111.9359     -4145.009       33.073048      2267.5588      296.48231      9502.1895      0.90669614     0.82166024   
     35700  -4111.7189     -4144.9899      33.271         1082.1237      298.25684      9504.0318      0.90652039     0.82166024   
     35800  -4112.348      -4146.5289      34.180908      3524.6913      306.41369      9516.7156      0.90531218     0.82166024   
     35900  -4112.2177     -4146.3518      34.13408      -2331.3304      305.9939       9539.2196      0.90317646     0.82166024   
     36000  -4112.0269     -4145.8628      33.835946      2204.1477      303.32129      9572.064       0.90007741     0.83635332   
     36100  -4112.1793     -4145.914       33.734692     -1302.7317      302.4136       9608.5597      0.89665869     0.83635332   
     36200  -4111.0424     -4145.6285      34.586112     -1096.0176      310.04612      9643.523       0.8934078      0.83635332   
     36300  -4109.7435     -4144.4504      34.706921     -1964.0012      311.12912      9673.1125      0.89067491     0.83635332   
     36400  -4108.8223     -4142.8084      33.986106      616.00524      304.66739      9688.4468      0.8892652      0.83635332   
     36500  -4110.5146     -4144.2681      33.753563     -2883.1606      302.58277      9689.4644      0.88917181     0.83635332   
     36600  -4111.2872     -4145.6946      34.407433     -879.3836       308.44437      9680.1158      0.89003053     0.83635332   
     36700  -4109.7799     -4143.7051      33.925254     -230.1874       304.12188      9661.6561      0.89173104     0.83635332   
     36800  -4109.4        -4143.9156      34.515631     -384.17604      309.4143       9642.1441      0.89353556     0.83635332   
     36900  -4109.2559     -4143.7082      34.452312     -65.858225      308.84668      9620.8243      0.89551563     0.83635332   
     37000  -4108.7944     -4143.5649      34.770501      1528.1879      311.69908      9603.0207      0.89717588     0.91544859   
     37100  -4110.4427     -4145.3604      34.917691     -283.80117      313.01856      9591.7024      0.89823456     0.91544859   
     37200  -4112.1114     -4145.8117      33.700302     -2553.4424      302.10531      9585.814       0.89878633     0.91544859   
     37300  -4110.5801     -4145.035       34.454892     -1308.2581      308.8698       9586.4184      0.89872966     0.91544859   
     37400  -4110.7544     -4144.4375      33.683125      775.41959      301.95133      9594.1638      0.89800412     0.91544859   
     37500  -4112.1718     -4145.092       32.920218      717.59093      295.11227      9604.9525      0.89699544     0.91544859   
     37600  -4111.347      -4144.8312      33.48424       267.5068       300.16843      9616.8285      0.89588772     0.91544859   
     37700  -4113.0535     -4145.9962      32.942759     -1883.1818      295.31434      9623.6533      0.89525239     0.91544859   
     37800  -4113.4022     -4146.3471      32.944912     -907.46648      295.33364      9623.9352      0.89522616     0.91544859   
     37900  -4113.1996     -4146.3281      33.128488     -752.27103      296.9793       9619.6311      0.89562671     0.91544859   
     38000  -4113.6182     -4146.213       32.594886      513.15518      292.19584      9613.9498      0.89615598     0.79443721   
     38100  -4112.2771     -4145.7238      33.446683     -1281.0819      299.83175      9608.7004      0.89664556     0.79443721   
     38200  -4114.0173     -4145.6817      31.664345     -3602.0593      283.85404      9606.2809      0.8968714      0.79443721   
     38300  -4112.6898     -4145.4673      32.777478     -93.542117      293.83268      9604.7183      0.89701731     0.79443721   
     38400  -4111.8847     -4145.2935      33.408817     -835.02211      299.4923       9603.2162      0.89715762     0.79443721   
     38500  -4110.8244     -4145.3803      34.555915     -735.18139      309.77543      9604.3927      0.89704772     0.79443721   
     38600  -4109.7148     -4145.6201      35.905337      1463.8416      321.87227      9614.0689      0.89614488     0.79443721   
     38700  -4109.2495     -4144.7544      35.504989      3364.9184      318.28337      9630.0688      0.89465597     0.79443721   
     38800  -4111.8078     -4145.9977      34.189919      1600.7383      306.49446      9648.4647      0.89295021     0.79443721   
     38900  -4111.3731     -4145.3142      33.941071     -525.41822      304.26368      9659.1066      0.8919664      0.79443721   
     39000  -4112.1184     -4144.7515      32.63318      -1279.0554      292.53913      9661.7431      0.89172301     0.83623805   
     39100  -4111.9199     -4144.3813      32.461436     -438.02377      290.99953      9654.5089      0.89239118     0.83623805   
     39200  -4111.2017     -4145.4591      34.257462     -2256.3709      307.09995      9636.2681      0.89408042     0.83623805   
     39300  -4111.7367     -4145.9265      34.18983      -940.45678      306.49367      9611.2577      0.89640699     0.83623805   
     39400  -4111.3391     -4145.0879      33.748767     -1032.4852      302.53978      9586.0761      0.89876175     0.83623805   
     39500  -4112.4573     -4146.7996      34.342285      1937.023       307.86035      9566.1612      0.9006328      0.83623805   
     39600  -4112.6929     -4146.2379      33.545004     -1241.7007      300.71314      9549.6035      0.90219438     0.83623805   
     39700  -4114.558      -4145.303       30.745032     -1114.9542      275.61289      9540.8029      0.90302657     0.83623805   
     39800  -4113.8462     -4146.2409      32.394746      2790.7405      290.40169      9533.5906      0.90370973     0.83623805   
     39900  -4112.7947     -4145.5307      32.736019      704.03889      293.46103      9528.6845      0.90417503     0.83623805   
     40000  -4112.0321     -4145.5493      33.517185     -2792.8284      300.46376      9530.0472      0.90404575     0.85151648   
     40100  -4112.239      -4146.8685      34.629539      1713.5069      310.43542      9539.6977      0.90313119     0.85151648   
     40200  -4111.1832     -4145.389       34.205886      1576.0729      306.6376       9562.8733      0.90094246     0.85151648   
     40300  -4111.0084     -4144.8575      33.849014     -460.67436      303.43844      9598.3377      0.89761361     0.85151648   
     40400  -4111.0398     -4144.2821      33.242364     -1372.7132      298.00014      9639.0439      0.89382294     0.85151648   
     40500  -4108.9495     -4144.0782      35.128735      795.59395      314.91045      9675.5068      0.8904545      0.85151648   
     40600  -4109.8607     -4144.2986      34.43788      -1825.3208      308.7173       9702.1327      0.8880108      0.85151648   
     40700  -4110.8991     -4144.8601      33.960976     -1414.9864      304.44211      9712.8373      0.88703211     0.85151648   
     40800  -4110.8302     -4144.8359      34.005747      1619.5275      304.84346      9707.0481      0.88756113     0.85151648   
     40900  -4110.089      -4143.7676      33.678585      2176.0431      301.91063      9689.1748      0.88919838     0.85151648   
     41000  -4110.4803     -4143.6456      33.165272     -1052.906       297.30905      9661.5402      0.89174173     0.80583372   
     41100  -4111.6252     -4145.2029      33.57768      -885.92398      301.00607      9621.4881      0.89545386     0.80583372   
     41200  -4112.8751     -4145.9526      33.077442      3354.8363      296.5217       9572.2918      0.90005599     0.80583372   
     41300  -4112.5508     -4146.7315      34.180711      1513.6633      306.41192      9522.4703      0.90476508     0.80583372   
     41400  -4112.0439     -4145.151       33.107065     -464.57256      296.78726      9480.3165      0.90878807     0.80583372   
     41500  -4111.9283     -4146.0472      34.118916      1746.88        305.85796      9455.1762      0.91120445     0.80583372   
     41600  -4112.5102     -4146.3078      33.797623     -162.55479      302.97774      9454.0701      0.91131105     0.80583372   
     41700  -4112.8581     -4145.7495      32.891409      1939.7027      294.85402      9474.3766      0.90935783     0.80583372   
     41800  -4111.9417     -4145.0638      33.122117      2164.5391      296.92218      9505.6796      0.90636325     0.80583372   
     41900  -4111.1904     -4145.3926      34.202228      1599.0515      306.60481      9545.7356      0.90255994     0.80583372   
     42000  -4111.8047     -4145.9214      34.116693      3167.736       305.83803      9591.9788      0.89820868     0.85069505   
     42100  -4112.3889     -4145.8409      33.452         1723.1626      299.87941      9636.796       0.89403144     0.85069505   
     42200  -4111.9172     -4144.9299      33.012637     -555.81129      295.94076      9668.7657      0.89107533     0.85069505   
     42300  -4112.2237     -4144.9591      32.735393     -3138.7406      293.45542      9682.0874      0.88984929     0.85069505   
     42400  -4112.1729     -4145.5117      33.33882      -2192.7859      298.86481      9676.9183      0.89032462     0.85069505   
     42500  -4112.0316     -4145.3683      33.336711     -716.53731      298.84591      9655.7024      0.89228087     0.85069505   
     42600  -4112.3768     -4144.805       32.428266      2179.5773      290.70218      9620.228       0.89557115     0.85069505   
     42700  -4112.2708     -4144.9942      32.723458     -447.43856      293.34842      9579.971       0.89933451     0.85069505   
     42800  -4111.3197     -4144.9234      33.603713     -1251.8884      301.23944      9540.0981      0.90309329     0.85069505   
     42900  -4110.2919     -4144.9291      34.637172      1759.4727      310.50385      9505.8315      0.90634876     0.85069505   
     43000  -4109.6399     -4144.0355      34.395642      2881.8581      308.33866      9489.059       0.90795079     0.81582088   
     43100  -4111.0512     -4144.9422      33.890972      1822.4454      303.81456      9495.4319      0.90734141     0.81582088   
     43200  -4111.8385     -4144.5909      32.752437     -537.10178      293.6082       9514.2021      0.90555136     0.81582088   
     43300  -4113.0698     -4146.2617      33.191992      1499.943       297.54858      9543.6634      0.90275592     0.81582088   
     43400  -4112.6771     -4145.7521      33.07508      -3465.2499      296.50053      9577.5052      0.89956605     0.81582088   
     43500  -4113.1983     -4145.2534      32.055129     -887.8914       287.3572       9611.6632      0.89636918     0.81582088   
     43600  -4111.0555     -4145.4261      34.370634      2529.6402      308.11448      9642.9069      0.89346487     0.81582088   
     43700  -4110.9082     -4144.881       33.972815      129.28044      304.54825      9671.3293      0.89083913     0.81582088   
     43800  -4111.3099     -4144.5413      33.231388     -1427.5585      297.90174      9691.2143      0.88901126     0.81582088   
     43900  -4110.6474     -4144.7634      34.116002     -1861.3102      305.83184      9700.6514      0.88814639     0.81582088   
     44000  -4109.8294     -4144.4328      34.60343      -794.68183      310.20137      9696.6554      0.8885124      0.87158638   
     44100  -4111.4553     -4144.8237      33.368375      236.55465      299.12976      9683.1756      0.88974929     0.87158638   
     44200  -4110.3811     -4145.4124      35.031339     -204.7407       314.03735      9661.5312      0.89174256     0.87158638   
     44300  -4111.3439     -4146.2018      34.857913     -1324.3572      312.48268      9633.6878      0.89431989     0.87158638   
     44400  -4110.7614     -4144.3078      33.546346      1469.36        300.72518      9603.1579      0.89716306     0.87158638   
     44500  -4111.1042     -4144.8034      33.699217      552.03848      302.09559      9573.0013      0.89998929     0.87158638   
     44600  -4111.3759     -4144.8539      33.477956      408.02076      300.11209      9544.7227      0.90265572     0.87158638   
     44700  -4111.2409     -4145.349       34.108056      131.44236      305.76061      9522.8105      0.90473276     0.87158638   
     44800  -4111.7477     -4146.2287      34.480954     -1977.4474      309.10344      9513.8408      0.90558574     0.87158638   
     44900  -4110.5358     -4144.9322      34.396318      776.50429      308.34473      9518.1044      0.90518009     0.87158638   
     45000  -4110.5427     -4144.6467      34.104054      1685.0749      305.72474      9534.7287      0.90360186     0.73609581   
     45100  -4110.922      -4144.4886      33.56661       807.54039      300.90683      9556.5708      0.90153662     0.73609581   
     45200  -4110.5286     -4143.0378      32.509275      579.54855      291.42839      9584.2652      0.89893157     0.73609581   
     45300  -4112.6611     -4146.3241      33.663056     -1956.8504      301.77142      9619.6739      0.89562273     0.73609581   
     45400  -4114.1423     -4146.0938      31.951459      283.4746       286.42786      9656.0151      0.89225198     0.73609581   
     45500  -4113.95       -4147.3646      33.41466      -2345.0076      299.54468      9688.6425      0.88924723     0.73609581   
     45600  -4113.8693     -4146.1532      32.283902     -1611.2101      289.40804      9703.4543      0.88788985     0.73609581   
     45700  -4113.4464     -4144.9687      31.522311      1268.2545      282.58078      9695.0192      0.88866235     0.73609581   
     45800  -4113.2069     -4146.4157      33.208788      310.12352      297.69914      9664.4862      0.89146991     0.73609581   
     45900  -4113.6601     -4147.2555      33.595462      2200.3494      301.16548      9614.5211      0.89610272     0.73609581   
     46000  -4114.164      -4147.5495      33.385479     -1641.3188      299.28309      9553.852       0.90179318     0.91125812   
     46100  -4113.3809     -4146.5445      33.163604      1145.0029      297.2941       9493.4461      0.90753121     0.91125812   
     46200  -4112.0003     -4146.6077      34.607399     -977.50996      310.23695      9445.0855      0.91217794     0.91125812   
     46300  -4111.4836     -4145.2186      33.735012      856.99653      302.41647      9416.1367      0.91498232     0.91125812   
     46400  -4111.82       -4145.5139      33.693945     -334.43244      302.04832      9415.3909      0.91505479     0.91125812   
     46500  -4113.2962     -4146.3305      33.034274      3222.6703      296.13473      9444.317       0.91225216     0.91125812   
     46600  -4112.0252     -4146.3271      34.301933     -689.8847       307.49862      9496.4682      0.9072424      0.91125812   
     46700  -4112.8126     -4147.5791      34.76646       2198.7125      311.66285      9565.3029      0.90071362     0.91125812   
     46800  -4112.9153     -4144.7355      31.820204     -1799.649       285.25123      9637.5308      0.89396328     0.91125812   
     46900  -4112.4467     -4144.709       32.262247     -673.06947      289.21391      9703.2396      0.8879095      0.91125812   
     47000  -4112.0795     -4145.4436      33.364042     -2308.591       299.09092      9746.629       0.88395676     0.90540856   
     47100  -4113.6594     -4146.2324      32.572974     -2223.1791      291.99942      9759.8036      0.88276352     0.90540856   
     47200  -4112.6527     -4145.0811      32.428366     -240.73056      290.70308      9746.333       0.8839836      0.90540856   
     47300  -4112.2505     -4145.64        33.389493     -4038.9059      299.31907      9713.1908      0.88699983     0.90540856   
     47400  -4112.3004     -4145.122       32.821642     -1888.2758      294.22859      9661.588       0.89173732     0.90540856   
     47500  -4111.43       -4144.0687      32.638723      1650.9255      292.58882      9603.4669      0.8971342      0.90540856   
     47600  -4111.031      -4144.7753      33.744301     -817.48826      302.49973      9547.9624      0.90234944     0.90540856   
     47700  -4109.0318     -4142.8501      33.818325      2233.9189      303.16332      9499.409       0.90696154     0.90540856   
     47800  -4108.8793     -4142.7216      33.84228       3512.1746      303.37806      9471.2674      0.90965635     0.90540856   
     47900  -4110.3888     -4145.1146      34.725791      2223.0857      311.29827      9467.4131      0.91002668     0.90540856   
     48000  -4110.4316     -4144.7535      34.321972      501.74861      307.67825      9485.8769      0.90825536     0.79465992   
     48100  -4109.7839     -4143.7001      33.916178      192.55906      304.04053      9525.5354      0.90447394     0.79465992   
     48200  -4111.4965     -4145.0143      33.517878     -1240.4438      300.46998      9580.6378      0.89927192     0.79465992   
     48300  -4111.4062     -4144.3836      32.977353     -426.57875      295.62446      9636.0073      0.89410461     0.79465992   
     48400  -4110.7941     -4144.0863      33.292178     -1097.3108      298.4467       9682.682       0.88979465     0.79465992   
     48500  -4113.1395     -4145.9382      32.798784     -1131.0283      294.02368      9713.9874      0.88692709     0.79465992   
     48600  -4113.4602     -4146.4483      32.988013      1407.955       295.72002      9723.1326      0.88609288     0.79465992   
     48700  -4112.4273     -4146.361       33.933671     -211.06596      304.19734      9715.5039      0.88678865     0.79465992   
     48800  -4112.5882     -4145.6611      33.072926     -3327.2663      296.48122      9692.9746      0.88884981     0.79465992   
     48900  -4111.6224     -4146.173       34.5506        549.30614      309.72778      9659.7492      0.89190707     0.79465992   
     49000  -4111.4533     -4146.5583      35.10492       1809.7586      314.69696      9625.3569      0.89509393     0.8655638    
     49100  -4112.3246     -4146.5502      34.225534     -923.13294      306.81374      9592.0258      0.89820427     0.8655638    
     49200  -4112.1779     -4145.7977      33.619842     -999.47162      301.38403      9558.028       0.90139918     0.8655638    
     49300  -4112.1045     -4146.0272      33.922734      1338.7348      304.0993       9529.299       0.90411673     0.8655638    
     49400  -4109.6731     -4146.6522      36.979061      243.4224       331.49764      9513.2232      0.90564454     0.8655638    
     49500  -4108.2806     -4143.5826      35.302002      2418.5509      316.4637       9516.111       0.9053697      0.8655638    
     49600  -4108.683      -4142.4637      33.780707      2463.0336      302.8261       9542.4865      0.90286725     0.8655638    
     49700  -4108.2718     -4143.9538      35.682059      83.915836      319.87071      9584.9909      0.89886352     0.8655638    
     49800  -4110.1344     -4144.6146      34.480118     -1295.8232      309.09595      9630.9695      0.8945723      0.8655638    
     49900  -4110.5029     -4144.4337      33.930735     -1125.2623      304.17101      9669.0533      0.89104882     0.8655638    
     50000  -4110.2109     -4144.9561      34.745106     -2000.4858      311.47142      9692.8383      0.88886231     0.85441977   
     50100  -4111.5849     -4145.5325      33.94758       302.2328       304.32202      9697.4821      0.88843666     0.85441977   
     50200  -4112.5609     -4145.8067      33.245775     -2889.6428      298.03072      9684.0709      0.88966703     0.85441977   
     50300  -4112.259      -4144.8013      32.542318     -1114.4907      291.7246       9655.4946      0.89230008     0.85441977   
     50400  -4111.1077     -4144.5732      33.465475      355.63239      300.00021      9611.7128      0.89636454     0.85441977   
     50500  -4111.2421     -4144.7079      33.465838     -59.273483      300.00346      9560.6438      0.90115255     0.85441977   
     50600  -4112.1997     -4145.5408      33.341142     -2018.8387      298.88563      9517.2161      0.90526458     0.85441977   
     50700  -4113.3957     -4145.818       32.422252      1554.1575      290.64827      9486.7923      0.90816772     0.85441977   
     50800  -4113.9224     -4146.4257      32.503304     -799.62705      291.37486      9469.2487      0.90985028     0.85441977   
     50900  -4113.8029     -4146.8181      33.015143      996.80579      295.96322      9465.1955      0.9102399      0.85441977   
     51000  -4113.896      -4145.3258      31.429865      1755.5172      281.75205      9473.5875      0.90943358     0.8463364    
     51100  -4112.6153     -4145.5973      32.982026     -1803.6055      295.66635      9495.3473      0.90734949     0.8463364    
     51200  -4112.3546     -4146.4351      34.080433     -1519.7704      305.51298      9528.7698      0.90416694     0.8463364    
     51300  -4112.4754     -4146.3872      33.911798     -2073.9677      304.00126      9569.1303      0.90035336     0.8463364    
     51400  -4112.2378     -4145.5266      33.288786     -151.25135      298.41629      9614.1513      0.89613719     0.8463364    
     51500  -4112.4595     -4146.268       33.808491      220.62766      303.07517      9655.4522      0.89230399     0.8463364    
     51600  -4111.1759     -4144.4418      33.265858      497.99527      298.21075      9684.5646      0.88962168     0.8463364    
     51700  -4110.6277     -4144.4821      33.854386     -247.21857      303.48659      9698.1923      0.8883716      0.8463364    
     51800  -4111.9688     -4144.5704      32.601578     -1768.6201      292.25583      9688.1169      0.88929548     0.8463364    
     51900  -4111.0605     -4145.3908      34.330262      1020.9981      307.75256      9656.1733      0.89223737     0.8463364    
     52000  -4113.0451     -4146.2795      33.234331     -668.40364      297.92813      9611.0982      0.89642186     0.78331627   
     52100  -4113.1624     -4146.5627      33.400249     -433.37944      299.4155       9559.841       0.90122823     0.78331627   
     52200  -4112.0342     -4145.3057      33.271484     -109.0265       298.26119      9511.1737      0.90583968     0.78331627   
     52300  -4111.5112     -4145.6563      34.145102      285.21078      306.09271      9472.2317      0.90956375     0.78331627   
     52400  -4112.7328     -4147.1363      34.403512      85.204522      308.40922      9450.07        0.9116968      0.78331627   
     52500  -4113.2709     -4147.2065      33.935677      1822.2131      304.21532      9451.2567      0.91158233     0.78331627   
     52600  -4112.3689     -4145.7147      33.345715      2456.4881      298.92663      9473.1136      0.90947907     0.78331627   
     52700  -4112.658      -4146.276       33.617975     -1616.4579      301.36729      9507.1869      0.90621955     0.78331627   
     52800  -4113.1584     -4147.7488      34.590368      677.44206      310.08428      9549.2418      0.90222855     0.78331627   
     52900  -4113.6897     -4146.3305      32.640846      668.46791      292.60785      9592.9713      0.89811575     0.78331627   
     53000  -4112.1031     -4145.475       33.371908      189.86224      299.16143      9632.5833      0.89442243     0.87525534   
     53100  -4114.0162     -4146.2158      32.199549     -2336.4131      288.65186      9661.6728      0.8917295      0.87525534   
     53200  -4113.5144     -4145.7808      32.266381     -637.27969      289.25097      9671.8938      0.89078713     0.87525534   
     53300  -4113.1914     -4147.3862      34.194771     -1061.1241      306.53796      9662.2739      0.89167402     0.87525534   
     53400  -4112.5067     -4145.5303      33.023578      886.86861      296.03884      9636.5499      0.89405427     0.87525534   
     53500  -4110.9676     -4144.7571      33.789576     -2297.1374      302.90561      9599.3114      0.89752256     0.87525534   
     53600  -4111.3093     -4145.3409      34.031645      439.1516       305.07563      9559.5447      0.90125617     0.87525534   
     53700  -4111.8611     -4145.6537      33.79262       2750.7769      302.93289      9523.2508      0.90469093     0.87525534   
     53800  -4111.9262     -4144.3316      32.405323      20.706007      290.49651      9495.131       0.90737016     0.87525534   
     53900  -4113.3404     -4145.9282      32.587792      2780.8536      292.13225      9477.9331      0.9090166      0.87525534   
     54000  -4112.5475     -4146.766       34.21849       1617.7191      306.75059      9470.7782      0.90970334     0.77850893   
     54100  -4112.7686     -4147.4416      34.673034      1297.1759      310.82534      9477.6385      0.90904486     0.77850893   
     54200  -4112.0385     -4146.5177      34.479109      594.53013      309.0869       9501.7637      0.90673678     0.77850893   
     54300  -4112.3541     -4145.672       33.317859     -1232.2231      298.67691      9533.8139      0.90368856     0.77850893   
     54400  -4111.1608     -4145.0711      33.910252      1372.0833      303.9874       9565.225       0.90072095     0.77850893   
     54500  -4110.8406     -4145.1325      34.29188       439.98073      307.40849      9598.7293      0.89757699     0.77850893   
     54600  -4109.8833     -4144.5551      34.671797     -2909.0626      310.81425      9635.5283      0.89414907     0.77850893   
     54700  -4110.2057     -4144.2077      34.002022     -1938.1671      304.81007      9667.6487      0.89117829     0.77850893   
     54800  -4110.0778     -4144.8216      34.743722      249.40515      311.45902      9687.9157      0.88931395     0.77850893   
     54900  -4109.7522     -4143.8433      34.091115      1660.9106      305.60874      9692.4311      0.88889965     0.77850893   
     55000  -4109.9374     -4144.1019      34.164438     -1678.9134      306.26604      9678.0223      0.89022306     0.80920157   
     55100  -4110.3297     -4144.4936      34.163968     -1965.8214      306.26183      9646.6252      0.89312048     0.80920157   
     55200  -4111.6097     -4145.6529      34.043272     -692.40659      305.17986      9602.972       0.89718044     0.80920157   
     55300  -4111.6385     -4144.8426      33.204111      2143.1346      297.65722      9554.487       0.90173324     0.80920157   
     55400  -4111.5566     -4145.7064      34.149829      1720.0114      306.13508      9514.746       0.90549959     0.80920157   
     55500  -4111.6267     -4145.4727      33.845991      995.24609      303.41133      9489.9822      0.90786246     0.80920157   
     55600  -4110.3246     -4144.5574      34.23278       587.68722      306.87869      9479.7203      0.90884524     0.80920157   
     55700  -4110.8116     -4144.556       33.744403      4694.3205      302.50065      9485.3341      0.90830734     0.80920157   
[...]
    386100  -4112.4274     -4144.9069      32.479504      2121.8628      291.16151      9526.6467      0.90436844     0.85820473   
    386200  -4112.145      -4146.4867      34.341763     -1217.231       307.85566      9515.2465      0.90545196     0.85820473   
    386300  -4112.0603     -4146.0338      33.973474      388.57182      304.55415      9513.1611      0.90565045     0.85820473   
    386400  -4111.3256     -4145.1728      33.847146      72.425239      303.42169      9518.6642      0.90512686     0.85820473   
    386500  -4111.5641     -4144.2184      32.654334      882.51831      292.72876      9533.2205      0.90374481     0.85820473   
    386600  -4112.2537     -4146.0214      33.767663      1550.3185      302.70917      9555.7866      0.90161061     0.85820473   
    386700  -4110.8891     -4145.0259      34.136782      957.51883      306.01812      9581.1666      0.8992223      0.85820473   
    386800  -4110.9121     -4146.2118      35.299697     -758.41942      316.44304      9612.4418      0.89629657     0.85820473   
    386900  -4111.7339     -4144.2627      32.528807      149.4071       291.60348      9641.5166      0.89359371     0.85820473   
    387000  -4111.9737     -4144.5261      32.55243       257.60462      291.81525      9657.1558      0.89214659     0.90220335   
    387100  -4110.7965     -4145.9184      35.121926      291.22687      314.84942      9659.3918      0.89194007     0.90220335   
    387200  -4111.5678     -4144.7452      33.177409     -2836.7871      297.41785      9647.5212      0.89303754     0.90220335   
    387300  -4112.3751     -4147.6079      35.232826      151.1093       315.84357      9626.0744      0.89502722     0.90220335   
    387400  -4112.2116     -4144.8861      32.674562      1147.9657      292.91009      9594.2257      0.89799833     0.90220335   
    387500  -4112.8534     -4147.1126      34.259188     -3311.6486      307.11543      9554.4661      0.90173522     0.90220335   
    387600  -4114.1279     -4145.963       31.835056      4336.6003      285.38437      9512.2953      0.90573288     0.90220335   
    387700  -4112.6845     -4146.3311      33.646594     -624.4277       301.62385      9480.1762      0.90880153     0.90220335   
    387800  -4113.7039     -4146.3101      32.606169     -781.58528      292.29699      9457.7237      0.910959       0.90220335   
    387900  -4112.9533     -4146.112       33.158743      5245.9126      297.25052      9449.724       0.91173018     0.90220335   
    388000  -4112.2064     -4146.3032      34.096817      390.90071      305.65986      9463.2095      0.91043092     0.72714895   
    388100  -4112.1435     -4145.7635      33.619919      684.95632      301.38472      9495.113       0.90737189     0.72714895   
    388200  -4112.973      -4145.1117      32.138608      1224.244       288.10555      9543.6492      0.90275726     0.72714895   
    388300  -4112.8332     -4146.4716      33.638366      705.94918      301.55009      9595.186       0.89790845     0.72714895   
    388400  -4112.0056     -4145.1474      33.141841     -1611.9715      297.099        9634.9089      0.89420654     0.72714895   
    388500  -4111.1309     -4145.478       34.34706       1413.484       307.90315      9658.1509      0.89205467     0.72714895   
    388600  -4112.8259     -4146.0479      33.222079     -1881.5602      297.81829      9664.7452      0.89144601     0.72714895   
    388700  -4113.0743     -4145.0507      31.976471      653.24017      286.65208      9650.8753      0.89272717     0.72714895   
    388800  -4113.4428     -4146.0523      32.609451      1575.8252      292.32641      9622.7397      0.89533739     0.72714895   
    388900  -4113.8916     -4146.3071      32.415506     -1451.925       290.58779      9587.7903      0.89860106     0.72714895   
    389000  -4113.089      -4145.7129      32.623893     -610.09581      292.45588      9552.7224      0.90189981     0.87171371   
    389100  -4112.3944     -4144.9963      32.601933     -249.05644      292.25901      9524.2622      0.90459485     0.87171371   
    389200  -4112.3831     -4146.3319      33.948847      2306.0041      304.33339      9504.8896      0.90643857     0.87171371   
    389300  -4112.691      -4146.8023      34.111246      2047.7231      305.78921      9498.4727      0.90705094     0.87171371   
    389400  -4112.2027     -4145.4709      33.268154     -75.421134      298.23133      9509.139       0.90603351     0.87171371   
    389500  -4112.601      -4145.6266      33.02567       2978.9329      296.0576       9537.2195      0.90336587     0.87171371   
    389600  -4113.4801     -4147.1668      33.686703     -145.39041      301.9834       9580.8127      0.8992555      0.87171371   
    389700  -4113.8719     -4146.8839      33.011972     -1659.4324      295.9348       9629.8927      0.89467234     0.87171371   
    389800  -4112.9749     -4143.8307      30.85583      -460.41542      276.60613      9669.5213      0.8910057      0.87171371   
    389900  -4113.2072     -4145.9802      32.772942      273.92102      293.79202      9693.3244      0.88881773     0.87171371   
    390000  -4113.5082     -4145.7298      32.221631      242.43045      288.84981      9696.6923      0.88850902     0.8457767    
    390100  -4113.6292     -4147.1583      33.529067      360.72476      300.57028      9682.1783      0.88984094     0.8457767    
    390200  -4113.4712     -4146.6384      33.167201     -1618.3332      297.32634      9654.9135      0.89235378     0.8457767    
    390300  -4113.0651     -4145.2248      32.159743      1557.4153      288.29501      9619.9424      0.89559773     0.8457767    
    390400  -4112.7418     -4145.8833      33.141404     -356.53754      297.09509      9578.039       0.89951593     0.8457767    
    390500  -4110.9456     -4145.3243      34.378697     -2164.0332      308.18676      9536.3967      0.90344381     0.8457767    
    390600  -4110.9861     -4144.8774      33.891315      2522.5858      303.81764      9505.5066      0.90637974     0.8457767    
    390700  -4110.7496     -4146.0952      35.345631      2711.2914      316.85481      9492.1082      0.90765912     0.8457767    
    390800  -4112.397      -4146.4838      34.086813      1678.6637      305.57017      9502.4613      0.90667021     0.8457767    
    390900  -4112.4117     -4145.9217      33.509955      2043.0745      300.39895      9530.594       0.90399388     0.8457767    
    391000  -4110.6692     -4144.1826      33.513428     -3112.1547      300.43008      9574.5181      0.89984671     0.8300841    
    391100  -4110.8788     -4142.716       31.837163     -863.68432      285.40326      9624.182       0.89520321     0.8300841    
    391200  -4110.4403     -4145.4583      35.018049     -451.1227       313.91821      9670.2652      0.89093716     0.8300841    
    391300  -4111.3739     -4146.153       34.779075      241.79408      311.77593      9706.1882      0.88763976     0.8300841    
    391400  -4112.3115     -4145.8896      33.578089      76.949486      301.00973      9724.002       0.88601366     0.8300841    
    391500  -4110.2664     -4145.4061      35.139659     -1866.8171      315.00838      9719.0752      0.8864628      0.8300841    
    391600  -4109.3463     -4143.3396      33.99333      -289.62516      304.73215      9688.5292      0.88925764     0.8300841    
    391700  -4109.368      -4144.4258      35.057799     -872.87447      314.27455      9642.3708      0.89351455     0.8300841    
    391800  -4110.4349     -4144.9142      34.479378      1459.4027      309.08931      9592.5935      0.89815112     0.8300841    
    391900  -4111.4095     -4145.9016      34.49214       186.74605      309.20372      9546.7074      0.90246806     0.8300841    
    392000  -4111.7197     -4145.614       33.894265     -384.51828      303.84408      9509.9838      0.90595303     0.81967466   
    392100  -4111.3452     -4145.369       34.02372       4593.0335      305.00458      9489.2153      0.90793583     0.81967466   
    392200  -4111.6312     -4145.2604      33.629279      499.53793      301.46863      9491.6453      0.90770338     0.81967466   
    392300  -4110.5279     -4144.7209      34.193021      46.391783      306.52227      9512.2822      0.90573412     0.81967466   
    392400  -4109.3591     -4144.9391      35.580042     -102.81925      318.95618      9547.4065      0.90240199     0.81967466   
    392500  -4110.2439     -4144.7797      34.535756      2614.1511      309.59472      9592.2272      0.89818542     0.81967466   
    392600  -4109.9553     -4143.9112      33.95591      -1230.9661      304.3967       9643.2533      0.89343278     0.81967466   
    392700  -4111.7894     -4144.6954      32.906003     -812.71257      294.98484      9688.4329      0.88926648     0.81967466   
    392800  -4112.5257     -4144.8249      32.299214     -553.00356      289.5453       9716.7711      0.886673       0.81967466   
    392900  -4111.9718     -4145.9732      34.001375     -2758.9467      304.80427      9721.139       0.8862746      0.81967466   
    393000  -4113.3673     -4146.2507      32.883433     -2016.0216      294.78251      9700.9051      0.88812317     0.82184938   
    393100  -4113.5947     -4146.8049      33.210198     -97.556526      297.71179      9664.7802      0.89144279     0.82184938   
    393200  -4113.0798     -4145.2652      32.185441     -383.99231      288.52538      9617.7851      0.89579862     0.82184938   
    393300  -4111.6658     -4145.4872      33.821411      525.16157      303.19098      9564.8826      0.90075319     0.82184938   
    393400  -4110.8823     -4145.584       34.701622     -22.125302      311.08161      9514.7519      0.90549903     0.82184938   
    393500  -4110.6166     -4144.4303      33.813706      1430.1613      303.12191      9476.0774      0.90919462     0.82184938   
    393600  -4109.3287     -4144.4497      35.121009     -176.80712      314.84119      9458.4581      0.91088828     0.82184938   
    393700  -4109.4169     -4144.401       34.984154      3814.0793      313.61436      9461.6002      0.91058577     0.82184938   
    393800  -4109.5989     -4143.7813      34.182435      2679.0215      306.42738      9489.4186      0.90791638     0.82184938   
    393900  -4110.2047     -4145.4643      35.259573      665.50676      316.08334      9537.2337      0.90336452     0.82184938   
    394000  -4110.2297     -4144.1508      33.921081     -1474.389       304.08447      9594.7318      0.89795096     0.82338918   
    394100  -4110.9192     -4143.0992      32.180051     -3326.5855      288.47707      9649.9201      0.89281554     0.82338918   
    394200  -4111.5571     -4144.7004      33.143249      165.73763      297.11163      9693.5366      0.88879827     0.82338918   
    394300  -4111.2639     -4146.0348      34.770883      1164.794       311.7025       9718.2786      0.88653546     0.82338918   
    394400  -4112.2784     -4144.9115      32.633064     -973.27888      292.53809      9726.5712      0.88577963     0.82338918   
    394500  -4111.6507     -4144.3785      32.727799      1287.4617      293.38733      9713.7229      0.88695124     0.82338918   
    394600  -4111.2232     -4144.0368      32.813626      1740.1028      294.15673      9682.3304      0.88982695     0.82338918   
    394700  -4112.1614     -4145.6608      33.499383      692.2843       300.30418      9639.6571      0.89376608     0.82338918   
    394800  -4111.8347     -4145.0606      33.225849      213.4134       297.85209      9595.3835      0.89788997     0.82338918   
    394900  -4112.236      -4145.2194      32.983389      2576.9053      295.67856      9557.8383      0.90141707     0.82338918   
    395000  -4111.3736     -4145.9547      34.581083      873.14933      310.00105      9531.3351      0.90392359     0.78774238   
    395100  -4111.2075     -4145.3908      34.183302     -2084.5001      306.43515      9515.7735      0.90540182     0.78774238   
    395200  -4111.5466     -4145.1979      33.651274      65.532668      301.6658       9513.4985      0.90561833     0.78774238   
    395300  -4112.3184     -4145.5378      33.21945       1530.2156      297.79473      9523.3455      0.90468193     0.78774238   
    395400  -4112.4633     -4146.3746      33.911266      6.5735304      303.99649      9541.5388      0.90295693     0.78774238   
    395500  -4112.1176     -4146.0839      33.966248      1995.8102      304.48937      9562.0605      0.90101904     0.78774238   
    395600  -4111.8203     -4145.7939      33.973592     -1667.9324      304.55521      9585.9738      0.89877135     0.78774238   
    395700  -4111.7062     -4146.283       34.576727      128.87291      309.962        9615.4573      0.89601548     0.78774238   
    395800  -4111.6629     -4145.9947      34.331778     -1003.9372      307.76616      9643.5242      0.89340768     0.78774238   
    395900  -4110.5067     -4143.7979      33.291107     -578.25215      298.43709      9664.1281      0.89150294     0.78774238   
    396000  -4110.1692     -4143.8023      33.633072     -1378.5601      301.50263      9677.2885      0.89029056     0.87036515   
    396100  -4109.6636     -4142.5491      32.885529     -900.09352      294.8013       9677.1136      0.89030665     0.87036515   
    396200  -4110.1867     -4144.6219      34.435243      350.46048      308.69367      9664.9004      0.8914317      0.87036515   
    396300  -4110.7167     -4144.7926      34.075893      319.65375      305.47228      9638.3025      0.8938917      0.87036515   
    396400  -4111.058      -4144.7966      33.738627     -1732.8792      302.44887      9602.1007      0.89726185     0.87036515   
    396500  -4110.8721     -4145.4847      34.612578      1587.0176      310.28338      9567.5442      0.90050262     0.87036515   
    396600  -4110.0693     -4144.5985      34.529185     -304.67778      309.5358       9535.7002      0.9035098      0.87036515   
    396700  -4110.6062     -4144.8417      34.235508      1858.6022      306.90315      9513.8167      0.90558804     0.87036515   
    396800  -4111.7248     -4145.3862      33.661437      2449.3336      301.7569       9503.5553      0.90656584     0.87036515   
    396900  -4113.8856     -4148.2427      34.357076      1637.1916      307.99294      9506.6716      0.90626867     0.87036515   
    397000  -4113.1462     -4146.1965      33.050361     -218.02578      296.27893      9519.3482      0.90506182     0.88632235   
    397100  -4112.5609     -4145.804       33.243102      723.04863      298.00676      9545.7823      0.90255553     0.88632235   
    397200  -4113.5168     -4147.122       33.605232      1985.6569      301.25306      9581.8617      0.89915706     0.88632235   
    397300  -4113.3058     -4146.1697      32.863893     -1002.7936      294.60734      9622.9846      0.8953146      0.88632235   
    397400  -4114.9993     -4145.9255      30.926153     -1705.5686      277.23654      9663.9091      0.89152314     0.88632235   
    397500  -4113.8438     -4146.7778      32.93402       909.14569      295.236        9694.2826      0.88872988     0.88632235   
    397600  -4113.4391     -4145.4444      32.005371     -382.58824      286.91115      9709.752       0.88731397     0.88632235   
    397700  -4113.991      -4146.3234      32.332391      2087.6153      289.84271      9705.6216      0.88769158     0.88632235   
    397800  -4112.6806     -4144.6101      31.929452     -1582.6301      286.23058      9679.3194      0.89010376     0.88632235   
    397900  -4112.9907     -4145.8775      32.886798     -825.98077      294.81268      9637.9905      0.89392063     0.88632235   
    398000  -4113.6359     -4146.7626      33.126776      1058.3399      296.96395      9586.2937      0.89874136     0.78761198   
    398100  -4114.328      -4146.3474      32.019329      1093.8171      287.03628      9532.2658      0.90383533     0.78761198   
    398200  -4113.584      -4145.7989      32.214945      326.39375      288.78987      9487.7481      0.90807623     0.78761198   
    398300  -4114.6142     -4145.691       31.076862      638.62304      278.58756      9460.9812      0.91064535     0.78761198   
    398400  -4112.8359     -4146.7328      33.896876      379.96264      303.86749      9455.2175      0.91120047     0.78761198   
    398500  -4112.962      -4146.2983      33.336314      1505.2204      298.84235      9475.2601      0.90927304     0.78761198   
    398600  -4114.1499     -4147.0314      32.881571     -1194.9197      294.76582      9513.423       0.90562551     0.78761198   
    398700  -4114.4258     -4146.5403      32.114483     -524.82422      287.88928      9560.7344      0.90114401     0.78761198   
    398800  -4114.0557     -4147.2135      33.157858     -943.53322      297.24259      9608.5763      0.89665715     0.78761198   
    398900  -4113.9028     -4147.1898      33.286984     -1486.8861      298.40013      9650.4865      0.89276313     0.78761198   
    399000  -4113.001      -4145.6515      32.650503      1371.4225      292.69442      9678.9272      0.89013982     0.90656713   
    399100  -4113.2625     -4145.8075      32.545007     -1503.4879      291.7487       9692.0442      0.88893513     0.90656713   
    399200  -4112.8518     -4145.4201      32.568329      1160.9577      291.95777      9686.7399      0.88942189     0.90656713   
    399300  -4113.2286     -4147.0216      33.792957     -306.50847      302.93591      9666.6717      0.89126835     0.90656713   
    399400  -4111.8436     -4144.2134      32.369763     -1396.6355      290.17773      9632.3267      0.89444626     0.90656713   
    399500  -4112.5335     -4145.5331      32.999615     -3867.542       295.82402      9593.0676      0.89810673     0.90656713   
    399600  -4112.1957     -4146.1909      33.995194      698.66164      304.74886      9553.1044      0.90186376     0.90656713   
    399700  -4112.468      -4144.6705      32.20249       3115.3412      288.67822      9522.0407      0.9048059      0.90656713   
    399800  -4113.4676     -4146.5952      33.127582      1790.3631      296.97118      9506.6488      0.90627084     0.90656713   
    399900  -4113.3731     -4146.3757      33.00259       3184.6111      295.8507       9505.4902      0.9063813      0.90656713   
    400000  -4113.3998     -4146.6511      33.251344     -1762.0144      298.08064      9513.6569      0.90560325     0.85680857   
    400100  -4111.2856     -4145.5202      34.234613      578.51068      306.89513      9527.7582      0.90426293     0.85680857   
    400174  -4110.6166     -4144.8297      34.213125     -4293.2426      306.7025       9541.7591      0.90293608     0.85680857   
Loop time of 502.182 on 2 procs for 200000 steps with 864 atoms

Performance: 17.205 ns/day, 1.395 hours/ns, 398.262 timesteps/s, 344.098 katom-step/s
99.7% CPU use with 2 MPI tasks x 1 OpenMP threads

MPI task timing breakdown:
Section |  min time  |  avg time  |  max time  |%varavg| %total
---------------------------------------------------------------
Pair    | 259.42     | 260.39     | 261.36     |   6.0 | 51.85
Neigh   | 7.5064     | 7.5453     | 7.5842     |   1.4 |  1.50
Comm    | 39.953     | 42.529     | 45.105     |  39.5 |  8.47
Output  | 0.29292    | 0.29577    | 0.29862    |   0.5 |  0.06
Modify  | 187.68     | 189.33     | 190.98     |  12.0 | 37.70
Other   |            | 2.09       |            |       |  0.42

Nlocal:            432 ave         433 max         431 min
Histogram: 1 0 0 0 0 0 0 0 0 1
Nghost:         2165.5 ave        2166 max        2165 min
Histogram: 1 0 0 0 0 0 0 0 0 1
Neighs:              0 ave           0 max           0 min
Histogram: 2 0 0 0 0 0 0 0 0 0
FullNghs:        44855 ave       44876 max       44834 min
Histogram: 1 0 0 0 0 0 0 0 0 1

Total # of neighbors = 89710
Ave neighs/atom = 103.83102
Neighbor list builds = 19943
Dangerous builds = 19660

unfix		3
unfix		4
Total wall time: 0:16:46
