../../full/ii/5000_bar/2-coex/275/water.dat (written by ASE) 

2592 	 atoms 
2  atom types
0.0      23.177941211287106  xlo xhi
0.0      21.314862473764805  ylo yhi
0.0      43.472194999999999  zlo zhi
    -9.2048520000000007      3.7509800000000002      5.6916529999999996  xy xz yz


Atoms 

     1   2      13.302817291846555      17.758868042174608      4.9380131338432527
     2   1       13.58509974470031      18.409612845370901       5.633418024701605
     3   1      12.443460846879043      18.153071807385022      4.6340033132538316
     4   2    -0.18207503671960731      4.1769119696333883      2.3348102771473531
     5   1    -0.92607065675506317      3.6137025089134607       2.692461759512804
     6   1    -0.58255344900264061      4.6964252216580133      1.6089914840495438
     7   2      4.8400679797212511      2.0745710179718131     0.21524733624544951
     8   1      4.6799109953760913      1.0904396520605246    0.091378181409155851
     9   1      5.0121270594097815      2.1518260003333749      1.1984748695270582
    10   2       12.49952697209619      21.642254175893335       4.478112309012209
    11   1      11.871606734705322      20.872406757566342      4.5155826686570633
    12   1      13.401345155668773      21.231164960695693      4.3786383914005294
    13   2      19.324196441400467      4.7559855087331799      1.8534507279794019
    14   1       19.80232078782872      5.0238686297510551      2.6735072272347828
    15   1      20.009353430171569      4.9359928132928044      1.1436430459041658
    16   2     -6.3311240862334897      21.792430540732688      2.9645005306155197
    17   1      2.6166711939399372      1.2361679254468738      2.6195192723059479
    18   1     -5.6834638807937736       21.41382148507461      2.3266396739421298
    19   2      1.7492031540483153      6.4934390143442364      1.4953041599387173
    20   1      2.5159486874001757      5.9425481120193053      1.8223614630150604
    21   1      1.4418514390770274      6.0878092027527062     0.63838591401776146
    22   2      14.904174687303589      20.382418521260014      4.0214964088999992
    23   1     -7.7069062345328341      20.873191477924578      3.5624316620856242
    24   1     -7.9861304261961772      19.768804849343038       4.660697198167556
    25   2      18.877746974743189     0.82420823695227918       5.695916216908353
    26   1      9.5992566407191209      21.968849596041483      4.7502027330144294
    27   1      18.998442381571795      1.8054959283518028      5.5889727027791123
    28   2      2.1680797560601612      2.7755027966481154      2.0060881163198432
    29   1      2.8270294986865592      3.4981841372465627      2.1814366259675797
    30   1      1.2773924017042675      3.1932736701571667      2.1331779638465425
    31   2     -4.7147320838897873      19.360415144750004      4.2164002305928481
    32   1      -5.426083902686079      19.190446921688526       4.891405497573011
    33   1     -5.1792502521241364        19.1427183928867      3.3703849649690634
    34   2      21.110856443000131       2.525002131038014      3.0985061957121625
    35   1      21.328232065251484      1.6434707024414152      3.5019097662702667
    36   1      20.413269649422929      2.9211453232316731      3.6870770744233941
    37   2     -2.4818014382095583      17.889894814686873      4.9029961248801657
    38   1     -2.1801956565400769      18.512312771374596       5.617715957024223
    39   1     -3.2974487431940305      18.328086051155623      4.5414788547834641
    40   2      7.7083013160344596      3.8124913294512055      2.2678325550530536
    41   1      6.9598975649146722      3.2357249079479424      2.5879906219483408
    42   1      7.2587264782241538      4.4381214574664813      1.6483431169137399
    43   2      12.722327928959425      1.8304165353320321     0.44826819411236762
    44   1      12.775562023461941      0.8589460129849249      0.6446620025887595
    45   1      12.854390605678296      2.2048592657785839      1.3488205267692757
    46   2     -2.9032003400832149      21.555946308458349      4.4451884813084961
    47   1     -3.5753912727408768      20.831880469532759      4.4086716397196364
    48   1     -2.0222785120461269      21.118641288357221      4.2942308772476965
    49   2      3.8099309435047486      4.9154302234993885      2.3241718258578961
    50   1      4.2623693653010539      5.2176804786466002      3.1525083527981557
    51   1      4.5570772172732745      4.9751641789291687      1.6615507682029789
    52   2      1.6314479577974645      21.600894051861747       3.096327506409875
    53   1      10.573103203684163       1.001062577531511      2.6617321511141925
    54   1      2.3474793374109724      21.218926046262087      2.5235181597840732
    55   2      9.3463293880908438       6.287555916295549      1.2186996499860276
    56   1      10.141719258377748      5.7400577588872652      1.4683069046392547
    57   1      8.9547690848601516      5.8562227794109551     0.41249341454681149
    58   2    -0.55821880496760257      20.181109504530454      3.9102182840688267
    59   1      0.2304364529347161      20.673929664508343      3.5529023169697873
    60   1    -0.18672101453083295       19.61835852995857      4.6332625950851014
    61   2      3.4091706745785042     0.75324076387541072      5.6093193363005582
    62   1     -5.8790552186474194      21.931198721543435      4.6595618532256555
    63   1       3.556199176161527      1.7329295890018532      5.5479590210418586
    64   2      10.049086839638143       2.422185116440307      1.7747620658646273
    65   1      10.698880196180477      3.1704930074565052      1.7810213531972729
    66   1      9.1678184467737296      2.8516387007651955      1.9271589025224218
    67   2      3.2204034231294503      19.237527940257824      4.5120038570876462
    68   1      2.5008138476768966      19.107431827775375      5.1883693903780141
    69   1      2.7436422445798279       19.03203369710107      3.6701717112495547
    70   2        5.56240751102745      2.2804915007476425      2.9603853114221743
    71   1      5.8241055435547358       1.434880206607891      3.4156500437627026
    72   1      4.9491994090465328      2.7351614840301841      3.5845354313554725
    73   2      5.4725660862788565      17.764683341459769      5.1453029351075523
    74   1      5.7234150979201157       18.41768750874315      5.8521965012010257
    75   1      4.6315194175957348      18.159212722938367      4.7883767182416861
    76   2      15.340086153390059      3.8814816612540501      2.1959872811505621
    77   1      14.592717103726569      3.3582431334344824      2.6149518468846011
    78   1      14.945500442986141       4.354530343441037      1.4387065413803528
    79   2       20.48493270130075      2.0723879977107931     0.42784243481596196
    80   1       20.28358680636687      1.1200793028966416     0.62036069043086717
    81   1      20.697000045372494      2.3943822021470313      1.3344776899915083
    82   2      4.7802637863936308      21.550324890021557      4.5760160030680668
    83   1       4.138462810827753      20.793149413349418      4.5927789705778332
    84   1      5.6771405285610674      21.125271450446284       4.498189568856481
    85   2      11.561466033517798      4.7494381009573958      1.7817759370470285
    86   1      12.085608619746917      5.0531203692605313       2.567321499116475
    87   1      12.157087268187551      4.9485932888514919      1.0059743257451237
    88   2      9.1679610373770721      21.682538886506496      3.1216980168149977
    89   1      18.095784109261434      1.0739876431319473      2.6763309974346994
    90   1      9.8640505584743376      21.286799603986871      2.5190028668847435
    91   2       17.12340344152506       6.226221719395153      1.2039519869792674
    92   1      16.732829894323928      5.6223139539134079     0.50363012927800577
    93   1      17.939189569141103      5.7364818305735499      1.5230635345806867
    94   2      7.1508500434003643      20.208331921089197      4.1782853353153921
    95   1      7.8729492707748694      20.722681954465056      3.7184188575340422
    96   1       7.618769937343072      19.670710175602412      4.8716000192945801
    97   2      11.126049405380877      0.7716194771713073      5.7517577572469669
    98   1      11.125019666087063      0.4388778787323222      4.8139223728573945
    99   1      11.230421264971326      1.7553295212628948      5.6358803706643554
   100   2      17.665935813126691      2.4823108531441402      1.7277151189888589
   101   1      18.363212178915973      3.1840910398822211      1.7420105215718475
   102   1      16.811146310995571      2.9525400151156536      1.9155875284025656
   103   2      11.001522690256385      19.274955784262158      4.4869224032188315
   104   1      10.300567986472712       19.13791534762175      5.1793253789250926
   105   1       10.51228658006567      19.049730424341838      3.6521846861532801
   106   2      13.298370240315524       2.398037076432304        3.16277750154104
   107   1       13.52910813630119      1.5274623535125702         3.5814812757215
   108   1      12.617799625401254      2.8115112110833191      3.7570236208379724
   109   2      19.209294913766065      3.4901342887934823      4.9041392815357394
   110   1      19.493008698658329      4.1367343247236255      5.6024250740157733
   111   1      18.342677695463347      3.8690717703209558      4.5971242143377049
   112   2     -3.1213169669759342      11.293984443026527      2.1575586811207925
   113   1      -3.852848146107259      10.680873206572658      2.4443964272097038
   114   1      -3.496378946052062      11.848869904166076      1.4457494088557623
   115   2      2.7253337195075851      8.9390107194526305     0.84252426013507653
   116   1      2.3900244146603371      8.0176288737351644      1.0443373994217822
   117   1      2.5826903599529585      9.4053932362176909      1.7090011439278892
   118   2      18.626216912835499      7.2350604541334134      4.3628585434802414
   119   1      17.952917232809238      6.5111627692277922      4.3784117107076668
   120   1      19.505713749647342      6.7701171575032477       4.263969383184782
   121   2      16.612076259985528      11.933541172776479      1.6846496973366172
   122   1      17.031659694455829       12.23070103172909      2.5336245528650077
   123   1      17.304480076531775      12.152228859388629      1.0184919615830228
   124   2    -0.24713115412458353      7.5185114639683048      3.0555290712682379
   125   1    -0.36446738652847427      8.4299748549695721      2.6786507568294793
   126   1     0.47245646632994376       7.090759716406656      2.5123075336079643
   127   2     -1.2241798318633952      13.882453355553759      1.2397509758880487
   128   1    -0.40387059117624285      13.445260871920622      1.5880512192360543
   129   1     -1.4858767107538573      13.337311426924748     0.44466889794720577
   130   2      20.956471940417959      5.8884277576476638      3.8576509910470582
   131   1     -1.6755955340290363      6.4472980875651338      3.4505860015286491
   132   1      21.412891934396079       5.387939402864049      4.5866523163258686
   133   2      15.746654032745054      7.9961599576027442       5.625917463257065
   134   1       15.68586226275038      7.6189291839396889      4.7053576862192026
   135   1      15.965903153948506      8.9515607700900937      5.4540517041739136
   136   2     -0.6468795555554222      10.062562017894475      2.0053926086640033
   137   1    0.019968389478408906      10.805806593776065      2.0610327827475325
   138   1      -1.536336931578943      10.483512001573697      2.1284446019132064
   139   2      1.5128880280693802      5.1096014283961804      4.4858496478266456
   140   1     0.77579372280978909      4.9734578560849085      5.1390108501085621
   141   1      1.0377647015226699      4.9843404656169197       3.630750485951157
   142   2      18.207104904283177       9.522491189453298      2.8338602405477373
   143   1      18.397490891264233      8.6599708264046971      3.2920939660709689
   144   1      17.516720624054329      9.9519554001017418      3.3996335395365409
   145   2      3.8199108163285942      3.4154312744635855      4.9906070469247705
   146   1      4.1115901720298114      4.0335723324498058       5.707827355971375
   147   1      2.9730656382448442      3.8249606705712949        4.68959598282692
   148   2      4.7195960531540457      11.309413381597118      2.4603622333979076
   149   1      3.9625370537316589      10.826610313438625      2.8812423032249463
   150   1      4.3332523536637373       11.78217496474139      1.6822319633324685
   151   2      9.7413321269421882      8.8928835045618158      0.6522939897534562
   152   1      9.7053127009126499       7.908294774573756      0.8244735864673739
   153   1      9.8514996597565272      9.2846140077508554      1.5581898697977106
   154   2       3.099860903651213      7.4253265103561885       4.738067615963466
   155   1      2.4437581971440383      6.6857792468189965      4.6612081628827688
   156   1      3.9935776403896805      7.0004208081176573      4.6285699086370151
   157   2     0.96680371188952197      12.263673980073914      1.9890563728941713
   158   1      1.4269815132162851      12.516342748924311      2.8369221391185806
   159   1      1.7065907514774494      12.358281655915635      1.3225127109046653
   160   2      7.5629654003218878       7.462024604755511       3.107693132179346
   161   1      7.3932130297702336      8.3515509859429091      2.6846986216040127
   162   1      8.1889183696431118      6.9797374267620302      2.5176034726925054
   163   2      6.5203257227242357       13.75023735272006      1.5488641774542058
   164   1      7.3582784959833489      13.332105372866664      1.8716965804429517
   165   1      6.7664149304090238      14.601987606655657       1.094388953251519
   166   2      5.4448242405910703      6.0855254698617065      4.2287152278083271
   167   1      6.1603399120748801      6.5640037011633625      3.7321020974441677
   168   1       5.922773779777514      5.4930034634651639      4.8682358881238139
   169   2     0.12073444473596892      8.0271689103126249      5.6992184094969183
   170   1    0.069417487558095306      7.6937023023113431      4.7607678682037209
   171   1     0.23367920496893943       9.004555661580941      5.5711558408641197
   172   2      7.0801702318102935      9.9271799009918187      2.0730084644878599
   173   1      7.7368178243780807      10.665035463482761       2.159131551023473
   174   1      6.1908535359677481      10.346768479078037      2.1937170216336974
   175   2      9.2229691973156882      4.8941136620531713       4.360839192435475
   176   1      8.5126869434123549      4.7888973556226677      5.0495388196216009
   177   1      8.7471088183821664      4.6297365636111953      3.5323347860627132
   178   2      2.6081843786305963      9.7644621432974041      3.4051465102953578
   179   1      2.7872059305264685      8.8859657232601315      3.8393211811708419
   180   1      1.8380134148384404      10.157198406347973      3.8942734498797003
   181   2      11.455363869225582      3.3913450433412939       4.999743256475659
   182   1      11.748504385615547      4.0332384041303664      5.6981873182090474
   183   1      10.611480702650573      3.8014675651125498      4.6686686403218243
   184   2      12.461996317261088      11.052990868858634      2.1653648769144085
   185   1      11.730106190241736      10.544611525279866      2.6067425795030181
   186   1      12.021246672501411      11.595916524567254         1.4717494697914
   187   2      17.926394144042387      8.5963167958242384     0.20127841842226324
   188   1      17.620255928893844      7.6872715405159111     0.50704941110364643
   189   1      17.943307110155637       9.109442567549678      1.0508248607660751
   190   2      10.810605314092793      7.2220823995474905      4.5202649700494826
   191   1       10.14611946137887      6.4885410183704337      4.4749191703592626
   192   1      11.683121902230344      6.7853996587286751      4.3223391756914831
   193   2      8.7163065450396537      12.189764575407033       2.160757214226062
   194   1      9.2338230491985165      12.413125603020196      2.9761721440887152
   195   1      9.3855969287673879      12.305871760805216      1.4317540754789295
   196   2      15.314014854580563      7.3154537900643737      3.0019511218587733
   197   1       15.15708063521544      8.2009310407333054      2.5731572996781309
   198   1      15.977428445379454      6.8550115960017131      2.4149113442539503
   199   2      14.265886233777888      13.329703237712543      0.9727959891350626
   200   1       15.12565932110337       12.91657106708613      1.2490506199314841
   201   1      13.941316689499521      12.773607949647049     0.22430456887161521
   202   2       13.11282298388563      5.8679634009917603      3.8518683659918072
   203   1      13.865253273620747      6.3868739284275824      3.4555045224599481
   204   1      13.538782530270725      5.3214563948377034      4.5619825126913858
   205   2       8.027735737747502      8.0208685815583376       5.737961240244319
   206   1       7.965809405915123      7.7337744198082792      4.7852205471955367
   207   1      8.2085503472736505      8.9953182421977775      5.6655521815812371
   208   2      14.833396610719101      9.6924887240764477      1.7012955965002341
   209   1      15.554393437946647      10.363061168030715      1.6238459881461511
   210   1      13.996641013706446      10.203435794892915       1.871222654212072
   211   2      16.914007599247896      4.9391258901131838      4.3037566864007522
   212   1      16.191212922543976      4.8275303165491081      4.9801398609570775
   213   1         16.442681133453      4.7231199571729618      3.4623688823178949
   214   2      10.364581331839325      9.6119587574186447       3.235962080202444
   215   1      10.526432568366179      8.7160254892804261       3.637249006533243
   216   1      9.7155060170343859      10.060360185240729      3.8360261921073482
   217   2      16.343526887746126      10.556431673920539      4.7097923804010717
   218   1      16.583932866585194      11.183869961136015      5.4400415071973018
   219   1      15.486727278503322      10.940546167505291      4.3904044404258586
   220   2     -6.3191153227166046      18.440986306537276      2.0756622106994178
   221   1     -7.0234163967872369      17.846691871050741      2.4776558984373809
   222   1     -6.7726773844506702      19.064203054544638      1.5019597135720775
   223   2     -1.0288447441799782      16.603575836749286      0.4297980460966585
   224   1     -1.1711870592137601      15.635931837710825     0.58879817066979967
   225   1    -0.89787847066072013      16.923986654329504      1.3565007026599312
   226   2      15.634533546630438      14.388207758292854      4.3479632174779157
   227   1      14.989534875362464      13.636113350066967       4.325379022484837
   228   1      16.526945710161055      13.974937026609652      4.1943144995276658
   229   2      13.330682967425256      19.329389330858042       2.055874050939269
   230   1       13.84699400726525      19.584008302533476      2.8675021676130577
   231   1      13.883085736423979      19.681697011386408      1.3152103410425078
   232   2     -3.2696669879056199      14.788157038921218      2.8425080238002889
   233   1     -3.4672688688353959      15.665520928854571      2.4296807745455573
   234   1     -2.5110826755553748      14.410420266024103      2.3212700728479696
   235   2     -4.6346832291525972      20.771644950451108      1.0109609199893788
   236   1     -5.0076421984848301       20.19284792820924     0.31950064119428584
   237   1      -3.741921267168399      20.407437697172497      1.2015275973776089
   238   2      18.028290843898272      13.137668533922822      3.7896562114852572
   239   1     -4.6029386286270366      13.690639216060035      3.3800676047438163
   240   1      18.472165355935818      12.605688634509869      4.5006878633931695
   241   2      12.766687181034133      15.139048918650959      5.7416531165520572
   242   1      12.774419063070289      14.793727673473517      4.8110555808118223
   243   1       12.96467703247678      16.105646917101655       5.629745754852352
   244   2     -3.8518998005398166      17.238421271303736      1.4491415858218717
   245   1     -3.1684114302357997      17.951052183478623      1.5065141633869323
   246   1     -4.7271883933694481      17.677802523956593      1.5990775722524595
   247   2     -1.6382484270641282      12.272481670084867      4.3174439948345285
   248   1     -2.3472918531651397      12.087214259446574      4.9918249788648792
   249   1     -2.1183816118888874      12.101140909944339       3.470919262137977
   250   2       15.09328400685613       16.76423019423612      3.0754413264169616
   251   1       15.31946035055989      15.886842061676907      3.4925406724311645
   252   1      14.430039732334951      17.184915701416074      3.6874675695280987
   253   2      0.5425442943823745      10.686736966653992      4.9718192820612774
   254   1     0.80233852555914575      11.317846677812458      5.6939395826129324
   255   1    -0.26159791091304962      11.119413240268347      4.5830667442754933
   256   2      1.6901558628798083      18.257611712895589      2.3992564164603252
   257   1     0.88045768120752166      17.805718432585511      2.7743463206242209
   258   1      1.3672488726799137      18.822428779362717      1.6747465696455759
   259   2        7.00384038627596      16.385799293354559     0.67656428492182596
   260   1      6.3508585249364566      16.934197263459897     0.18423411313742666
   261   1      7.0265047139168768      16.686388482634698      1.6384725970654135
   262   2   -0.021289328310514125      14.548338209298047      4.4986712221325442
   263   1    -0.67722301911033067      13.803990027984074      4.4834308875230535
   264   1     0.86935706003462587      14.121933032680369      4.3772115310662283
   265   2     -2.1007456972110679      19.422753369179585      1.5997151252957793
   266   1     -1.6104203016297782      19.574182190318137      2.4447802233070055
   267   1     -1.4121228409927133       19.52876770002894     0.89590873485902212
   268   2      4.5834282078253779      14.633159183269681      3.2998574665390841
   269   1      4.4150622532257948      15.531431457056389      2.8988220245966101
   270   1      5.2830467879603189      14.220658653377713      2.7258255812222267
   271   2       3.552160405379075      20.687362774943352      1.3161383286215242
   272   1       4.364449548346423      20.255889570617576      1.6925802139554522
   273   1      3.3362183854180505       20.16418698076312     0.49582889212726611
   274   2      2.3800809703718828      13.251457746013326      4.1112284144034046
   275   1      3.1561260156002975      13.735455336678205      3.7114659619958683
   276   1      2.7847168902926716      12.693029411090471      4.8272526201714427
   277   2     -2.9148121025375744       15.24196711866213      5.5427855021872041
   278   1     -2.9439850695244574      14.976134377251141      4.5849981744460546
   279   1     -2.7847270497324339      16.225595305219422      5.4845293397907611
   280   2      4.0784536667192315      16.975860781721625      1.9827867204450171
   281   1      4.7211557090243188      17.734648830470604      2.0354794304170678
   282   1      3.1743702391884212      17.372455920649156         2.1090727349648
   283   2      6.2236508697513759      12.235085390531209      4.5837219843928398
   284   1       5.499538903544944      12.106328116457599      5.2500840439155168
   285   1      5.7479436562862061      12.068232577763345      3.7310230285429382
   286   2    -0.55488375980589999      16.946438566109329      3.1778352912580785
   287   1    -0.39553176800850404      16.049383881659935      3.5712255767411851
   288   1     -1.2529735801226245      17.367657246785825      3.7477327673739698
   289   2      8.5195209091073423      10.664911702267114      5.0716167977311173
   290   1      8.7907772509135267       11.29680710913745      5.7904897204970815
   291   1      7.6729010596650093      11.064040352540209       4.746399736988721
   292   2      9.4884018792736473      18.241763550306803      2.4204241433167599
   293   1      8.7560084187498859      17.716233351097607       2.851757807305495
   294   1      9.0570705934549931      18.752526663305993      1.7011405008154017
   295   2       14.46720331428379      16.063394734893471      0.5117532408704446
   296   1      14.370959345018917      15.074553962864343     0.55264506242346378
   297   1       14.61176205161903      16.345788840019132      1.4570061196282325
   298   2      7.8899451468643891      14.435827463162369      4.7435320519831983
   299   1       7.215871757321386      13.705303433800571      4.7055566178880142
   300   1      8.7716544724841388      13.994259569475016      4.6246687405586933
   301   2      5.7016908595070159      19.180375308494174      2.1101351290183938
   302   1      6.1489192654266445      19.433624913869917      2.9646164928333589
   303   1      6.4244139481698177      19.320019104658321      1.4350057053180558
   304   2      12.475140031518873       14.49975290670889      3.0829777909891924
   305   1      12.301127895826259      15.402224196152387      2.7049919119324923
   306   1      13.084738141213059      14.046277257146068      2.4588601897868201
   307   2      11.060238072364287      20.835043566312084      1.3698576092285111
   308   1      11.866009974520578      20.428160201275219      1.7796706566644165
   309   1      10.884374214772624      20.242561172981826     0.57993938084888097
   310   2      10.284910656976207      13.135496269199315      4.1907843959091595
   311   1      11.015098743025488      13.616581464195404      3.7228621629729659
   312   1      10.745866331959304      12.513678802039109      4.8199573244076133
   313   2      4.9849017810308149      15.138427774786509      5.9387484284360568
   314   1      4.9427592245753589      14.829674391972564      4.9902505608206909
   315   1      5.1439136214509462       16.11476908169449      5.8390115664982449
   316   2      11.895125721471549      16.961136764681342      1.9863933174222397
   317   1      12.532590656334381      17.718176742013632      1.9558225601588755
   318   1      11.001564059480641       17.37562489144797      2.1155175691100445
   319   2      14.027105559096782       12.05929616784794      4.2482084980073536
   320   1      13.364045899946897       11.88241249100648       4.965960679135546
   321   1      13.508872347029751      11.852758254222818      3.4301304130865686
   322   2      7.3802311900551603      16.778185426932868       3.383659800481623
   323   1      7.5680436554954502      15.892234727746528      3.7953801631071564
   324   1      6.7110182201133002      17.210888689026273      3.9731922902119683
   325   2      10.167901356961861      13.125230698801222      10.327589598461676
   326   1      10.469058286513553      13.765831170510504      11.024263546784892
   327   1      9.3160801917072504      13.535532072732728      10.024130567891893
   328   2      11.183447243928025      20.836416093806037      7.5296155874873927
   329   1      10.464329507907042      20.338264654706879      8.0037049807228779
   330   1      10.725369367542246      21.382766987221654      6.8383568736464335
   331   2     -6.9734144792093966      18.818523560796439      5.7262158074900782
   332   1      16.222897029652749      17.840246119668095      5.8261221702964443
   333   1      -6.926426259242084      19.132698677135476      6.6728353769493038
   334   2      9.5742263187832872       16.97094873613911      9.8716432617458114
   335   1      8.9055752372690602      16.237155301709429      9.8914417095150622
   336   1       10.45185686268276       16.52540077164679      9.7401608645633271
   337   2      7.3779624897342755      21.810809781757623      7.2036335933416353
   338   1      7.8771904564208119      22.071782644095901      8.0251111804125994
   339   1      8.0750109994810746      21.912496282996781      6.5027211929074609
   340   2      14.016425102124954      17.180317015226446      8.2669771673205581
   341   1      13.850859617097765      18.075963119432132      7.8668332747199408
   342   1      14.695985634834402      16.750183761964117      7.6884888772215332
   343   2      22.134876730988523      1.9490808571242979      6.5451530971756195
   344   1      22.999003789342012      1.5464211112054329      6.8232155320069383
   345   1      21.819843174912847       1.313430732558031      5.8449258130830968
   346   2      11.952477559209928      15.619459559917345      9.3525453393491311
   347   1      12.677441167366634      16.137930472887035      8.9185078988225452
   348   1      12.389800367957232      15.048034650815769      10.038460619649355
   349   2      6.7532820631505439       17.74928738451522      11.184218370927812
   350   1      6.6965619619994143      17.440006026477782       10.23917837253825
   351   1      6.9027007778058271      18.724277142744622      11.082221443151319
   352   2      13.557838285620726      19.583699348260748      6.9961809937301256
   353   1      14.195767477271316      20.341060856241182      6.9949286703020199
   354   1      12.658449290782197      19.990500922151053      7.1123576316247643
   355   2      15.609629211807571      14.718685161211763       9.639779535793167
   356   1      14.934662131779881      14.545104116654944       10.34581187484606
   357   1      15.125092497376878      14.457419297763877      8.8088898270901659