LAMMPS (27 Jun 2024)
KOKKOS mode with Kokkos version 4.3.1 is enabled (src/KOKKOS/kokkos.cpp:72)
  will use up to 1 GPU(s) per node
WARNING: When using a single thread, the Kokkos Serial backend (i.e. Makefile.kokkos_mpi_only) gives better performance than the OpenMP backend (src/KOKKOS/kokkos.cpp:202)
  using 1 OpenMP thread(s) per MPI task
package kokkos
package kokkos newton on neigh half

units		metal						## E in [eV], t in [ps], P in [10000 Pa], l in [A]
atom_style	atomic						## mass x y z vx vy vz

neighbor	0.5 bin						## neighbor list, skin = 0.5 Angstrom
neigh_modify	every 2 delay 10 check yes			## update of neighbor list

############################## main variables
variable        seed equal 89488

variable	temperature equal 410
variable	tempDamp equal 0.1

variable        pressure equal 30000
variable        pressureDamp equal 1.0 				# This is 1 ps

##############################

read_data water.dat
Reading data file ...
  orthogonal box = (0 0 0) to (20.13213 20.132272 35.107669)
  1 by 1 by 1 MPI processor grid
  reading atoms ...
  2160 atoms
  read_data CPU = 0.016 seconds

mass		1 1.008    # H
mass		2 15.9994  # O


pair_style	pace/extrapolation
ACE/AL version: 2023.11.25
pair_coeff	* * /pc2/users/a/acepdw01/work/phase_diagram/pot_dir/interim_potential_ladder_step_1.yaml /pc2/users/a/acepdw01/work/phase_diagram/pot_dir/interim_potential_ladder_step_1.asi H O
Loading /pc2/users/a/acepdw01/work/phase_diagram/pot_dir/interim_potential_ladder_step_1.yaml
Total number of basis functions
	H: 23 (r=1) 664 (r>1)
	O: 23 (r=1) 664 (r>1)
Mapping LAMMPS atom type #1(H) -> ACE species type #0
Mapping LAMMPS atom type #2(O) -> ACE species type #1
Loading ASI /pc2/users/a/acepdw01/work/phase_diagram/pot_dir/interim_potential_ladder_step_1.asi
LINEAR ASI is loaded

fix pace_gamma all pair 1000 pace/extrapolation gamma 1
compute max_pace_gamma all reduce max f_pace_gamma
variable dump_skip equal "c_max_pace_gamma < 10"

dump pace_dump all custom 1000 extrapolative_structures.dump id type x y z f_pace_gamma
dump_modify pace_dump skip v_dump_skip
dump_modify pace_dump element H O

variable max_pace_gamma equal c_max_pace_gamma

timestep	0.0005						## timestep = 0.0005*ps = 0.5 fs

thermo		100
thermo_style custom step etotal pe ke press temp vol density c_max_pace_gamma


min_style cg
minimize 0.0 5.0e-4 10000 100000

CITE-CITE-CITE-CITE-CITE-CITE-CITE-CITE-CITE-CITE-CITE-CITE-CITE

Your simulation uses code contributions which should be cited:

- Type Label Framework: https://doi.org/10.1021/acs.jpcb.3c08419

@Article{Gissinger24,
 author = {Jacob R. Gissinger, Ilia Nikiforov, Yaser Afshar, Brendon Waters, Moon-ki Choi, Daniel S. Karls, Alexander Stukowski, Wonpil Im, Hendrik Heinz, Axel Kohlmeyer, and Ellad B. Tadmor},
 title = {Type Label Framework for Bonded Force Fields in LAMMPS},
 journal = {J. Phys. Chem. B},
 year =    2024,
 volume =  128,
 number =  13,
 pages =   {3282–-3297}
}

CITE-CITE-CITE-CITE-CITE-CITE-CITE-CITE-CITE-CITE-CITE-CITE-CITE

Switching to 'neigh_modify every 1 delay 0 check yes' setting during minimization
Neighbor list info ...
  update: every = 1 steps, delay = 0 steps, check = yes
  max neighbors/atom: 2000, page size: 100000
  master list distance cutoff = 6.5
  ghost atom cutoff = 6.5
  binsize = 6.5, bins = 4 4 6
  1 neighbor lists, perpetual/occasional/extra = 1 0 0
  (1) pair pace/extrapolation/kk, perpetual
      attributes: full, newton on, kokkos_device
      pair build: full/bin/kk/device
      stencil: full/bin/3d
      bin: kk/device
WARNING: Fix with atom-based arrays not compatible with sending data in Kokkos communication, switching to classic exchange/border communication (src/KOKKOS/comm_kokkos.cpp:754)
WARNING: Fix with atom-based arrays not compatible with Kokkos sorting on device, switching to classic host sorting (src/KOKKOS/atom_kokkos.cpp:216)
Per MPI rank memory allocation (min/avg/max) = 1808 | 1808 | 1808 Mbytes
   Step         TotEng         PotEng         KinEng         Press           Temp          Volume        Density     c_max_pace_gamma
         0  -10394.812     -10394.812      0              10356.492      0              14229.332      1.513704       0.94301683   
       100  -10405.399     -10405.399      0              6153.7788      0              14229.332      1.513704       0.94301683   
       200  -10407.585     -10407.585      0              6517.8061      0              14229.332      1.513704       0.94301683   
       300  -10408.546     -10408.546      0              6308.0662      0              14229.332      1.513704       0.94301683   
       400  -10408.808     -10408.808      0              6400.9968      0              14229.332      1.513704       0.94301683   
       500  -10408.847     -10408.847      0              6349.0177      0              14229.332      1.513704       0.94301683   
       600  -10408.847     -10408.847      0              6348.2979      0              14229.332      1.513704       0.94301683   
       700  -10408.848     -10408.848      0              6347.8061      0              14229.332      1.513704       0.94301683   
       800  -10408.849     -10408.849      0              6350.7955      0              14229.332      1.513704       0.94301683   
       900  -10408.849     -10408.849      0              6350.8996      0              14229.332      1.513704       0.94301683   
       910  -10408.849     -10408.849      0              6350.8892      0              14229.332      1.513704       0.94301683   
Loop time of 8.79446 on 1 procs for 910 steps with 2160 atoms

99.7% CPU use with 1 MPI tasks x 1 OpenMP threads

Minimization stats:
  Stopping criterion = force tolerance
  Energy initial, next-to-last, final = 
     -10394.8116753497  -10408.8486802948  -10408.8486803005
  Force two-norm initial, final = 17.431636 0.00047354145
  Force max component initial, final = 3.1552255 0.00017864252
  Final line search alpha, max atom move = 1 0.00017864252
  Iterations, force evaluations = 910 1816

MPI task timing breakdown:
Section |  min time  |  avg time  |  max time  |%varavg| %total
---------------------------------------------------------------
Pair    | 8.1056     | 8.1056     | 8.1056     |   0.0 | 92.17
Neigh   | 0.022277   | 0.022277   | 0.022277   |   0.0 |  0.25
Comm    | 0.05359    | 0.05359    | 0.05359    |   0.0 |  0.61
Output  | 0.0012186  | 0.0012186  | 0.0012186  |   0.0 |  0.01
Modify  | 0.37378    | 0.37378    | 0.37378    |   0.0 |  4.25
Other   |            | 0.238      |            |       |  2.71

Nlocal:           2160 ave        2160 max        2160 min
Histogram: 1 0 0 0 0 0 0 0 0 0
Nghost:           5975 ave        5975 max        5975 min
Histogram: 1 0 0 0 0 0 0 0 0 0
Neighs:              0 ave           0 max           0 min
Histogram: 1 0 0 0 0 0 0 0 0 0
FullNghs:       373386 ave      373386 max      373386 min
Histogram: 1 0 0 0 0 0 0 0 0 0

Total # of neighbors = 373386
Ave neighs/atom = 172.86389
Neighbor list builds = 51
Dangerous builds = 0

################## equilibration of main calculation
# Equilibrate to specified number of ice

fix             3 all nph aniso ${pressure} ${pressure} ${pressureDamp}
fix             3 all nph aniso 30000 ${pressure} ${pressureDamp}
fix             3 all nph aniso 30000 30000 ${pressureDamp}
fix             3 all nph aniso 30000 30000 1
fix             4 all temp/csvr ${temperature} ${temperature} ${tempDamp} ${seed}
fix             4 all temp/csvr 410 ${temperature} ${tempDamp} ${seed}
fix             4 all temp/csvr 410 410 ${tempDamp} ${seed}
fix             4 all temp/csvr 410 410 0.1 ${seed}
fix             4 all temp/csvr 410 410 0.1 89488
velocity 	all create ${temperature} ${seed} dist gaussian
velocity 	all create 410 ${seed} dist gaussian
velocity 	all create 410 89488 dist gaussian

run 200000
WARNING: Fix with atom-based arrays not compatible with Kokkos sorting on device, switching to classic host sorting (src/KOKKOS/atom_kokkos.cpp:216)
Per MPI rank memory allocation (min/avg/max) = 1810 | 1810 | 1810 Mbytes
   Step         TotEng         PotEng         KinEng         Press           Temp          Volume        Density     c_max_pace_gamma
       910  -10294.429     -10408.849      114.41979      14939.753      410            14229.332      1.513704       0.94301683   
      1000  -10270.504     -10323.503      52.998883      16705.064      189.9107       14165.815      1.5204911      0.82735757   
      1100  -10248.937     -10322.802      73.865109      22006.786      264.68057      14027.367      1.5354981      0.82735757   
      1200  -10229.74      -10317.236      87.495802      27464.009      313.52338      13877.033      1.5521327      0.82735757   
      1300  -10214.638     -10308.602      93.964734      34220.48       336.70348      13765.238      1.5647384      0.82735757   
      1400  -10202.171     -10302.333      100.16223      34909.506      358.91093      13721.092      1.5697728      0.82735757   
      1500  -10195.149     -10296.068      100.91869      35070.517      361.62157      13748.276      1.5666688      0.82735757   
      1600  -10188.643     -10294.467      105.82342      34645.877      379.19665      13837.976      1.5565135      0.82735757   
      1700  -10188.252     -10295.238      106.98595      31808.189      383.36235      13967.345      1.5420967      0.82735757   
      1800  -10188.137     -10294.107      105.96938      29215.652      379.7197       14102.392      1.5273293      0.82735757   
      1900  -10184.652     -10290.864      106.21186      29142.607      380.58858      14211.452      1.5156085      0.82735757   
      2000  -10181.802     -10292.057      110.25487      27147.69       395.07587      14282.711      1.5080468      0.7788531    
      2100  -10181.409     -10291.65       110.24145      26890.26       395.02777      14310.025      1.5051683      0.7788531    
      2200  -10178.521     -10288.448      109.92712      26659.752      393.90144      14300.402      1.5061812      0.7788531    
      2300  -10175.416     -10287.952      112.53541      28840.872      403.2477       14266.762      1.5097327      0.7788531    
      2400  -10175.175     -10288.201      113.0253       30026.627      405.00312      14220.577      1.5146359      0.7788531    
      2500  -10169.352     -10285.116      115.76394      31817.868      414.81649      14172.222      1.5198038      0.7788531    
      2600  -10169.304     -10281.734      112.42977      31876.031      402.86919      14135.003      1.5238056      0.7788531    
      2700  -10169.65      -10284.602      114.95208      33327.737      411.90736      14116.505      1.5258023      0.7788531    
      2800  -10170.087     -10283.852      113.76586      31638.751      407.65677      14120.21       1.5254019      0.7788531    
      2900  -10172.047     -10286.889      114.84167      31611.445      411.51173      14141.666      1.5230876      0.7788531    
      3000  -10171.411     -10287.877      116.46525      32178.544      417.3295       14168.441      1.5202094      0.87447411   
      3100  -10170.265     -10286.022      115.7563       31793.438      414.78912      14193.971      1.517475       0.87447411   
      3200  -10166.964     -10282.065      115.10073      28647.606      412.44002      14218.467      1.5148606      0.87447411   
      3300  -10165.683     -10282.993      117.30915      30485.771      420.35345      14242.768      1.512276       0.87447411   
      3400  -10167.398     -10284.856      117.45762      28078.15       420.88546      14263.872      1.5100386      0.87447411   
      3500  -10165.411     -10284.535      119.12345      29918.124      426.85463      14273.755      1.508993       0.87447411   
      3600  -10162.93      -10284.092      121.16251      25732.283      434.16117      14273.317      1.5090393      0.87447411   
      3700  -10164.544     -10285.854      121.30951      30964.798      434.68791      14263.137      1.5101163      0.87447411   
      3800  -10166.76      -10284.228      117.4685       33411.865      420.92443      14245.555      1.5119802      0.87447411   
      3900  -10171.437     -10289.083      117.64524      30477.516      421.55776      14225.907      1.5140685      0.87447411   
      4000  -10171.371     -10284.402      113.03098      30577.373      405.02351      14201.41       1.5166801      0.77036711   
      4100  -10171.48      -10288.621      117.14048      27702.22       419.74903      14177.926      1.5191924      0.77036711   
      4200  -10171.868     -10286.354      114.48638      31149.51       410.23861      14151.079      1.5220745      0.77036711   
      4300  -10171.565     -10285.668      114.10325      31508.319      408.86575      14128.147      1.5245451      0.77036711   
      4400  -10171.528     -10288.713      117.18553      30928.971      419.91048      14112.059      1.5262831      0.77036711   
      4500  -10170.329     -10288.962      118.63321      29382.248      425.09794      14098.221      1.5277812      0.77036711   
      4600  -10175.461     -10290.045      114.58306      28888.144      410.58505      14088.003      1.5288892      0.77036711   
      4700  -10176.501     -10289.918      113.41726      32468.308      406.40765      14077.763      1.5300013      0.77036711   
      4800  -10177.574     -10288.925      111.35076      29168.807      399.00278      14063.163      1.5315898      0.77036711   
      4900  -10179.089     -10291.671      112.58258      31041.815      403.41674      14044.284      1.5336486      0.77036711   
      5000  -10176.37      -10291.698      115.32757      28552.071      413.25285      14026.077      1.5356393      0.86259061   
      5100  -10177.809     -10291.253      113.4447       27497.885      406.50598      14010.298      1.5373689      0.86259061   
      5200  -10177.854     -10288.971      111.11726      29739.24       398.16608      13996.466      1.5388882      0.86259061   
      5300  -10175.294     -10289.397      114.10346      28836.482      408.86652      13988.881      1.5397227      0.86259061   
      5400  -10172.635     -10287.87       115.23452      31462.76       412.91944      13991.462      1.5394385      0.86259061   
      5500  -10174.291     -10287.794      113.50325      33222.435      406.71577      14011.652      1.5372203      0.86259061   
      5600  -10176.049     -10291.212      115.1631       27203.318      412.66353      14048.712      1.5331652      0.86259061   
      5700  -10175.961     -10287.164      111.20264      25684.76       398.472        14087.923      1.528898       0.86259061   
      5800  -10177.809     -10293.541      115.73158      24947.839      414.70056      14121.462      1.5252667      0.86259061   
      5900  -10180.391     -10294.025      113.63437      27370.867      407.1856       14132.767      1.5240466      0.86259061   
      6000  -10178.501     -10293.163      114.66165      28463.5        410.86667      14113.635      1.5261126      0.84853639   
      6100  -10175.778     -10293.283      117.50491      31500.343      421.0549       14071.243      1.5307103      0.84853639   
      6200  -10178.573     -10291.177      112.60444      32556.631      403.49509      14016.888      1.5366461      0.84853639   
      6300  -10173.686     -10286.648      112.96231      31466.272      404.77743      13964.187      1.5424454      0.84853639   
      6400  -10175.091     -10290.75       115.6583       33117.554      414.43795      13923.749      1.5469251      0.84853639   
      6500  -10172.762     -10288.006      115.24441      33565.137      412.95487      13902.671      1.5492704      0.84853639   
      6600  -10172.33      -10290.771      118.44183      32013.971      424.41217      13906.818      1.5488084      0.84853639   
      6700  -10173.974     -10288.656      114.68144      29567.891      410.93757      13933.311      1.5458635      0.84853639   
      6800  -10176.577     -10290.852      114.27483      30132.274      409.48058      13975.224      1.5412273      0.84853639   
      6900  -10181.914     -10296.219      114.30464      29154.017      409.58739      14015.533      1.5367947      0.84853639   
      7000  -10179.928     -10291.714      111.78615      29610.375      400.56291      14037.122      1.5344311      0.80991803   
      7100  -10176.279     -10290.646      114.36649      30315.058      409.80902      14038.469      1.5342838      0.80991803   
      7200  -10176.619     -10293.461      116.8427       29984.39       418.682        14017.717      1.5365553      0.80991803   
      7300  -10177.857     -10292.932      115.07589      29994.079      412.35102      13978.198      1.5408994      0.80991803   
      7400  -10178.798     -10294.991      116.19346      30607.762      416.3556       13926.221      1.5466505      0.80991803   
      7500  -10176.907     -10294.184      117.27697      35094.638      420.23813      13868.511      1.5530865      0.80991803   
      7600  -10177.451     -10294.035      116.58384      32975.325      417.75446      13821.952      1.558318       0.80991803   
      7700  -10180.234     -10293.706      113.47162      31914.936      406.60244      13798.416      1.560976       0.80991803   
      7800  -10180.789     -10292.22       111.43048      28331.465      399.28841      13799.257      1.5608809      0.80991803   
      7900  -10181.388     -10294.27       112.88239      27894.312      404.49107      13822.6        1.5582449      0.80991803   
      8000  -10183.789     -10297.3        113.51115      26472.108      406.7441       13854.505      1.5546565      0.87162081   
      8100  -10185.181     -10299.185      114.00409      25595.409      408.51044      13881.712      1.5516095      0.87162081   
      8200  -10182.094     -10294.305      112.21125      29498.243      402.08616      13900.409      1.5495225      0.87162081   
      8300  -10182.132     -10298.911      116.77984      29908.513      418.45677      13913.127      1.548106       0.87162081   
      8400  -10185.633     -10297.043      111.41035      33185.953      399.2163       13911.498      1.5482873      0.87162081   
      8500  -10185.442     -10298.403      112.96175      31657.399      404.77541      13899.204      1.5496568      0.87162081   
      8600  -10183.497     -10297.122      113.62461      32626.6        407.15064      13879.062      1.5519058      0.87162081   
      8700  -10185.721     -10299.991      114.27015      30430.702      409.46382      13854.903      1.5546119      0.87162081   
      8800  -10188.275     -10300.935      112.65967      30615.169      403.69299      13822.291      1.5582797      0.87162081   
      8900  -10188.36      -10297.728      109.36756      28825.196      391.89635      13785.371      1.5624532      0.87162081   
      9000  -10188.18      -10300.119      111.93876      29162.154      401.10973      13752.996      1.5661313      0.90791385   
      9100  -10186.321     -10299.565      113.24414      31656.938      405.7873       13726.611      1.5691416      0.90791385   
      9200  -10185.645     -10298.59       112.94518      32128.875      404.71603      13711.394      1.5708831      0.90791385   
      9300  -10184.29      -10298.63       114.34048      30882.911      409.71583      13715.008      1.5704691      0.90791385   
      9400  -10184.068     -10298.706      114.63812      32894.579      410.78234      13742.194      1.5673622      0.90791385   
      9500  -10185.29      -10299.013      113.72324      27193.164      407.50408      13783.549      1.5626597      0.90791385   
      9600  -10185.721     -10298.677      112.9556       29325.059      404.75338      13832.524      1.557127       0.90791385   
      9700  -10184.414     -10297.628      113.21316      30268.854      405.67631      13876.14       1.5522326      0.90791385   
      9800  -10185.258     -10299.813      114.55481      30691.982      410.48382      13906.509      1.5488428      0.90791385   
      9900  -10186.558     -10297.425      110.86678      28073.863      397.26852      13920.004      1.5473413      0.90791385   
     10000  -10183.844     -10300.7        116.85641      23903.167      418.73114      13916.226      1.5477614      0.82118028   
     10100  -10183.825     -10296.501      112.67564      24982.658      403.75019      13894.038      1.550233       0.82118028   
     10200  -10183.269     -10298.284      115.01541      23211.754      412.13427      13857.132      1.5543618      0.82118028   
     10300  -10179.673     -10298.981      119.3089       26496.022      427.51915      13815.843      1.559007       0.82118028   
     10400  -10179.001     -10292.497      113.49591      29667.841      406.68946      13780.112      1.5630495      0.82118028   
     10500  -10179.528     -10294.184      114.65572      31190.89       410.84543      13762.683      1.5650289      0.82118028   
     10600  -10183.153     -10301.695      118.54254      28070.941      424.77304      13768.743      1.5643401      0.82118028   
     10700  -10184.386     -10297.869      113.48256      28773.74       406.64162      13790.962      1.5618197      0.82118028   
     10800  -10184.073     -10297.567      113.49343      30597.03       406.68059      13826.088      1.5578518      0.82118028   
     10900  -10184.548     -10298.788      114.23938      29856.362      409.35356      13864.539      1.5535314      0.82118028   
     11000  -10182.728     -10297.778      115.04999      28238.42       412.2582       13892.852      1.5503654      0.84400786   
     11100  -10181.884     -10296.071      114.18701      29156.116      409.16588      13908.127      1.5486626      0.84400786   
     11200  -10183.035     -10297.689      114.65373      28987.496      410.83827      13908.007      1.548676       0.84400786   
     11300  -10183.39      -10302.339      118.94955      29494.59       426.23148      13887.369      1.5509774      0.84400786   
     11400  -10181.873     -10297.638      115.76469      29954.901      414.81918      13848.755      1.555302       0.84400786   
     11500  -10183.988     -10297.164      113.17539      26180.048      405.54097      13804.213      1.5603205      0.84400786   
     11600  -10181.958     -10298.696      116.7382       25136.083      418.30754      13762.981      1.564995       0.84400786   
     11700  -10183.742     -10297.591      113.84971      31263.309      407.95724      13732.177      1.5685056      0.84400786   
     11800  -10184.541     -10297.489      112.9485       30764.253      404.72794      13717.463      1.5701881      0.84400786   
     11900  -10183.578     -10299.969      116.39037      30903.177      417.06118      13720.637      1.5698249      0.84400786   
     12000  -10186.811     -10299.072      112.26105      29392.854      402.26459      13740.207      1.567589       0.82710776   
     12100  -10185.031     -10301.84       116.80929      29522.037      418.56231      13774.289      1.5637103      0.82710776   
     12200  -10189.589     -10302.859      113.2701       26119.688      405.88031      13816.074      1.558981       0.82710776   
     12300  -10188.19      -10304.37       116.18         27589.167      416.30735      13854.082      1.554704       0.82710776   
     12400  -10190.423     -10299.733      109.30946      26487.674      391.68819      13876.374      1.5522063      0.82710776   
     12500  -10187.583     -10300.223      112.63991      29732.071      403.62218      13881.523      1.5516307      0.82710776   
     12600  -10187.763     -10298.128      110.36563      30316.547      395.47273      13862.541      1.5537552      0.82710776   
     12700  -10182.689     -10297.331      114.64178      28151.927      410.79545      13824.798      1.5579972      0.82710776   
     12800  -10182.888     -10296.03       113.14143      29162.243      405.41927      13779.446      1.563125       0.82710776   
     12900  -10182.87      -10300.172      117.30177      29937.872      420.32699      13737.086      1.5679451      0.82710776   
     13000  -10182.807     -10297.295      114.48754      31251.923      410.24278      13704.645      1.5716566      0.85100931   
     13100  -10184.377     -10298.966      114.58915      28307.511      410.60687      13693.162      1.5729747      0.85100931   
     13200  -10181.098     -10297.124      116.02634      31301.273      415.75677      13701.971      1.5719633      0.85100931   
     13300  -10185.817     -10299.531      113.71432      29583.225      407.47211      13727.949      1.5689887      0.85100931   
     13400  -10186.675     -10302.483      115.80738      31919.438      414.97214      13765.565      1.5647012      0.85100931   
     13500  -10189.537     -10300.746      111.209        32893.874      398.49481      13804.853      1.5602482      0.85100931   
     13600  -10191.182     -10305.302      114.11939      30428.628      408.9236       13832.078      1.5571772      0.85100931   
     13700  -10193.221     -10305.191      111.97013      29722.811      401.22216      13834.14       1.5569451      0.85100931   
     13800  -10189.677     -10304.604      114.92761      29782.302      411.81967      13811.83       1.55946        0.85100931   
     13900  -10188.684     -10303.843      115.15925      31407.75       412.64972      13770.828      1.5641032      0.85100931   
     14000  -10184.739     -10299.061      114.32173      32270.84       409.64861      13724.578      1.569374       0.89890708   
     14100  -10186.768     -10300.659      113.89151      31502.72       408.10703      13682.771      1.5741692      0.89890708   
     14200  -10183.523     -10300.266      116.74345      33788.682      418.32637      13651.851      1.5777345      0.89890708   
     14300  -10181.012     -10297.011      115.99916      35752.04       415.65937      13638.364      1.5792947      0.89890708   
     14400  -10183.811     -10300.494      116.6833       34877.686      418.11082      13649.049      1.5780584      0.89890708   
     14500  -10185.497     -10300.717      115.22013      29551.937      412.86786      13679.639      1.5745297      0.89890708   
     14600  -10188.225     -10299.55       111.32543      32588.355      398.91199      13722.477      1.5696144      0.89890708   
     14700  -10186.895     -10301.148      114.25277      31177.42       409.40153      13764.891      1.5647779      0.89890708   
     14800  -10185.709     -10302.791      117.08168      28245.179      419.53834      13798.471      1.5609698      0.89890708   
     14900  -10186.946     -10301.73       114.78415      30336.27       411.30562      13816.526      1.55893        0.89890708   
     15000  -10187.582     -10302.135      114.55291      27946.901      410.477        13811.413      1.5595071      0.92815      
     15100  -10185.592     -10299.73       114.13816      29119.383      408.99086      13785.095      1.5624845      0.92815      
     15200  -10186.384     -10297.747      111.36294      30777.85       399.0464       13745.844      1.566946       0.92815      
     15300  -10188.395     -10298.513      110.118        32589.495      394.58542      13696.826      1.5725538      0.92815      
     15400  -10188.933     -10304.49       115.55659      32576.99       414.0735       13652.252      1.5776882      0.92815      
     15500  -10186.673     -10300.944      114.27179      29673.563      409.46969      13617.196      1.5817498      0.92815      
     15600  -10186.47      -10300.292      113.82229      32221.261      407.859        13603.488      1.5833437      0.92815      
     15700  -10188.033     -10305.729      117.69688      32355.451      421.7428       13613.249      1.5822084      0.92815      
     15800  -10191.369     -10305.903      114.53358      33959.266      410.40777      13638.006      1.5793362      0.92815      
     15900  -10193.31      -10304.017      110.70664      31639.315      396.69468      13671.282      1.5754921      0.92815      
     16000  -10189.657     -10304.282      114.62553      28854.564      410.73723      13711.842      1.5708317      0.88369274   
     16100  -10193.162     -10305.247      112.08543      26428.786      401.63531      13745.933      1.5669359      0.88369274   
     16200  -10190.566     -10301.418      110.85246      28480.017      397.2172       13767.468      1.5644849      0.88369274   
     16300  -10192.365     -10305.241      112.87672      27299.834      404.47075      13770.847      1.5641011      0.88369274   
     16400  -10192.055     -10305.549      113.49424      27232.712      406.6835       13752.677      1.5661676      0.88369274   
     16500  -10190.978     -10305.456      114.47831      30930.871      410.20972      13716.414      1.5703082      0.88369274   
     16600  -10187.653     -10301.189      113.53561      33788.974      406.83173      13676.214      1.5749239      0.88369274   
     16700  -10186.572     -10302.777      116.2051       30200.807      416.39729      13644.709      1.5785604      0.88369274   
     16800  -10188.869     -10305.501      116.63269      30560.924      417.92948      13623.887      1.580973       0.88369274   
     16900  -10184.815     -10299.238      114.42262      31221.762      410.01015      13615.448      1.5819528      0.88369274   
     17000  -10182.58      -10299.478      116.89844      33915.067      418.88175      13625.389      1.5807986      0.95196622   
     17100  -10187.745     -10303.27       115.52442      32062.33       413.95821      13657.612      1.577069       0.95196622   
     17200  -10187.105     -10301.986      114.8804       29755.824      411.6505       13703.483      1.57179        0.95196622   
     17300  -10185.565     -10301.888      116.3239       29343.499      416.82301      13750.106      1.5664604      0.95196622   
     17400  -10185.545     -10299.566      114.02158      27613.681      408.57309      13789.795      1.5619519      0.95196622   
     17500  -10190.169     -10306.988      116.81909      23570.481      418.5974       13812.504      1.5593839      0.95196622   
     17600  -10187.536     -10299.46       111.9238       27620.781      401.05615      13803.817      1.5603653      0.95196622   
     17700  -10188.17      -10300.204      112.03349      28103.993      401.44919      13777.972      1.5632922      0.95196622   
     17800  -10185.577     -10302.993      117.41651      27860.911      420.73813      13736.383      1.5680254      0.95196622   
     17900  -10184.233     -10299.384      115.15147      27966.263      412.62183      13688.68       1.5734897      0.95196622   
     18000  -10185.287     -10303.384      118.09708      33415.211      423.17683      13647.408      1.5782481      0.89288341   
     18100  -10185.906     -10300.828      114.92157      32012.026      411.79802      13622.554      1.5811276      0.89288341   
     18200  -10183.568     -10301.419      117.85059      29544.234      422.29358      13618.921      1.5815494      0.89288341   
     18300  -10189.348     -10302.227      112.87908      31413.872      404.47917      13636.679      1.5794898      0.89288341   
     18400  -10191.636     -10304.542      112.90515      28575.918      404.57261      13667.745      1.5758998      0.89288341   
     18500  -10194.827     -10305.814      110.98677      26522.929      397.69849      13697.861      1.572435       0.89288341   
     18600  -10198.329     -10307.23       108.90138      26558.751      390.22593      13713.995      1.5705851      0.89288341   
     18700  -10197.063     -10309.498      112.43506      25933.686      402.88812      13710.559      1.5709787      0.89288341   
     18800  -10193.887     -10306.73       112.84344      25100.382      404.35148      13691.053      1.5732169      0.89288341   
     18900  -10193.282     -10306.642      113.3597       24341.099      406.2014       13665.584      1.576149       0.89288341   
     19000  -10191.535     -10303.805      112.27076      28906.908      402.2994       13636.527      1.5795075      0.93217032   
     19100  -10192.081     -10303.463      111.38146      29926.914      399.11278      13611.856      1.5823703      0.93217032   
     19200  -10195.141     -10305.157      110.01577      32343.949      394.2191       13594.997      1.5843325      0.93217032   
     19300  -10195.098     -10309.274      114.17602      31032.924      409.1265       13586.984      1.5852669      0.93217032   
     19400  -10192.238     -10305.664      113.42535      30317.536      406.43662      13590.521      1.5848544      0.93217032   
     19500  -10191.451     -10305.981      114.52935      30037.614      410.39258      13607.151      1.5829174      0.93217032   
     19600  -10190.104     -10304.846      114.74183      33573.393      411.15398      13634.694      1.5797198      0.93217032   
     19700  -10189.667     -10305.907      116.24053      30396.379      416.52426      13669.339      1.575716       0.93217032   
     19800  -10189.048     -10302.551      113.50222      30150.498      406.71207      13701.659      1.5719991      0.93217032   
     19900  -10190.748     -10301.97       111.22205      25502.369      398.54156      13727.425      1.5690486      0.93217032   
     20000  -10189.576     -10302.862      113.286        26046.272      405.93732      13746.077      1.5669196      0.9181585    
     20100  -10193.897     -10307.715      113.81747      29605.597      407.84171      13748.7        1.5666205      0.9181585    
     20200  -10193.33      -10307.503      114.17287      30629.202      409.11524      13728.365      1.5689412      0.9181585    
     20300  -10193.078     -10305.113      112.03524      28208.839      401.45547      13690.467      1.5732843      0.9181585    
     20400  -10188.552     -10303.159      114.60685      27290.968      410.6703       13641.959      1.5788785      0.9181585    
     20500  -10189.055     -10306.643      117.58778      27626.099      421.35185      13598.981      1.5838684      0.9181585    
     20600  -10187.949     -10302.101      114.15189      32133.131      409.04004      13566.011      1.5877177      0.9181585    
     20700  -10188.997     -10303.571      114.5735       30870.927      410.55079      13556.236      1.5888626      0.9181585    
     20800  -10190.251     -10302.894      112.64327      30441.247      403.63421      13571.259      1.5871038      0.9181585    
     20900  -10192.267     -10303.747      111.47964      30702.117      399.46459      13602.875      1.583415       0.9181585    
     21000  -10192.243     -10307.194      114.95164      30648.144      411.90577      13641.721      1.578906       1.0539574    
     21100  -10188.989     -10302.397      113.40767      31830.587      406.37329      13678.993      1.574604       1.0539574    
     21200  -10191.767     -10304.22       112.45267      33362.921      402.95123      13711.255      1.5708989      1.0539574    
     21300  -10189.275     -10305.687      116.41232      32347.277      417.13982      13732.409      1.5684791      1.0539574    
     21400  -10191.451     -10301.436      109.98559      28922.132      394.11097      13736.859      1.5679709      1.0539574    
     21500  -10190.588     -10304.92       114.33248      31972.648      409.68715      13726.679      1.5691339      1.0539574    
     21600  -10191.88      -10306.053      114.17316      30079.966      409.11626      13699.97       1.5721929      1.0539574    
     21700  -10190.012     -10301.653      111.64135      31545.729      400.04404      13667.362      1.5759439      1.0539574    
     21800  -10190.453     -10304.195      113.74186      33019.487      407.5708       13641.869      1.5788889      1.0539574    
     21900  -10192.739     -10304.844      112.10458      31334.24       401.70393      13623.37       1.5810329      1.0539574    
     22000  -10193.911     -10305.229      111.31875      30192.584      398.88807      13613.84       1.5821397      0.85415606   
     22100  -10192.802     -10308.142      115.3408       30373.621      413.30025      13615.298      1.5819702      0.85415606   
     22200  -10194.643     -10305.797      111.15402      29957.905      398.2978       13628.32       1.5804587      0.85415606   
     22300  -10195.393     -10305.957      110.56321      29748.529      396.18074      13654.164      1.5774673      0.85415606   
     22400  -10194.779     -10305.62       110.84081      32132.536      397.17546      13681.181      1.5743521      0.85415606   
     22500  -10196.337     -10308.319      111.98217      27771.805      401.26528      13704.007      1.5717298      0.85415606   
     22600  -10195.513     -10307.87       112.35668      27324.489      402.60726      13720.255      1.5698686      0.85415606   
     22700  -10193.431     -10307.794      114.36265      28735.03       409.79525      13727.431      1.5690479      0.85415606   
     22800  -10187.636     -10302.345      114.70926      31490.76       411.03728      13724.504      1.5693826      0.85415606   
     22900  -10185.129     -10300.121      114.99216      31044.22       412.05098      13722.233      1.5696423      0.85415606   
     23000  -10185.778     -10302.677      116.89822      31544.044      418.88097      13722.303      1.5696343      0.82567319   
     23100  -10189.736     -10306.231      116.4952       30572.675      417.43681      13721.05       1.5697775      0.82567319   
     23200  -10188.263     -10300.839      112.57524      29301.437      403.39045      13714.138      1.5705688      0.82567319   
     23300  -10188.654     -10305.275      116.62138      28031.298      417.88896      13709.018      1.5711553      0.82567319   
     23400  -10189.569     -10305.278      115.70847      32301.655      414.61772      13706.076      1.5714926      0.82567319   
     23500  -10186.117     -10303.114      116.99769      32004.37       419.23738      13703.582      1.5717786      0.82567319   
     23600  -10185.782     -10304.836      119.05397      31962.693      426.60565      13702.987      1.5718469      0.82567319   
     23700  -10187.356     -10303.857      116.50121      33043.255      417.45835      13701.953      1.5719654      0.82567319   
     23800  -10184.501     -10303.115      118.61392      33396.155      425.02882      13704.661      1.5716548      0.82567319   
     23900  -10182.047     -10298.017      115.96945      29329.89       415.55291      13715.632      1.5703976      0.82567319   
     24000  -10183         -10299.69       116.68986      29193.037      418.13435      13732.865      1.568427       0.96459196   
     24100  -10183.707     -10301.115      117.40758      29265.087      420.70615      13752.115      1.5662315      0.96459196   
     24200  -10185.771     -10300.924      115.15275      29713.048      412.62643      13767.57       1.5644734      0.96459196   
     24300  -10188.206     -10303.294      115.08776      27834.798      412.39356      13771.077      1.5640749      0.96459196   
     24400  -10188.131     -10300.379      112.24789      29136.509      402.21745      13756.903      1.5656864      0.96459196   
     24500  -10184.665     -10304.192      119.52686      29302.998      428.30016      13728.629      1.568911       0.96459196   
     24600  -10183.021     -10299.842      116.82142      30886.945      418.60575      13692.169      1.5730887      0.96459196   
     24700  -10181.875     -10299.9        118.02417      30253.172      422.91558      13661.067      1.5766701      0.96459196   
     24800  -10183.714     -10300.514      116.80006      31439.019      418.52923      13643.002      1.5787579      0.96459196   
     24900  -10186.221     -10301.318      115.09725      32687.563      412.42756      13641.197      1.5789668      0.96459196   
     25000  -10187.598     -10303.269      115.67117      31474.801      414.48407      13653.815      1.5775076      0.82852159   
     25100  -10188.921     -10303.844      114.92213      28000.999      411.80005      13677.062      1.5748262      0.82852159   
     25200  -10187.827     -10302.55       114.72254      26556.574      411.08485      13703.521      1.5717856      0.82852159   
     25300  -10186.984     -10303.102      116.11849      25884.895      416.08694      13728.075      1.5689743      0.82852159   
     25400  -10189.566     -10304.459      114.89289      27236.359      411.69525      13745.956      1.5669333      0.82852159   
     25500  -10188.757     -10305.224      116.46666      26630.515      417.33457      13751.812      1.5662661      0.82852159   
     25600  -10189.36      -10303.556      114.19592      25035.498      409.19782      13742.745      1.5672995      0.82852159   
     25700  -10189.759     -10304.222      114.46382      27409.51       410.15779      13712.929      1.5707072      0.82852159   
     25800  -10186.406     -10300.054      113.64764      34088.686      407.23318      13669.892      1.5756523      0.82852159   
     25900  -10189.807     -10301.522      111.7155       32325.023      400.30972      13627.064      1.5806044      0.82852159   
     26000  -10188.567     -10302.912      114.345        32231.181      409.73203      13589.018      1.5850296      0.91140734   
     26100  -10189.563     -10302.139      112.57621      34742.744      403.39391      13562.309      1.5881512      0.91140734   
     26200  -10193.234     -10305.334      112.10056      35280.485      401.68951      13554.026      1.5891216      0.91140734   
     26300  -10193.811     -10306.48       112.66846      35022.09       403.72446      13563.248      1.5880412      0.91140734   
     26400  -10193.306     -10305.712      112.40534      29926.408      402.78164      13583.688      1.5856516      0.91140734   
     26500  -10195.02      -10308.258      113.23811      27883.566      405.76569      13611.256      1.58244        0.91140734   
     26600  -10193.213     -10307.124      113.9111       30267.783      408.17722      13643.59       1.5786898      0.91140734   
     26700  -10192.221     -10301.452      109.23114      30454.428      391.40753      13677.341      1.5747942      0.91140734   
     26800  -10191.075     -10304.584      113.50835      31184.047      406.73406      13705.546      1.5715533      0.91140734   
     26900  -10192.751     -10306.539      113.788        29539.855      407.73612      13722.247      1.5696406      0.91140734   
     27000  -10189.873     -10303.84       113.96659      26983.632      408.37607      13724.408      1.5693935      0.8802285    
     27100  -10190.305     -10302.463      112.15763      29711.672      401.894        13709.985      1.5710445      0.8802285    
     27200  -10188.901     -10304.898      115.99674      30555.07       415.65067      13682.966      1.5741468      0.8802285    
     27300  -10189.591     -10304.74       115.14947      32378.473      412.61465      13649.857      1.5779649      0.8802285    
     27400  -10188.754     -10306.166      117.41221      31022.654      420.72273      13622.271      1.5811605      0.8802285    
     27500  -10187.518     -10305.888      118.37073      29649.403      424.15739      13601.282      1.5836004      0.8802285    
     27600  -10190.345     -10303.372      113.02649      30307.699      405.0074       13594.856      1.584349       0.8802285    
     27700  -10192.001     -10306.391      114.39018      33703.159      409.89389      13600.275      1.5837177      0.8802285    
     27800  -10190.385     -10304.347      113.96205      35008.128      408.35977      13614.307      1.5820854      0.8802285    
     27900  -10188.804     -10303.522      114.71847      32086.894      411.07026      13634.916      1.5796941      0.8802285    
     28000  -10185.597     -10303.634      118.03711      32704.228      422.96193      13663.972      1.5763349      0.82892547   
     28100  -10187.23      -10304.885      117.65542      31931.902      421.59423      13695.164      1.5727447      0.82892547   
     28200  -10189.971     -10301.526      111.55565      28722.611      399.73693      13718.795      1.5700355      0.82892547   
     28300  -10189.008     -10305.275      116.26749      29113.834      416.62086      13734.935      1.5681907      0.82892547   
     28400  -10187.845     -10305.587      117.74153      29596.189      421.90278      13738.577      1.5677749      0.82892547   
     28500  -10188.333     -10303.753      115.41972      30868.66       413.58304      13729.064      1.5688613      0.82892547   
     28600  -10192.199     -10307.563      115.36396      27695.524      413.38325      13709.784      1.5710676      0.82892547   
     28700  -10189.618     -10306.917      117.29911      29254.855      420.31747      13683.12       1.5741291      0.82892547   
     28800  -10190.294     -10304.244      113.94924      29015.212      408.31389      13654.741      1.5774006      0.82892547   
     28900  -10189.654     -10301.484      111.83047      27692.187      400.72172      13632.032      1.5800283      0.82892547   
     29000  -10190.685     -10305.34       114.65468      26668.565      410.84169      13623.31       1.5810399      0.8424227    
     29100  -10192.959     -10305.633      112.67409      29890.571      403.74463      13623.986      1.5809614      0.8424227    
     29200  -10195.115     -10307.881      112.76589      31468.307      404.07358      13631.99       1.5800332      0.8424227    
     29300  -10192.137     -10304.846      112.70839      29504.055      403.86757      13644.512      1.5785832      0.8424227    
     29400  -10193.551     -10306.839      113.28863      31181.931      405.94672      13659.346      1.5768688      0.8424227    
     29500  -10194.547     -10307.904      113.35629      31133.171      406.18916      13674.07       1.5751708      0.8424227    
     29600  -10194.625     -10303.814      109.18952      32031.094      391.25842      13685.997      1.5737981      0.8424227    
     29700  -10194.527     -10307.274      112.74703      28947.867      404.00602      13692.347      1.5730682      0.8424227    
     29800  -10193.218     -10306.368      113.14919      31178.355      405.44706      13688.51       1.5735093      0.8424227    
     29900  -10190.14      -10304.289      114.14855      26515.236      409.02807      13681.274      1.5743415      0.8424227    
     30000  -10191.848     -10305.879      114.031        25029.479      408.60686      13673.879      1.5751928      0.93216533   
     30100  -10190.497     -10306.368      115.87088      29790.974      415.1997       13663.163      1.5764283      0.93216533   
     30200  -10192.336     -10305.461      113.12465      30889.568      405.35915      13654.031      1.5774826      0.93216533   
     30300  -10192.45      -10307.641      115.19157      30015.066      412.76553      13647.699      1.5782144      0.93216533   
     30400  -10193.106     -10304.559      111.45288      31416.616      399.3687       13645.167      1.5785073      0.93216533   
     30500  -10194.38      -10309.276      114.89577      30701.166      411.70557      13645.265      1.578496       0.93216533   
     30600  -10190.71      -10306.66       115.94938      30254.923      415.48098      13645.469      1.5784724      0.93216533   
     30700  -10186.191     -10299.337      113.14628      32223.069      405.43665      13648.507      1.578121       0.93216533   
     30800  -10186.343     -10305.244      118.90145      28720.459      426.05911      13662.066      1.5765549      0.93216533   
     30900  -10190.04      -10304.215      114.17473      29135.025      409.12188      13678.439      1.5746677      0.93216533   
     31000  -10190.628     -10305.894      115.26567      29753.453      413.03106      13692.074      1.5730996      0.8260557    
     31100  -10191.532     -10305.051      113.51943      30282.594      406.77374      13701.931      1.571968       0.8260557    
     31200  -10192.792     -10306.348      113.55614      31090.275      406.90528      13703.401      1.5717994      0.8260557    
     31300  -10192.865     -10303.504      110.63913      30354.503      396.45279      13693.631      1.5729207      0.8260557    
     31400  -10194.223     -10307.26       113.03684      30175.059      405.04449      13676.394      1.5749032      0.8260557    
     31500  -10190.823     -10304.918      114.0948       29626.327      408.83547      13650.914      1.5778428      0.8260557    
     31600  -10191.137     -10305.306      114.16912      30509.254      409.10179      13627.565      1.5805462      0.8260557    
     31700  -10192.878     -10305.907      113.02873      29837.517      405.01543      13610.533      1.5825241      0.8260557    
     31800  -10192.588     -10307.123      114.53475      29809.08       410.41194      13600.869      1.5836486      0.8260557    
     31900  -10194.412     -10305.218      110.80573      30915.783      397.04977      13598.747      1.5838956      0.8260557    
     32000  -10196.304     -10307.106      110.80196      27915.566      397.03625      13609.181      1.5826813      0.85143578   
     32100  -10197.587     -10308.95       111.36298      28031.666      399.04655      13627.079      1.5806026      0.85143578   
     32200  -10194.848     -10305.424      110.576        32671.633      396.22658      13646.083      1.5784014      0.85143578   
     32300  -10195.022     -10307.361      112.33836      26540.171      402.54162      13666.314      1.5760648      0.85143578   
     32400  -10195.301     -10306.229      110.9278       28240.227      397.48719      13680.305      1.574453       0.85143578   
     32500  -10195.189     -10306.68       111.49168      28895.211      399.50774      13685.002      1.5739126      0.85143578   
     32600  -10193.329     -10306.27       112.94078      28625.271      404.70028      13681.396      1.5743274      0.85143578   
     32700  -10191.469     -10305.658      114.18956      27659.451      409.17502      13672.938      1.5753012      0.85143578   
     32800  -10191.782     -10305.161      113.37974      28919.332      406.27322      13661.931      1.5765704      0.85143578   
     32900  -10190.742     -10304.703      113.96171      29339.026      408.35855      13656.225      1.5772291      0.85143578   
     33000  -10190.988     -10306.461      115.47267      30115.727      413.77279      13655.256      1.5773412      0.83254841   
     33100  -10193.456     -10305.017      111.56135      29126.581      399.75735      13660.485      1.5767373      0.83254841   
     33200  -10194.081     -10306.146      112.06479      29195.839      401.56136      13667.813      1.5758919      0.83254841   
     33300  -10195.02      -10308.077      113.05624      24263.267      405.114        13672.808      1.5753163      0.83254841   
     33400  -10194.005     -10306.187      112.18116      29049.294      401.97834      13672.699      1.5753289      0.83254841   
     33500  -10192.228     -10303.582      111.35432      29695.988      399.01553      13665.513      1.5761572      0.83254841   
     33600  -10192.16      -10305.854      113.69386      29494.892      407.39879      13656.563      1.5771901      0.83254841   
     33700  -10191.912     -10307.62       115.70829      30489.773      414.61709      13649.185      1.5780427      0.83254841   
     33800  -10189.132     -10305.256      116.1238       32346.012      416.10597      13648.019      1.5781775      0.83254841   
     33900  -10188.469     -10304.508      116.03936      29847.642      415.80342      13655.307      1.5773352      0.83254841   
     34000  -10189.883     -10302.723      112.84003      29764.457      404.33927      13669.713      1.5756729      0.83070225   
     34100  -10190.221     -10304.435      114.21378      29107.594      409.26183      13690.238      1.5733106      0.83070225   
     34200  -10192.265     -10306.515      114.24992      26917.71       409.39133      13707.673      1.5713095      0.83070225   
     34300  -10192.49      -10304.442      111.9523       28800.288      401.15825      13716.657      1.5702803      0.83070225   
     34400  -10191.989     -10307.771      115.78247      28102.431      414.88289      13719.22       1.5699869      0.83070225   
     34500  -10191.909     -10305.491      113.58226      29646.544      406.99891      13713.122      1.5706851      0.83070225   
     34600  -10192.623     -10306.582      113.95854      29529.475      408.3472       13693.465      1.5729398      0.83070225   
     34700  -10193.241     -10307.271      114.02993      27815.874      408.60301      13668.723      1.5757871      0.83070225   
     34800  -10193.612     -10306.705      113.09312      27905.176      405.24617      13644.874      1.5785413      0.83070225   
     34900  -10191.457     -10304.616      113.15894      31813.681      405.48201      13624.426      1.5809104      0.83070225   
     35000  -10189.761     -10304.941      115.17976      32314.371      412.72321      13615.367      1.5819622      0.92001252   
     35100  -10190.33      -10304.658      114.32831      33324.288      409.6722       13621.135      1.5812923      0.92001252   
     35200  -10192.38      -10303.91       111.52967      33764.752      399.64385      13638.995      1.5792216      0.92001252   
     35300  -10189.044     -10304.736      115.69234      35372.453      414.55992      13662.411      1.5765151      0.92001252   
     35400  -10188.535     -10304.519      115.98469      33415.214      415.60752      13683.537      1.574081       0.92001252   
     35500  -10186.005     -10303.491      117.48632      30644.555      420.9883       13701.017      1.5720729      0.92001252   
     35600  -10186.165     -10300.6        114.43508      28629.159      410.05479      13711.996      1.5708141      0.92001252   
     35700  -10186.122     -10306.17       120.04843      27967.777      430.16911      13719.565      1.5699475      0.92001252   
     35800  -10188.197     -10305.498      117.30151      27170.077      420.32607      13717.599      1.5701725      0.92001252   
     35900  -10188.807     -10301.693      112.8851       33724.397      404.50077      13703.027      1.5718423      0.92001252   
     36000  -10190.307     -10306.129      115.82266      32553.022      415.02692      13681.233      1.5743461      0.95535051   
     36100  -10188.224     -10301.484      113.26018      29929.5        405.84477      13654.715      1.5774035      0.95535051   
     36200  -10186.097     -10304.774      118.67692      29980.891      425.25456      13632.17       1.5800123      0.95535051   
     36300  -10184.792     -10301.048      116.25584      31554.05       416.57911      13619.136      1.5815245      0.95535051   
     36400  -10183.748     -10301.508      117.7606       32582.31       421.97111      13620.712      1.5813414      0.95535051   
     36500  -10184.232     -10299.847      115.6149       31988.704      414.28246      13636.836      1.5794717      0.95535051   
     36600  -10185.625     -10305.126      119.50104      27202.182      428.20763      13667.913      1.5758804      0.95535051   
     36700  -10184.73      -10301.883      117.15231      31389.089      419.79145      13700.411      1.5721424      0.95535051   
     36800  -10187.112     -10303.127      116.01564      28875.917      415.71842      13730.734      1.5686704      0.95535051   
     36900  -10189.427     -10304.773      115.34625      30063.468      413.31979      13748.928      1.5665946      0.95535051   
     37000  -10187.863     -10304.001      116.13868      31467.973      416.1593       13742.675      1.5673074      0.91000461   
     37100  -10188.488     -10303.734      115.24615      31408.314      412.96111      13719.678      1.5699346      0.91000461   
     37200  -10190.414     -10303.825      113.41035      30275.054      406.38287      13685.482      1.5738574      0.91000461   
     37300  -10190.977     -10306.383      115.40615      29982.353      413.53444      13643.678      1.5786796      0.91000461   
     37400  -10190.458     -10305.151      114.69332      29788.201      410.98015      13601.32       1.5835961      0.91000461   
     37500  -10188.903     -10303.325      114.42264      32092.784      410.0102       13569.217      1.5873426      0.91000461   
     37600  -10191.431     -10305.177      113.74636      34017.044      407.58691      13551.946      1.5893656      0.91000461   
     37700  -10190.914     -10303.917      113.00334      37358.864      404.92444      13553.863      1.5891408      0.91000461   
     37800  -10190.404     -10305.793      115.38834      32133.547      413.47062      13571.788      1.5870419      0.91000461   
     37900  -10192.741     -10304.116      111.37582      29624.147      399.09257      13602.099      1.5835054      0.91000461   
     38000  -10189.98      -10305.069      115.08912      27950.74       412.39842      13640.567      1.5790397      0.94685269   
     38100  -10185.806     -10300.633      114.82772      32399.911      411.46174      13680.049      1.5744824      0.94685269   
     38200  -10186.123     -10303.42       117.29657      28049.951      420.30835      13721.667      1.569707       0.94685269   
     38300  -10188.125     -10302.823      114.69835      26805.027      410.99816      13754.099      1.5660056      0.94685269   
     38400  -10188.189     -10299.967      111.77841      30458.82       400.53515      13766.073      1.5646434      0.94685269   
     38500  -10189.033     -10304.728      115.69533      26901.941      414.57064      13756.034      1.5657854      0.94685269   
     38600  -10188.245     -10301.604      113.35915      27282.948      406.19942      13720.961      1.5697877      0.94685269   
     38700  -10189.157     -10305.365      116.2082       29205.347      416.40843      13674.258      1.5751491      0.94685269   
     38800  -10189.749     -10304.542      114.79279      30221.173      411.33657      13623.953      1.5809653      0.94685269   
     38900  -10187.61      -10301.832      114.22112      31141.651      409.28812      13580.071      1.5860739      0.94685269   
     39000  -10187.374     -10303.083      115.70828      29995.455      414.61704      13554.331      1.5890859      0.86107157   
     39100  -10187.192     -10305.056      117.86341      30004.315      422.33952      13552.656      1.5892823      0.86107157   
     39200  -10189.161     -10304.297      115.1364       34280.744      412.56782      13578.534      1.5862535      0.86107157   
     39300  -10190.409     -10306.191      115.78254      30955.315      414.88316      13626.04       1.5807231      0.86107157   
     39400  -10190.928     -10306.037      115.10823      26049.135      412.4669       13681.802      1.5742807      0.86107157   
     39500  -10191.672     -10305.525      113.85342      26146.816      407.97053      13730.743      1.5686694      0.86107157   
     39600  -10189.731     -10305.545      115.8142       25125.935      414.99658      13761.486      1.565165       0.86107157   
     39700  -10189.771     -10305.445      115.67328      27009.657      414.49162      13767.989      1.5644257      0.86107157   
     39800  -10191.101     -10302.059      110.95818      31103.771      397.59603      13747.077      1.5668055      0.86107157   
     39900  -10193.016     -10309.075      116.05899      25217.328      415.87374      13700.725      1.5721064      0.86107157   
     40000  -10193.153     -10308.501      115.34752      28495.309      413.32433      13629.515      1.5803201      0.88430932   
     40100  -10194.547     -10307.921      113.37414      31356.241      406.25312      13546.676      1.5899839      0.88430932   
     40200  -10192.614     -10304.511      111.89727      35014.339      400.96108      13472.49       1.5987391      0.88430932   
     40300  -10191.764     -10306.21       114.44583      35205.499      410.09331      13426.088      1.6042645      0.88430932   
     40400  -10191.112     -10303.92       112.80795      33405.639      404.2243       13417.713      1.6052659      0.88430932   
     40500  -10193.288     -10308.027      114.73983      32887.131      411.14682      13452.537      1.6011104      0.88430932   
     40600  -10194.25      -10305.398      111.14797      30200.802      398.2761       13520.012      1.5931197      0.88430932   
     40700  -10192.622     -10306.016      113.3941       25921.269      406.32466      13605.606      1.5830972      0.88430932   
     40800  -10194.69      -10305.37       110.67984      24172.719      396.59868      13685.459      1.57386        0.88430932   
     40900  -10195.596     -10306.612      111.01587      29368.962      397.80276      13742.28       1.5673525      0.88430932   
     41000  -10194.694     -10304.837      110.14246      25546.113      394.67306      13765.488      1.56471        0.82972039   
     41100  -10192.185     -10308.826      116.64112      22822.232      417.95969      13754.173      1.5659972      0.82972039   
     41200  -10190.197     -10304.347      114.15022      26771.819      409.03407      13715.647      1.570396       0.82972039   
     41300  -10188.99      -10305.092      116.10212      26077.092      416.02828      13666.303      1.576066       0.82972039   
     41400  -10188.472     -10305.774      117.30109      30301.198      420.32456      13616.829      1.5817924      0.82972039   
     41500  -10188.946     -10304.803      115.85658      32946.001      415.14846      13576.214      1.5865245      0.82972039   
     41600  -10186.943     -10302.814      115.87111      33564.127      415.20051      13553.248      1.5892129      0.82972039   
     41700  -10190.78      -10304.673      113.89271      32643.945      408.11132      13550.768      1.5895037      0.82972039   
     41800  -10193.074     -10306.162      113.0881       28212.125      405.22816      13564.108      1.5879405      0.82972039   
     41900  -10191.276     -10303.397      112.12085      32104.182      401.76222      13584.226      1.5855887      0.82972039   
     42000  -10192.737     -10305.717      112.9806       29419.401      404.84297      13609.079      1.5826931      0.93296058   
     42100  -10192.677     -10306.76       114.08277      31076.067      408.79238      13634.352      1.5797595      0.93296058   
     42200  -10190.49      -10305.766      115.27571      33441.665      413.06702      13654.837      1.5773895      0.93296058   
     42300  -10191.789     -10305.672      113.88261      31106.159      408.07513      13671.53       1.5754635      0.93296058   
     42400  -10192.02      -10304.981      112.96112      30872.719      404.77315      13680.447      1.5744366      0.93296058   
     42500  -10189.971     -10304.435      114.46318      31613.688      410.1555       13677.525      1.5747729      0.93296058   
     42600  -10188.611     -10304.008      115.39766      30734.139      413.504        13669.637      1.5756816      0.93296058   
     42700  -10191.854     -10307.288      115.4333       27816.74       413.63173      13656.473      1.5772006      0.93296058   
     42800  -10190.158     -10305.008      114.85009      29694.222      411.54188      13641.358      1.5789481      0.93296058   
     42900  -10190.543     -10303.346      112.80299      29451.23       404.20652      13627.717      1.5805286      0.93296058   
     43000  -10191.988     -10306.759      114.77081      26772.698      411.25783      13618.914      1.5815502      0.8589416    
     43100  -10190.955     -10302.026      111.07099      29426.513      398.00027      13616.959      1.5817773      0.8589416    
     43200  -10192.011     -10305.408      113.39698      29753.281      406.33499      13622.781      1.5811013      0.8589416    
     43300  -10193.419     -10309.114      115.69457      29803.745      414.56791      13633.317      1.5798794      0.8589416    
     43400  -10193.237     -10306.648      113.41062      30452.653      406.38387      13641.483      1.5789337      0.8589416    
     43500  -10191.314     -10305.247      113.93253      33836.199      408.25401      13652.143      1.5777007      0.8589416    
     43600  -10190.798     -10304.866      114.06834      30526.178      408.74066      13663.875      1.5763461      0.8589416    
     43700  -10192.717     -10303.957      111.24047      28129.739      398.60756      13674.844      1.5750817      0.8589416    
     43800  -10192.626     -10304.853      112.22724      26964.906      402.14344      13679.009      1.5746021      0.8589416    
     43900  -10193.316     -10304.852      111.53623      29401.701      399.66736      13678.69       1.5746388      0.8589416    
     44000  -10192.194     -10308.014      115.8204       26994.713      415.01881      13671.366      1.5754824      0.88367219   
     44100  -10191.874     -10305.695      113.82109      28807.318      407.85467      13652.791      1.5776259      0.88367219   
     44200  -10190.314     -10306.308      115.99482      29792.749      415.6438       13637.202      1.5794293      0.88367219   
     44300  -10191.134     -10304.712      113.5782       31499.462      406.98433      13623.715      1.5809929      0.88367219   
     44400  -10193.797     -10308.695      114.89772      28008.217      411.71259      13614.035      1.582117       0.88367219   
     44500  -10191.361     -10308.244      116.88241      32223.388      418.82432      13610.742      1.5824998      0.88367219   
     44600  -10190.04      -10304.333      114.29273      31375.761      409.54472      13616.257      1.5818589      0.88367219   
     44700  -10188.771     -10305.308      116.53645      31323.38       417.58463      13633.132      1.5799008      0.88367219   
     44800  -10188.987     -10306.221      117.23387      29225.762      420.08371      13658.484      1.5769683      0.88367219   
     44900  -10190.351     -10305.328      114.97713      32235.674      411.99711      13685.93       1.5738058      0.88367219   
     45000  -10188.863     -10303.824      114.96186      33167.939      411.94242      13708.994      1.571158       0.89074331   
     45100  -10191.445     -10305.236      113.79138      30750.001      407.74825      13722.105      1.5696568      0.89074331   
     45200  -10193.175     -10305.478      112.30317      30285.984      402.41553      13720.406      1.5698512      0.89074331   
     45300  -10189.764     -10303.467      113.70275      28339.154      407.43065      13699.604      1.572235       0.89074331   
     45400  -10190.598     -10306.283      115.68559      29115.768      414.53573      13666.535      1.5760393      0.89074331   
     45500  -10189.325     -10303.188      113.86292      32136.825      408.00459      13626.147      1.5807107      0.89074331   
     45600  -10188.452     -10303.449      114.99684      33732.403      412.06775      13589.605      1.5849611      0.89074331   
     45700  -10187.39      -10303.682      116.2917       31151.492      416.70762      13568.087      1.5874748      0.89074331   
     45800  -10188.732     -10304.249      115.51712      33616.922      413.93208      13567.55       1.5875376      0.89074331   
     45900  -10189.379     -10305.587      116.20833      33766.961      416.40889      13589.883      1.5849288      0.89074331   
     46000  -10192.603     -10307.11       114.50709      29354.767      410.31283      13629.154      1.5803619      0.82941633   
     46100  -10190.791     -10305.043      114.25162      29501.904      409.39741      13673.131      1.575279       0.82941633   
     46200  -10193.977     -10307.286      113.30942      30897.447      406.02124      13711.439      1.5708779      0.82941633   
     46300  -10193.68      -10308.547      114.86698      25965.61       411.60242      13733.746      1.5683263      0.82941633   
     46400  -10191.701     -10306.638      114.93731      27081.291      411.85443      13732.622      1.5684548      0.82941633   
     46500  -10191.646     -10305.992      114.34612      30462.569      409.73602      13708.989      1.5711587      0.82941633   
     46600  -10187.505     -10305.441      117.93549      27764.911      422.59782      13669.571      1.5756893      0.82941633   
     46700  -10187.893     -10300.11       112.2165       28464.128      402.10495      13626.364      1.5806856      0.82941633   
     46800  -10186.627     -10302.823      116.19598      30672.895      416.36462      13593.893      1.5844613      0.82941633   
     46900  -10185.978     -10303.085      117.10654      31159.971      419.62743      13572.137      1.5870012      0.82941633   
     47000  -10182.498     -10302.232      119.7348       30443.325      429.04527      13566.966      1.587606       0.8479105    
     47100  -10183.832     -10299.37       115.53774      32442.098      414.00595      13582.823      1.5857526      0.8479105    
     47200  -10185.812     -10304.163      118.35137      30099.627      424.08801      13620.832      1.5813275      0.8479105    
     47300  -10187.759     -10302.089      114.3297       29963.041      409.6772       13670.967      1.5755283      0.8479105    
     47400  -10189.664     -10303.578      113.91382      30184.677      408.18696      13717.795      1.5701501      0.8479105    
     47500  -10187.305     -10305.44       118.13569      27743.655      423.31519      13746.518      1.5668692      0.8479105    
     47600  -10189.108     -10303.98       114.8721       27700.879      411.62079      13753.958      1.5660216      0.8479105    
     47700  -10189.603     -10307.336      117.73369      26140.391      421.87468      13738.091      1.5678304      0.8479105    
     47800  -10191.458     -10304.22       112.76267      24347.038      404.06207      13697.569      1.5724686      0.8479105    
     47900  -10188.306     -10303.971      115.66531      31879.601      414.46307      13646.064      1.5784036      0.8479105    
     48000  -10185.232     -10303.513      118.28095      30817.809      423.83567      13596.213      1.5841909      0.90004085   
     48100  -10184.888     -10301.016      116.1277       30614.798      416.11996      13558.266      1.5886248      0.90004085   
     48200  -10187.002     -10306.072      119.07032      30285.119      426.66424      13541.853      1.5905502      0.90004085   
     48300  -10189.952     -10303.113      113.16119      29157.076      405.49006      13546.852      1.5899632      0.90004085   
     48400  -10190.302     -10305.154      114.85255      28047.571      411.5507       13573.91       1.5867938      0.90004085   
     48500  -10186.756     -10303.235      116.47934      29654.144      417.37999      13611.946      1.5823598      0.90004085   
     48600  -10187.342     -10301.326      113.98498      25317.385      408.44196      13656.68       1.5771767      0.90004085   
     48700  -10191.92      -10305.031      113.11055      25346.33       405.30863      13697.73       1.5724501      0.90004085   
     48800  -10192.453     -10309.14       116.68723      29094.885      418.1249       13720.56       1.5698336      0.90004085   
     48900  -10188.924     -10302.356      113.43159      31263.854      406.459        13719.875      1.5699121      0.90004085   
     49000  -10189.795     -10304.621      114.82583      27355.495      411.45498      13703.773      1.5717566      0.8865597    
     49100  -10189.752     -10303.395      113.64255      29261.098      407.21492      13673.881      1.5751927      0.8865597    
     49200  -10186.948     -10301.034      114.08573      33366.873      408.80297      13637.052      1.5794467      0.8865597    
     49300  -10185.755     -10299.961      114.20612      32639.45       409.23435      13604.659      1.5832074      0.8865597    
     49400  -10186.563     -10304.48       117.91723      28838.175      422.53237      13584.909      1.5855091      0.8865597    
     49500  -10188.337     -10304.901      116.56348      27919.223      417.6815       13580.269      1.5860508      0.8865597    
     49600  -10189.917     -10302.375      112.45857      31216.263      402.97239      13587.958      1.5851533      0.8865597    
     49700  -10191.172     -10303.617      112.44449      31403.496      402.92193      13607.382      1.5828906      0.8865597    
     49800  -10191.871     -10306.502      114.63134      30976.611      410.75807      13633.242      1.5798881      0.8865597    
     49900  -10193.6       -10308.264      114.6632       30205.102      410.87222      13657.084      1.5771299      0.8865597    
     50000  -10191.687     -10307.138      115.45096      30912.421      413.69498      13672.742      1.5753239      0.84328263   
     50100  -10192.27      -10304.725      112.45531      29194.784      402.96071      13679.91       1.5744984      0.84328263   
     50200  -10192.377     -10309.052      116.67516      28165.635      418.08167      13676.457      1.574896       0.84328263   
     50300  -10195.771     -10307.206      111.43433      30857.072      399.30221      13657.927      1.5770326      0.84328263   
     50400  -10195.184     -10308.357      113.17213      29782.64       405.52926      13631.92       1.5800412      0.84328263   
     50500  -10195.713     -10306.563      110.8506       30211.918      397.21054      13604.091      1.5832734      0.84328263   
     50600  -10194.083     -10306.914      112.83036      29840.148      404.30459      13582.356      1.5858071      0.84328263   
     50700  -10192.037     -10304.381      112.34439      26638.168      402.56322      13571.938      1.5870244      0.84328263   
     50800  -10191.351     -10305.169      113.81722      27946.36       407.84081      13574.288      1.5867496      0.84328263   
     50900  -10187.139     -10303.2        116.0609       24683.3        415.8806       13591.721      1.5847145      0.84328263   
     51000  -10191.797     -10304.087      112.29039      24042.7        402.36973      13630.106      1.5802516      0.86110752   
     51100  -10193.155     -10305.898      112.74245      26049.605      403.98961      13672.381      1.5753655      0.86110752   
     51200  -10193.087     -10306.593      113.5062       27983.527      406.72635      13704.474      1.5716762      0.86110752   
     51300  -10192.611     -10306.79       114.17935      27961.406      409.13844      13720.953      1.5697887      0.86110752   
     51400  -10190.101     -10303.892      113.79065      31958.281      407.7456       13717.555      1.5701775      0.86110752   
     51500  -10192.012     -10303.631      111.61945      33383.98       399.96556      13701.474      1.5720204      0.86110752   
     51600  -10191.442     -10304.36       112.91752      30821.666      404.61693      13674.006      1.5751783      0.86110752   
     51700  -10190.181     -10305.002      114.82101      31958.693      411.43771      13642.164      1.5788548      0.86110752   
     51800  -10187.098     -10301.985      114.8872       30812.629      411.67488      13614.196      1.5820983      0.86110752   
     51900  -10186.75      -10302.964      116.21416      33894.196      416.42977      13602.406      1.5834696      0.86110752   
     52000  -10191.117     -10306.123      115.00642      31164.064      412.10206      13610.082      1.5825765      0.81158632   
     52100  -10191.733     -10306.653      114.92035      30640.633      411.79367      13629.953      1.5802694      0.81158632   
     52200  -10192.109     -10308.673      116.56371      31606.782      417.68232      13658.427      1.5769749      0.81158632   
     52300  -10194.17      -10306.291      112.12166      33245.85       401.76512      13689.615      1.5733822      0.81158632   
     52400  -10192.251     -10305.038      112.78657      30906.702      404.1477       13715.205      1.5704465      0.81158632   
     52500  -10196.544     -10308.193      111.64915      28952.621      400.072        13731.481      1.568585       0.81158632   
     52600  -10194.624     -10304.771      110.14696      28127.822      394.68918      13728.233      1.5689562      0.81158632   
     52700  -10190.084     -10304.61       114.52528      28724.488      410.37801      13711.661      1.5708525      0.81158632   
     52800  -10189.348     -10304.921      115.57344      28949.559      414.13389      13689.321      1.5734159      0.81158632   
     52900  -10189.591     -10304.489      114.89875      26339.063      411.71627      13662.721      1.5764793      0.81158632   
     53000  -10190.905     -10303.728      112.82329      29992.336      404.27929      13640.148      1.5790882      0.87491902   
     53100  -10192.191     -10304.563      112.37113      30460.682      402.65904      13624.087      1.5809497      0.87491902   
     53200  -10189.722     -10303.687      113.96456      28780.345      408.3688       13617.34       1.581733       0.87491902   
     53300  -10191.608     -10305.761      114.15229      29209.487      409.04147      13627.406      1.5805647      0.87491902   
     53400  -10190.324     -10305.302      114.97847      30816.583      412.00191      13650.606      1.5778784      0.87491902   
     53500  -10188.566     -10303.618      115.05191      30758.655      412.26507      13679.182      1.5745822      0.87491902   
     53600  -10184.854     -10302.52       117.66565      33222.256      421.6309       13710.107      1.5710305      0.87491902   
     53700  -10185.806     -10302.752      116.94558      31558.745      419.05065      13742.854      1.567287       0.87491902   
     53800  -10187.392     -10303.756      116.364        26696.527      416.9667       13771.915      1.5639798      0.87491902   
     53900  -10189.082     -10302.899      113.81672      27560.506      407.83905      13784.897      1.5625068      0.87491902   
     54000  -10188.113     -10303.88       115.76734      28214.701      414.82868      13776.666      1.5634405      0.86807306   
     54100  -10190.252     -10304.326      114.074        30198.276      408.76095      13750.486      1.5664171      0.86807306   
     54200  -10191.365     -10306.141      114.77626      30468.626      411.27733      13709.119      1.5711437      0.86807306   
     54300  -10193.418     -10305.724      112.30601      27421.444      402.42572      13660.818      1.5766989      0.86807306   
     54400  -10189.087     -10305.922      116.83542      30520.506      418.65592      13615.608      1.5819342      0.86807306   
     54500  -10188.543     -10303.986      115.44364      33558.907      413.66877      13585.688      1.5854181      0.86807306   
     54600  -10189.064     -10305.804      116.73987      31473.8        418.31355      13579.309      1.5861629      0.86807306   
     54700  -10189.04      -10303.82       114.77949      31245.778      411.2889       13592.914      1.5845754      0.86807306   
     54800  -10190.55      -10304.199      113.64852      32295.284      407.23632      13628.045      1.5804906      0.86807306   
     54900  -10190.466     -10304.7        114.23432      29757.338      409.33542      13676.107      1.5749362      0.86807306   
     55000  -10193.15      -10303.723      110.57344      27250.872      396.21738      13724.211      1.569416       0.89732857   
     55100  -10193.606     -10306.973      113.36703      27265.062      406.22767      13760.59       1.565267       0.89732857   
[...]
    842700  -10193.245     -10307.139      113.89465      29680.201      408.11829      13673.415      1.5752463      0.86428885   
    842800  -10195.351     -10309.627      114.27576      29534.617      409.48389      13645.924      1.5784198      0.86428885   
    842900  -10194.084     -10308.063      113.97923      31991.997      408.42136      13614.484      1.5820648      0.86428885   
    843000  -10196.768     -10310.968      114.20033      35743.578      409.21361      13587.105      1.5852528      0.92047551   
    843100  -10198.711     -10309.253      110.54286      35955.951      396.10781      13567.66       1.5875248      0.92047551   
    843200  -10197.138     -10308.592      111.454        31655.301      399.37269      13557.121      1.5887589      0.92047551   
    843300  -10196.43      -10308.971      112.54055      28890.868      403.26615      13558.188      1.5886338      0.92047551   
    843400  -10191.981     -10305.183      113.20157      28871.382      405.63478      13571.591      1.5870649      0.92047551   
    843500  -10193.949     -10308.097      114.14797      30027.043      409.02599      13595.402      1.5842854      0.92047551   
    843600  -10192.254     -10305.816      113.56193      27918.126      406.92603      13629.318      1.5803429      0.92047551   
    843700  -10195.454     -10308.923      113.46865      26279.606      406.5918       13664.546      1.5762688      0.92047551   
    843800  -10200.16      -10308.751      108.59119      27367.71       389.11442      13688.884      1.5734662      0.92047551   
    843900  -10199.274     -10309.181      109.90754      25739.788      393.83128      13690.879      1.5732369      0.92047551   
    844000  -10197.408     -10307.402      109.99321      26009.188      394.13827      13672.456      1.5753568      0.9614795    
    844100  -10197.755     -10310.963      113.20851      26619.274      405.65962      13639.095      1.5792101      0.9614795    
    844200  -10193.453     -10307.434      113.98063      27640.184      408.42637      13600.545      1.5836863      0.9614795    
    844300  -10196.022     -10309.497      113.47433      30470.163      406.61213      13561.853      1.5882046      0.9614795    
    844400  -10196.504     -10307.308      110.80426      32054.777      397.04449      13529.345      1.5920206      0.9614795    
    844500  -10195.488     -10310.549      115.06082      29433.754      412.29701      13514.088      1.593818       0.9614795    
    844600  -10193.691     -10307.063      113.37219      29158.076      406.24614      13517.744      1.5933869      0.9614795    
    844700  -10194.25      -10308.152      113.90197      29695.939      408.14452      13541.461      1.5905962      0.9614795    
    844800  -10196.047     -10309.33       113.28269      29265.741      405.92545      13580.45       1.5860296      0.9614795    
    844900  -10198.146     -10308.752      110.60591      31238.751      396.33375      13622.522      1.5811313      0.9614795    
    845000  -10198.551     -10309.303      110.75168      31816.614      396.85609      13660.397      1.5767475      0.9343248    
    845100  -10197.799     -10310.735      112.93577      27734.203      404.68232      13683.254      1.5741136      0.9343248    
    845200  -10198.312     -10311.032      112.71991      27043.446      403.90885      13687.329      1.5736449      0.9343248    
    845300  -10197.336     -10311.635      114.2999       26890.445      409.57039      13675.389      1.5750189      0.9343248    
    845400  -10195.351     -10311.198      115.84762      29456.926      415.11634      13651.521      1.5777727      0.9343248    
    845500  -10196.032     -10309.536      113.50328      29924.204      406.71588      13622.731      1.5811071      0.9343248    
    845600  -10195.154     -10310.957      115.80311      31092.105      414.95685      13593.36       1.5845234      0.9343248    
    845700  -10197.771     -10310.234      112.46242      29425.818      402.98615      13568.247      1.5874561      0.9343248    
    845800  -10195.684     -10311.088      115.40377      33132.007      413.52591      13549.024      1.5897083      0.9343248    
    845900  -10196.032     -10309.421      113.38891      30781.225      406.30606      13541.767      1.5905602      0.9343248    
    846000  -10196.622     -10308.414      111.79209      29605.498      400.58419      13548.005      1.5898279      0.91792275   
    846100  -10197.3       -10310.754      113.45431      27149.44       406.5404       13561.989      1.5881887      0.91792275   
    846200  -10195.909     -10308.498      112.58883      29135.925      403.43914      13575.553      1.5866018      0.91792275   
    846300  -10197.709     -10308.853      111.14465      29794.571      398.26421      13591.946      1.5846882      0.91792275   
    846400  -10200.489     -10311          110.51102      28547.731      395.99372      13606.978      1.5829375      0.91792275   
    846500  -10197.137     -10309.993      112.85581      31490.467      404.39579      13614.58       1.5820537      0.91792275   
    846600  -10193.118     -10308.73       115.61238      32325.794      414.27343      13620.167      1.5814047      0.91792275   
    846700  -10194.762     -10306.665      111.90315      28989.891      400.98215      13625.907      1.5807385      0.91792275   
    846800  -10198.187     -10310.083      111.89606      26746.32       400.95674      13628.137      1.5804799      0.91792275   
    846900  -10195.571     -10311.208      115.63741      32241.131      414.36311      13622.949      1.5810818      0.91792275   
    847000  -10195.393     -10310.078      114.68567      31785.868      410.95275      13613.883      1.5821346      0.8647926    
    847100  -10196.676     -10309.132      112.45696      28184.539      402.96659      13605.042      1.5831628      0.8647926    
    847200  -10193.349     -10306.724      113.37551      30104.723      406.25803      13597.394      1.5840533      0.8647926    
    847300  -10195.665     -10311.348      115.68328      27770.778      414.52748      13593.294      1.584531       0.8647926    
    847400  -10194.754     -10306.222      111.46781      31548.031      399.4222       13594.528      1.5843872      0.8647926    
    847500  -10192.666     -10307.867      115.20143      30613.365      412.80087      13602.066      1.5835092      0.8647926    
    847600  -10195.43      -10310.888      115.45826      28259.452      413.72115      13614.667      1.5820435      0.8647926    
    847700  -10192.728     -10310.68       117.95166      29583.136      422.65574      13628.279      1.5804634      0.8647926    
    847800  -10191.181     -10308.428      117.24757      34014.35       420.13278      13641.274      1.5789579      0.8647926    
    847900  -10189.86      -10306.151      116.29076      34518.251      416.70423      13659.487      1.5768526      0.8647926    
    848000  -10191.125     -10306.095      114.96975      34095.2        411.97068      13680.209      1.574464       0.81129102   
    848100  -10193.691     -10308.363      114.67233      30942.428      410.90493      13693.88       1.5728922      0.81129102   
    848200  -10195.951     -10310.548      114.5973       30394.527      410.63609      13691.407      1.5731763      0.81129102   
    848300  -10193.608     -10309.483      115.87482      29998.969      415.21381      13672.549      1.5753461      0.81129102   
    848400  -10194.383     -10311.098      116.71525      30274.242      418.22533      13646.241      1.5783831      0.81129102   
    848500  -10195.362     -10308.385      113.02331      34295.006      404.99601      13613.488      1.5821806      0.81129102   
    848600  -10191.589     -10307.638      116.04889      33710.626      415.83757      13585.469      1.5854438      0.81129102   
    848700  -10192.022     -10306.874      114.85197      33833.704      411.54863      13567.274      1.5875699      0.81129102   
    848800  -10192.286     -10305.511      113.22452      33775.827      405.717        13564.462      1.587899       0.81129102   
    848900  -10193.824     -10307.69       113.86535      30015.245      408.01329      13576.634      1.5864754      0.81129102   
    849000  -10197.261     -10312.873      115.61145      32414.375      414.27008      13601.108      1.5836208      0.83699752   
    849100  -10197.368     -10309.215      111.84602      31610.712      400.77741      13631.14       1.5801317      0.83699752   
    849200  -10196.567     -10312.365      115.79816      31496.032      414.93912      13663.863      1.5763475      0.83699752   
    849300  -10195.067     -10308.501      113.43386      32410.379      406.46713      13687.228      1.5736566      0.83699752   
    849400  -10193.473     -10308.983      115.51011      28153.061      413.90696      13700.621      1.5721183      0.83699752   
    849500  -10195.858     -10311.612      115.75387      27741.558      414.78041      13701.204      1.5720514      0.83699752   
    849600  -10194.217     -10309.405      115.18834      24588.881      412.75396      13686.168      1.5737785      0.83699752   
    849700  -10191.373     -10308.758      117.38521      27214.545      420.62599      13653.429      1.5775521      0.83699752   
    849800  -10192.89      -10306.805      113.91464      29824.179      408.18989      13610.619      1.5825142      0.83699752   
    849900  -10192.508     -10309.859      117.3513       29384.55       420.50446      13571.222      1.5871081      0.83699752   
    850000  -10190.435     -10306.83       116.39514      32327.194      417.07827      13543.242      1.590387       0.90016012   
    850100  -10194.054     -10308.581      114.5267       36058.268      410.38311      13534.096      1.5914618      0.90016012   
    850200  -10192.534     -10309.564      117.02994      32112.286      419.35295      13547.614      1.5898737      0.90016012   
    850300  -10195.141     -10307.253      112.11267      29751.162      401.73292      13580.667      1.5860043      0.90016012   
    850400  -10192.421     -10306.465      114.04363      31082.815      408.65211      13629.005      1.5803792      0.90016012   
    850500  -10194.946     -10310.369      115.42316      31279.923      413.59536      13681.126      1.5743585      0.90016012   
    850600  -10195.849     -10310.444      114.59546      32977.136      410.6295       13723.816      1.5694612      0.90016012   
    850700  -10194.337     -10307.873      113.53586      28340.974      406.83261      13741.29       1.5674654      0.90016012   
    850800  -10193.106     -10308.479      115.37234      27769.169      413.41327      13734.389      1.568253       0.90016012   
    850900  -10192.41      -10308.696      116.28623      28713.743      416.68802      13704.413      1.5716832      0.90016012   
    851000  -10191.882     -10307.441      115.5589       29502.538      414.08176      13659.282      1.5768761      0.86324297   
    851100  -10192.885     -10307.035      114.15054      26247.542      409.03522      13609.295      1.5826681      0.86324297   
    851200  -10194.089     -10310.838      116.74907      25302.981      418.3465       13566.013      1.5877175      0.86324297   
    851300  -10194.734     -10309.074      114.33978      29541.072      409.71329      13534.661      1.5913953      0.86324297   
    851400  -10192.62      -10306.639      114.01839      32251.924      408.56167      13521.951      1.5928912      0.86324297   
    851500  -10193.247     -10308.898      115.65161      32457.488      414.41397      13535.425      1.5913055      0.86324297   
    851600  -10189.917     -10307.994      118.07745      29125.613      423.10647      13569.579      1.5873003      0.86324297   
    851700  -10190.457     -10305.272      114.81536      28029.374      411.41746      13616.341      1.581849       0.86324297   
    851800  -10194.712     -10307.542      112.83011      27507.811      404.30372      13670.034      1.575636       0.86324297   
    851900  -10192.541     -10307.349      114.80753      26627.434      411.38938      13713.507      1.5706411      0.86324297   
    852000  -10192.02      -10307.032      115.01141      25926.18       412.11995      13742.162      1.5673659      0.82288364   
    852100  -10193.505     -10308.69       115.18577      28701.962      412.74475      13751.114      1.5663456      0.82288364   
    852200  -10194.918     -10310.611      115.69263      26788.118      414.56097      13742.019      1.5673822      0.82288364   
    852300  -10193.479     -10309.063      115.5841       29262.039      414.17209      13712.607      1.570744       0.82288364   
    852400  -10191.818     -10308.163      116.34564      30440.921      416.90089      13668.383      1.5758262      0.82288364   
    852500  -10191.481     -10305.044      113.56344      31745.86       406.93146      13624.482      1.5809039      0.82288364   
    852600  -10191.83      -10308.075      116.24505      33600.961      416.54044      13594.077      1.5844398      0.82288364   
    852700  -10191.618     -10307.356      115.73821      34461.448      414.72431      13580.451      1.5860296      0.82288364   
    852800  -10193.75      -10307.485      113.73452      35859.679      407.54447      13584.208      1.5855909      0.82288364   
    852900  -10190.79      -10309.77       118.98         33752.164      426.34058      13601.045      1.5836281      0.82288364   
    853000  -10189.273     -10302.732      113.45913      36279.645      406.55767      13631.885      1.5800454      0.87603037   
    853100  -10191.01      -10307.322      116.31259      30454.786      416.78246      13670.282      1.5756074      0.87603037   
    853200  -10194.28      -10307.886      113.60625      29694.635      407.08487      13702.858      1.5718617      0.87603037   
    853300  -10193.124     -10307.56       114.43612      29642.024      410.05852      13722.826      1.5695744      0.87603037   
    853400  -10191.052     -10306.048      114.99609      28357.18       412.06507      13729.665      1.5687925      0.87603037   
    853500  -10192.631     -10308.033      115.40225      27839.298      413.52045      13721.11       1.5697707      0.87603037   
    853600  -10191.16      -10306.479      115.31894      27737.395      413.22195      13698.864      1.57232        0.87603037   
    853700  -10191.067     -10305.015      113.94882      28440.055      408.31239      13671.075      1.5755159      0.87603037   
    853800  -10189.424     -10306.525      117.10136      28190.625      419.60887      13641.386      1.5789448      0.87603037   
    853900  -10188.919     -10304.291      115.37235      29087.971      413.4133       13616.471      1.581834       0.87603037   
    854000  -10189.245     -10305.095      115.84994      29359.95       415.12465      13602.757      1.5834287      0.91501267   
    854100  -10192.286     -10309.014      116.72852      30628.692      418.27286      13602.985      1.5834022      0.91501267   
    854200  -10190.601     -10307.38       116.77878      30953.605      418.45298      13613.717      1.582154       0.91501267   
    854300  -10191.165     -10307.992      116.8265       26908.119      418.62396      13633.786      1.5798251      0.91501267   
    854400  -10192.773     -10307.517      114.74375      27856.481      411.16087      13660.891      1.5766904      0.91501267   
    854500  -10194.08      -10308.573      114.49309      30953.935      410.26265      13686.755      1.5737109      0.91501267   
    854600  -10190.698     -10306.798      116.10001      27700.542      416.02074      13706.481      1.5714462      0.91501267   
    854700  -10192.311     -10306.932      114.62125      27124.73       410.7219       13717.346      1.5702014      0.91501267   
    854800  -10191.891     -10307.1        115.20869      28763.981      412.82686      13713.257      1.5706696      0.91501267   
    854900  -10193.773     -10305.734      111.96125      32005.475      401.19032      13697.381      1.5724901      0.91501267   
    855000  -10192.513     -10305.934      113.42125      32254.01       406.42195      13675.776      1.5749744      0.89902594   
    855100  -10189.368     -10305.208      115.84041      29661.663      415.0905       13655.611      1.5773001      0.89902594   
    855200  -10188.512     -10305.47       116.95824      32814.693      419.09602      13638.509      1.5792779      0.89902594   
    855300  -10191.021     -10306.719      115.69771      31946.024      414.57919      13629.018      1.5803777      0.89902594   
    855400  -10191.777     -10307.938      116.16075      29758.12       416.23839      13627.441      1.5805606      0.89902594   
    855500  -10189.718     -10304.415      114.6964       32720.384      410.99117      13632.503      1.5799738      0.89902594   
    855600  -10187.219     -10306.816      119.59652      31436.121      428.54976      13650.395      1.5779028      0.89902594   
    855700  -10186.141     -10304.369      118.22815      31693.709      423.64648      13677.595      1.5747649      0.89902594   
    855800  -10187.827     -10303.359      115.53205      30807.521      413.98558      13709.821      1.5710633      0.89902594   
    855900  -10191.198     -10308.334      117.13628      26999.313      419.73401      13740.498      1.5675557      0.89902594   
    856000  -10194.836     -10308.283      113.44703      24907.341      406.51432      13756.306      1.5657544      0.85575756   
    856100  -10193.065     -10307.535      114.47028      26652.055      410.18092      13748.004      1.5666999      0.85575756   
    856200  -10195.232     -10309.502      114.26951      28648.879      409.4615       13720.633      1.5698253      0.85575756   
    856300  -10193.365     -10307.692      114.32625      25899.771      409.66481      13674.349      1.5751388      0.85575756   
    856400  -10194.566     -10308.956      114.38959      24848.773      409.8918       13620.819      1.581329       0.85575756   
    856500  -10194.428     -10310.043      115.61505      29343.522      414.28298      13571.265      1.5871031      0.85575756   
    856600  -10192.079     -10306.063      113.98477      34336.247      408.44121      13535.409      1.5913074      0.85575756   
    856700  -10193.519     -10310.816      117.29704      33448.458      420.31003      13525.89       1.5924273      0.85575756   
    856800  -10195.219     -10306.274      111.05527      32920.285      397.94392      13538.694      1.5909213      0.85575756   
    856900  -10195.574     -10308.113      112.53872      30526.627      403.25956      13570.3        1.587216       0.85575756   
    857000  -10197.082     -10309.904      112.82113      29590.717      404.27155      13614.105      1.5821088      0.86384961   
    857100  -10197.109     -10307.702      110.59341      28676.753      396.28895      13656.154      1.5772374      0.86384961   
    857200  -10198.524     -10312.863      114.33914      27657.688      409.71102      13689.422      1.5734044      0.86384961   
    857300  -10198.923     -10312.605      113.682        32370.051      407.3563       13700.128      1.5721748      0.86384961   
    857400  -10201.514     -10311.68       110.16592      31869.964      394.75715      13687.313      1.5736468      0.86384961   
    857500  -10200.188     -10312.291      112.10314      30422.465      401.69876      13654.338      1.5774471      0.86384961   
    857600  -10196.572     -10311.861      115.28923      32901.551      413.11546      13607.03       1.5829315      0.86384961   
    857700  -10195.146     -10309.294      114.14837      30616.357      409.02742      13560.616      1.5883494      0.86384961   
    8