LAMMPS (27 Jun 2024)
KOKKOS mode with Kokkos version 4.3.1 is enabled (src/KOKKOS/kokkos.cpp:72)
  will use up to 1 GPU(s) per node
WARNING: When using a single thread, the Kokkos Serial backend (i.e. Makefile.kokkos_mpi_only) gives better performance than the OpenMP backend (src/KOKKOS/kokkos.cpp:202)
  using 1 OpenMP thread(s) per MPI task
package kokkos
package kokkos newton on neigh half

units		metal						## E in [eV], t in [ps], P in [10000 Pa], l in [A]
atom_style	atomic						## mass x y z vx vy vz

neighbor	0.5 bin						## neighbor list, skin = 0.5 Angstrom
neigh_modify	every 2 delay 10 check yes			## update of neighbor list

############################## main variables
variable        seed equal 13929

variable	temperature equal 460
variable	tempDamp equal 0.1

variable        pressure equal 30000
variable        pressureDamp equal 1.0 				# This is 1 ps

##############################

read_data water.dat
Reading data file ...
  orthogonal box = (0 0 0) to (19.665067 19.665067 19.640133)
  1 by 1 by 1 MPI processor grid
  reading atoms ...
  1296 atoms
  read_data CPU = 0.019 seconds

mass		1 1.008    # H
mass		2 15.9994  # O


pair_style	pace/extrapolation
ACE/AL version: 2023.11.25
pair_coeff	* * /pc2/users/a/acepdw01/work/phase_diagram/pot_dir/interim_potential_ladder_step_1.yaml /pc2/users/a/acepdw01/work/phase_diagram/pot_dir/interim_potential_ladder_step_1.asi H O
Loading /pc2/users/a/acepdw01/work/phase_diagram/pot_dir/interim_potential_ladder_step_1.yaml
Total number of basis functions
	H: 23 (r=1) 664 (r>1)
	O: 23 (r=1) 664 (r>1)
Mapping LAMMPS atom type #1(H) -> ACE species type #0
Mapping LAMMPS atom type #2(O) -> ACE species type #1
Loading ASI /pc2/users/a/acepdw01/work/phase_diagram/pot_dir/interim_potential_ladder_step_1.asi
LINEAR ASI is loaded

fix pace_gamma all pair 1000 pace/extrapolation gamma 1
compute max_pace_gamma all reduce max f_pace_gamma
variable dump_skip equal "c_max_pace_gamma < 10"

dump pace_dump all custom 1000 extrapolative_structures.dump id type x y z f_pace_gamma
dump_modify pace_dump skip v_dump_skip
dump_modify pace_dump element H O

variable max_pace_gamma equal c_max_pace_gamma

timestep	0.0005						## timestep = 0.0005*ps = 0.5 fs

thermo		100
thermo_style custom step etotal pe ke press temp vol density c_max_pace_gamma


min_style cg
minimize 0.0 5.0e-4 10000 100000

CITE-CITE-CITE-CITE-CITE-CITE-CITE-CITE-CITE-CITE-CITE-CITE-CITE

Your simulation uses code contributions which should be cited:

- Type Label Framework: https://doi.org/10.1021/acs.jpcb.3c08419

@Article{Gissinger24,
 author = {Jacob R. Gissinger, Ilia Nikiforov, Yaser Afshar, Brendon Waters, Moon-ki Choi, Daniel S. Karls, Alexander Stukowski, Wonpil Im, Hendrik Heinz, Axel Kohlmeyer, and Ellad B. Tadmor},
 title = {Type Label Framework for Bonded Force Fields in LAMMPS},
 journal = {J. Phys. Chem. B},
 year =    2024,
 volume =  128,
 number =  13,
 pages =   {3282–-3297}
}

CITE-CITE-CITE-CITE-CITE-CITE-CITE-CITE-CITE-CITE-CITE-CITE-CITE

Switching to 'neigh_modify every 1 delay 0 check yes' setting during minimization
Neighbor list info ...
  update: every = 1 steps, delay = 0 steps, check = yes
  max neighbors/atom: 2000, page size: 100000
  master list distance cutoff = 6.5
  ghost atom cutoff = 6.5
  binsize = 6.5, bins = 4 4 4
  1 neighbor lists, perpetual/occasional/extra = 1 0 0
  (1) pair pace/extrapolation/kk, perpetual
      attributes: full, newton on, kokkos_device
      pair build: full/bin/kk/device
      stencil: full/bin/3d
      bin: kk/device
WARNING: Fix with atom-based arrays not compatible with sending data in Kokkos communication, switching to classic exchange/border communication (src/KOKKOS/comm_kokkos.cpp:754)
WARNING: Fix with atom-based arrays not compatible with Kokkos sorting on device, switching to classic host sorting (src/KOKKOS/atom_kokkos.cpp:216)
Per MPI rank memory allocation (min/avg/max) = 1123 | 1123 | 1123 Mbytes
   Step         TotEng         PotEng         KinEng         Press           Temp          Volume        Density     c_max_pace_gamma
         0  -6250.4972     -6250.4972      0              21939.986      0              7595.1311      1.7015372      0.62320149   
        33  -6250.6452     -6250.6452      0              22350.057      0              7595.1311      1.7015372      0.62320149   
Loop time of 0.246473 on 1 procs for 33 steps with 1296 atoms

98.0% CPU use with 1 MPI tasks x 1 OpenMP threads

Minimization stats:
  Stopping criterion = force tolerance
  Energy initial, next-to-last, final = 
     -6250.49717465846  -6250.64523648355  -6250.64523648875
  Force two-norm initial, final = 0.82052426 0.0003006328
  Force max component initial, final = 0.040662504 1.1270972e-05
  Final line search alpha, max atom move = 1 1.1270972e-05
  Iterations, force evaluations = 33 66

MPI task timing breakdown:
Section |  min time  |  avg time  |  max time  |%varavg| %total
---------------------------------------------------------------
Pair    | 0.21659    | 0.21659    | 0.21659    |   0.0 | 87.88
Neigh   | 0          | 0          | 0          |   0.0 |  0.00
Comm    | 0.0017584  | 0.0017584  | 0.0017584  |   0.0 |  0.71
Output  | 0          | 0          | 0          |   0.0 |  0.00
Modify  | 0.014044   | 0.014044   | 0.014044   |   0.0 |  5.70
Other   |            | 0.01408    |            |       |  5.71

Nlocal:           1296 ave        1296 max        1296 min
Histogram: 1 0 0 0 0 0 0 0 0 0
Nghost:           4514 ave        4514 max        4514 min
Histogram: 1 0 0 0 0 0 0 0 0 0
Neighs:              0 ave           0 max           0 min
Histogram: 1 0 0 0 0 0 0 0 0 0
FullNghs:       251424 ave      251424 max      251424 min
Histogram: 1 0 0 0 0 0 0 0 0 0

Total # of neighbors = 251424
Ave neighs/atom = 194
Neighbor list builds = 0
Dangerous builds = 0

################## equilibration of main calculation

fix             3 all nph aniso ${pressure} ${pressure} ${pressureDamp}
fix             3 all nph aniso 30000 ${pressure} ${pressureDamp}
fix             3 all nph aniso 30000 30000 ${pressureDamp}
fix             3 all nph aniso 30000 30000 1
fix             4 all temp/csvr ${temperature} ${temperature} ${tempDamp} ${seed}
fix             4 all temp/csvr 460 ${temperature} ${tempDamp} ${seed}
fix             4 all temp/csvr 460 460 ${tempDamp} ${seed}
fix             4 all temp/csvr 460 460 0.1 ${seed}
fix             4 all temp/csvr 460 460 0.1 13929
velocity 	all create ${temperature} ${seed} dist gaussian
velocity 	all create 460 ${seed} dist gaussian
velocity 	all create 460 13929 dist gaussian

run 20000
WARNING: Fix with atom-based arrays not compatible with Kokkos sorting on device, switching to classic host sorting (src/KOKKOS/atom_kokkos.cpp:216)
Per MPI rank memory allocation (min/avg/max) = 1123 | 1123 | 1123 Mbytes
   Step         TotEng         PotEng         KinEng         Press           Temp          Volume        Density     c_max_pace_gamma
        33  -6173.645      -6250.6452      77.000268      33178.75       460            7595.1311      1.7015372      0.62320149   
       100  -6161.2288     -6193.7384      32.509609      34996.701      194.21257      7600.5934      1.7003143      0.62320149   
       200  -6145.7081     -6197.0707      51.362611      37493.206      306.84051      7660.9235      1.6869243      0.62320149   
       300  -6138.0757     -6193.7172      55.641472      34292.764      332.40244      7777.0199      1.6617416      0.62320149   
       400  -6131.0621     -6190.3008      59.238676      32174.848      353.89215      7918.3189      1.6320886      0.62320149   
       500  -6124.8529     -6190.049       65.196055      29025.542      389.48157      8049.8626      1.6054184      0.62320149   
       600  -6120.7944     -6185.2794      64.485         32091.492      385.23372      8146.6476      1.5863455      0.62320149   
       700  -6117.3314     -6185.4942      68.162715      28582.905      407.20441      8206.0923      1.5748541      0.62320149   
       800  -6112.0203     -6179.7711      67.75084       35423.828      404.74387      8231.9545      1.5699064      0.62320149   
       900  -6108.4104     -6182.2849      73.874506      30515.161      441.32668      8237.6486      1.5688212      0.62320149   
      1000  -6103.6146     -6175.7804      72.165863      29661.628      431.11924      8229.8178      1.570314       0.79730261   
      1100  -6103.1614     -6177.5811      74.419761      28684.792      444.58403      8214.0199      1.5733341      0.79730261   
      1200  -6102.0206     -6176.4137      74.393112      32199.504      444.42484      8195.4682      1.5768956      0.79730261   
      1300  -6101.0626     -6176.0465      74.983909      31140.067      447.95426      8181.7393      1.5795416      0.79730261   
      1400  -6099.8572     -6175.0912      75.234054      31798.046      449.44863      8177.0174      1.5804538      0.79730261   
      1500  -6098.218      -6173.118       74.900006      33753.674      447.45302      8182.8353      1.5793301      0.79730261   
      1600  -6097.2178     -6174.6062      77.388422      33491.954      462.31883      8201.3605      1.5757627      0.79730261   
      1700  -6098.3825     -6174.8218      76.439302      29511.565      456.64879      8227.2051      1.5708127      0.79730261   
      1800  -6098.5428     -6173.0072      74.46437       28772.504      444.85053      8253.7671      1.5657575      0.79730261   
      1900  -6097.2124     -6174.5968      77.384457      31211.306      462.29514      8279.2565      1.560937       0.79730261   
      2000  -6097.0253     -6174.9205      77.895254      33791.675      465.34665      8301.1319      1.5568236      0.80656501   
      2100  -6097.874      -6175.8242      77.950176      27635.019      465.67475      8313.7764      1.5544558      0.80656501   
      2200  -6097.7726     -6172.6776      74.905002      29205.703      447.48287      8315.0082      1.5542255      0.80656501   
      2300  -6098.4454     -6173.2259      74.780566      29884.704      446.73949      8304.9642      1.5561052      0.80656501   
      2400  -6099.2255     -6175.5341      76.30855       33571.19       455.86767      8283.9883      1.5600454      0.80656501   
      2500  -6100.1026     -6175.2555      75.152941      29010.839      448.96406      8255.3255      1.5654619      0.80656501   
      2600  -6100.788      -6177.4786      76.690601      30123.92       458.15005      8224.3334      1.5713611      0.80656501   
      2700  -6100.7804     -6172.2802      71.499779      31806.291      427.14005      8195.8431      1.5768235      0.80656501   
      2800  -6100.0251     -6175.7983      75.77315       35033.124      452.66919      8177.4955      1.5803614      0.80656501   
      2900  -6103.9274     -6176.4255      72.498087      35166.91       433.10395      8172.2874      1.5813685      0.80656501   
      3000  -6102.484      -6176.5272      74.043162      33850.642      442.33423      8180.0486      1.5798681      0.78137775   
      3100  -6099.8361     -6175.573       75.73694       30950          452.45287      8201.9066      1.5756578      0.78137775   
      3200  -6097.88       -6175.098       77.217992      29952.491      461.30068      8238.6069      1.5686387      0.78137775   
      3300  -6097.2805     -6173.7033      76.422809      27265.132      456.55025      8284.1862      1.5600081      0.78137775   
      3400  -6096.5502     -6174.3362      77.785941      26483.192      464.69361      8331.6668      1.5511179      0.78137775   
      3500  -6097.5396     -6173.5598      76.020142      26701.809      454.14472      8371.8064      1.5436809      0.78137775   
      3600  -6099.6665     -6174.1443      74.47785       28914.324      444.93106      8393.8465      1.5396276      0.78137775   
      3700  -6098.6333     -6174.6266      75.993239      27204.847      453.984        8395.5897      1.5393079      0.78137775   
      3800  -6095.9939     -6175.2731      79.279226      30113.989      473.61451      8376.9064      1.5427411      0.78137775   
      3900  -6098.3698     -6175.4811      77.111304      33191.291      460.66333      8343.7365      1.5488742      0.78137775   
      4000  -6094.7468     -6171.1121      76.365314      33783.113      456.20678      8301.1489      1.5568204      0.80814929   
      4100  -6096.5454     -6174.557       78.011571      35221.035      466.04153      8258.1732      1.5649221      0.80814929   
      4200  -6096.7724     -6172.1897      75.41726       33574.6        450.5431       8221.1466      1.5719703      0.80814929   
      4300  -6097.0404     -6174.4358      77.395426      29779.769      462.36067      8196.6579      1.5766667      0.80814929   
      4400  -6094.5781     -6171.8659      77.287846      33090.893      461.71799      8188.471       1.5782431      0.80814929   
      4500  -6094.9067     -6171.1623      76.255581      36216.055      455.55123      8205.6727      1.5749346      0.80814929   
      4600  -6097.4365     -6174.411       76.97452       32058.735      459.84618      8243.731       1.5676637      0.80814929   
      4700  -6100.2306     -6177.5137      77.28316       29529.717      461.68999      8293.4518      1.5582653      0.80814929   
      4800  -6098.4235     -6173.1978      74.774314      27884.914      446.70214      8342.1972      1.54916        0.80814929   
      4900  -6096.3616     -6172.0252      75.663637      26110.364      452.01496      8383.6117      1.5415072      0.80814929   
      5000  -6096.7069     -6172.0042      75.297288      25016.11       449.82639      8410.866       1.5365122      0.7569196    
      5100  -6097.9412     -6172.1591      74.2179        28200.544      443.37812      8419.8243      1.5348774      0.7569196    
      5200  -6097.8529     -6172.3015      74.448573      28006.926      444.75616      8405.8947      1.5374209      0.7569196    
      5300  -6097.9895     -6173.8981      75.908602      24934.126      453.47838      8368.0916      1.5443662      0.7569196    
      5400  -6097.7319     -6173.172       75.440123      31644.247      450.67969      8315.5993      1.554115       0.7569196    
      5500  -6098.3424     -6174.1822      75.839779      31689.81       453.06723      8258.8186      1.5647998      0.7569196    
      5600  -6097.0202     -6171.7316      74.711413      35727.178      446.32637      8208.3212      1.5744264      0.7569196    
      5700  -6095.3499     -6173.4373      78.087392      32707.245      466.49448      8173.8003      1.5810758      0.7569196    
      5800  -6093.7116     -6168.9404      75.228781      34618.897      449.41712      8162.8867      1.5831897      0.7569196    
      5900  -6095.0734     -6171.6308      76.557408      37793.585      457.35435      8182.1053      1.579471       0.7569196    
      6000  -6096.9455     -6173.947       77.001507      32213.995      460.0074       8226.1221      1.5710195      0.78736861   
      6100  -6096.133      -6172.8278      76.694745      33698.742      458.1748       8283.0783      1.5602168      0.78736861   
      6200  -6094.9794     -6173.0066      78.027202      31749.011      466.13491      8344.7072      1.548694       0.78736861   
      6300  -6096.6324     -6172.2547      75.62235       28161.465      451.76831      8398.081       1.5388513      0.78736861   
      6400  -6096.7463     -6173.2121      76.465862      25516.766      456.80745      8432.7254      1.5325292      0.78736861   
      6500  -6100.7635     -6175.6321      74.868579      21465.794      447.26528      8443.1273      1.5306411      0.78736861   
      6600  -6099.0843     -6172.5099      73.425594      23135.852      438.64487      8425.8298      1.5337834      0.78736861   
      6700  -6096.8861     -6173.0457      76.159589      27994.148      454.97778      8386.5227      1.5409722      0.78736861   
      6800  -6096.4955     -6173.4611      76.965642      29393.107      459.79314      8336.1843      1.5502774      0.78736861   
      6900  -6095.5619     -6172.3275      76.765606      30225.155      458.59813      8282.6791      1.560292       0.78736861   
      7000  -6093.3205     -6170.9726      77.652101      35232.383      463.89405      8236.0121      1.5691329      0.74218461   
      7100  -6091.4107     -6170.8951      79.48445       34218.668      474.84052      8207.716       1.5745425      0.74218461   
      7200  -6092.0985     -6171.1213      79.022761      31129.005      472.08238      8204.6067      1.5751392      0.74218461   
      7300  -6094.4134     -6171.4829      77.069501      29702.068      460.4136       8226.8525      1.57088        0.74218461   
      7400  -6097.718      -6173.2528      75.534787      31229.226      451.2452       8264.1109      1.5637977      0.74218461   
      7500  -6097.7842     -6172.9607      75.176463      28429.369      449.10458      8306.0894      1.5558944      0.74218461   
      7600  -6101.195      -6173.1105      71.915548      29183.652      429.62386      8342.0529      1.5491868      0.74218461   
      7700  -6101.0452     -6175.9172      74.872008      25826.226      447.28576      8364.9879      1.5449392      0.74218461   
      7800  -6099.0349     -6175.3797      76.344846      23827.26       456.0845       8369.4142      1.5441222      0.74218461   
      7900  -6093.9804     -6172.2466      78.266115      28124.068      467.56218      8357.8122      1.5462656      0.74218461   
      8000  -6094.4305     -6172.5062      78.075676      27770.973      466.42449      8340.6857      1.5494407      0.97791871   
      8100  -6093.3742     -6171.0184      77.644106      26750.171      463.84629      8321.789       1.5529591      0.97791871   
      8200  -6091.956      -6171.8448      79.888748      32480.254      477.25579      8305.9961      1.5559119      0.97791871   
      8300  -6091.7619     -6167.5556      75.793695      36805.253      452.79192      8292.464       1.5584509      0.97791871   
      8400  -6092.6594     -6171.5762      78.916852      33877.163      471.44968      8287.9754      1.5592949      0.97791871   
      8500  -6094.4761     -6172.6944      78.218307      27474.829      467.27657      8290.1485      1.5588862      0.97791871   
      8600  -6095.5329     -6173.9764      78.443476      23197.506      468.62173      8295.1285      1.5579503      0.97791871   
      8700  -6098.0627     -6176.2725      78.209774      27439.434      467.22559      8300.9452      1.5568586      0.97791871   
      8800  -6097.5299     -6173.2603      75.730445      30326.621      452.41407      8305.872       1.5559351      0.97791871   
      8900  -6097.0762     -6174.5032      77.426984      30839.271      462.5492       8309.0994      1.5553308      0.97791871   
      9000  -6095.1526     -6172.6128      77.460234      30866.484      462.74783      8309.7171      1.5552151      0.83354809   
      9100  -6096.3518     -6172.3659      76.014116      28924.075      454.10872      8310.7046      1.5550304      0.83354809   
      9200  -6096.3415     -6172.1688      75.827292      27626.92       452.99263      8307.5845      1.5556144      0.83354809   
      9300  -6095.8128     -6171.9213      76.108413      29182.806      454.67205      8298.6148      1.5572958      0.83354809   
      9400  -6095.4082     -6174.1842      78.776024      32218.369      470.60838      8289.014       1.5590995      0.83354809   
      9500  -6095.1648     -6172.9055      77.740636      32252.313      464.42296      8280.6314      1.5606778      0.83354809   
      9600  -6094.3508     -6172.519       78.168189      32261.062      466.97716      8273.694       1.5619864      0.83354809   
      9700  -6092.9307     -6172.3964      79.465724      32937.496      474.72865      8269.7939      1.5627231      0.83354809   
      9800  -6094.8113     -6174.1456      79.334291      30805.456      473.94346      8272.9678      1.5621235      0.83354809   
      9900  -6095.4376     -6170.8757      75.438079      32184.087      450.66748      8281.8335      1.5604513      0.83354809   
     10000  -6094.4797     -6170.8483      76.368643      27724.762      456.22667      8294.0769      1.5581478      0.86391526   
     10100  -6095.1667     -6171.2911      76.124381      24812.081      454.76744      8306.3412      1.5558472      0.86391526   
     10200  -6095.9178     -6171.8823      75.964455      23110.374      453.81205      8318.381       1.5535953      0.86391526   
     10300  -6095.3503     -6172.4002      77.049902      26103.581      460.29651      8327.7484      1.5518478      0.86391526   
     10400  -6096.0437     -6172.5192      76.475507      29597.128      456.86507      8331.9069      1.5510733      0.86391526   
     10500  -6097.3836     -6174.6572      77.273544      29746.975      461.63255      8331.3216      1.5511822      0.86391526   
     10600  -6098.4058     -6174.1924      75.7866        28655.297      452.74954      8320.484       1.5532027      0.86391526   
     10700  -6096.0801     -6172.8753      76.795246      31829.096      458.7752       8298.7494      1.5572705      0.86391526   
     10800  -6095.477      -6172.6136      77.136592      30023.1        460.8144       8274.2095      1.5618891      0.86391526   
     10900  -6095.8158     -6172.0357      76.219842      27504.474      455.33773      8252.5049      1.565997       0.86391526   
     11000  -6098.4896     -6173.8965      75.406949      32245.65       450.4815       8238.3118      1.5686949      0.76077619   
     11100  -6096.0182     -6171.5945      75.576257      27889.657      451.49295      8236.041       1.5691274      0.76077619   
     11200  -6095.6307     -6172.8384      77.207791      29189.377      461.23974      8247.3726      1.5669715      0.76077619   
     11300  -6097.5142     -6176.2063      78.692182      28530.564      470.1075       8271.2218      1.5624533      0.76077619   
     11400  -6097.9467     -6173.0794      75.132707      27439.668      448.84318      8299.7482      1.5570831      0.76077619   
     11500  -6098.5606     -6173.0619      74.501294      27424.715      445.07112      8332.3913      1.5509831      0.76077619   
     11600  -6099.6109     -6176.4256      76.814727      27166.782      458.89157      8359.3652      1.5459784      0.76077619   
     11700  -6098.4114     -6173.2654      74.854012      28407.094      447.17825      8372.1725      1.5436134      0.76077619   
     11800  -6097.9381     -6172.8327      74.894565      30461.112      447.42052      8371.1019      1.5438108      0.76077619   
     11900  -6099.4176     -6175.1959      75.778363      31563.706      452.70033      8356.3078      1.546544       0.76077619   
     12000  -6099.9201     -6175.6064      75.686272      30636.455      452.15018      8328.8668      1.5516394      0.83622908   
     12100  -6098.1308     -6173.2222      75.091432      32259.943      448.5966       8291.2116      1.5586863      0.83622908   
     12200  -6097.0418     -6173.36        76.318199      31753.831      455.92532      8252.2632      1.5660429      0.83622908   
     12300  -6095.3185     -6173.7011      78.382668      32626.941      468.25846      8220.8222      1.5720323      0.83622908   
     12400  -6096.9344     -6173.0426      76.108159      34671.428      454.67054      8203.9038      1.5752742      0.83622908   
     12500  -6094.1459     -6170.5354      76.389517      36311.649      456.35137      8205.3119      1.5750038      0.83622908   
     12600  -6093.5492     -6170.9853      77.436129      36406.406      462.60383      8228.8007      1.5705081      0.83622908   
     12700  -6095.7604     -6172.9164      77.156011      32055.195      460.93041      8269.3546      1.5628061      0.83622908   
     12800  -6095.0974     -6174.3736      79.276241      32776.68       473.59667      8316.67        1.5539149      0.83622908   
     12900  -6098.2345     -6173.6753      75.440858      28524.569      450.68407      8365.0005      1.5449369      0.83622908   
     13000  -6096.8815     -6175.7183      78.836795      26317.153      470.97142      8403.8176      1.5378009      0.83445266   
     13100  -6095.1931     -6171.6357      76.44258       23996.395      456.66837      8424.9351      1.5339463      0.83445266   
     13200  -6095.5595     -6173.0103      77.450819      23882.995      462.69159      8432.1849      1.5326274      0.83445266   
     13300  -6093.8344     -6170.781       76.946653      23949.687      459.6797       8424.1283      1.5340932      0.83445266   
     13400  -6095.1126     -6171.9878      76.875292      28356.764      459.25339      8402.6926      1.5380067      0.83445266   
     13500  -6095.6404     -6171.6697      76.029292      26743.61       454.19938      8373.9081      1.5432935      0.83445266   
     13600  -6095.2017     -6174.0077      78.806038      27535.196      470.78768      8340.2594      1.5495199      0.83445266   
     13700  -6095.5479     -6172.7933      77.2454        33125.411      461.46442      8306.3118      1.5558527      0.83445266   
     13800  -6097.7669     -6172.4686      74.701723      34265.833      446.26848      8282.2486      1.5603731      0.83445266   
     13900  -6097.3409     -6175.9198      78.57893       36942.463      469.43094      8268.7247      1.5629252      0.83445266   
     14000  -6096.7515     -6171.9831      75.231618      35608.52       449.43407      8263.0617      1.5639963      0.89733261   
     14100  -6093.5128     -6170.2986      76.785819      31222.159      458.71888      8268.0738      1.5630482      0.89733261   
     14200  -6093.9796     -6173.7131      79.733468      31415.99       476.32815      8285.1203      1.5598323      0.89733261   
     14300  -6092.6504     -6172.0615      79.411089      31746.766      474.40226      8309.2858      1.5552959      0.89733261   
     14400  -6092.8091     -6173.6156      80.806531      32228.859      482.73863      8335.9465      1.5503216      0.89733261   
     14500  -6092.0803     -6170.0999      78.019577      30030.139      466.08935      8362.6933      1.5453631      0.89733261   
     14600  -6090.4044     -6169.7962      79.391816      28874.512      474.28712      8386.123       1.5410456      0.89733261   
     14700  -6090.7437     -6168.556       77.812272      31003.544      464.85091      8401.9737      1.5381383      0.89733261   
     14800  -6094.7158     -6170.5386      75.822775      30272.086      452.96565      8408.5916      1.5369278      0.89733261   
     14900  -6093.3432     -6170.2913      76.948122      29561.995      459.68848      8404.5368      1.5376693      0.89733261   
     15000  -6093.6309     -6171.5962      77.965275      26170.606      465.76496      8391.217       1.5401101      0.90840215   
     15100  -6092.8067     -6169.6482      76.84153       30279.79       459.0517       8368.912       1.5442148      0.90840215   
     15200  -6095.6005     -6170.9368      75.336355      34501.888      450.05977      8343.3097      1.5489534      0.90840215   
     15300  -6096.915      -6173.9562      77.041243      33275.235      460.24478      8318.6717      1.553541       0.90840215   
     15400  -6098.8534     -6173.5142      74.660792      34584.324      446.02396      8296.3768      1.5577159      0.90840215   
     15500  -6097.5651     -6172.9251      75.359937      35721.191      450.20065      8276.9849      1.5613654      0.90840215   
     15600  -6093.7257     -6171.2305      77.504741      36418.929      463.01372      8262.5205      1.5640987      0.90840215   
     15700  -6094.5954     -6173.7333      79.137972      36679.146      472.77065      8259.3457      1.5647         0.90840215   
     15800  -6097.8041     -6173.5434      75.739265      36941.02       452.46676      8265.6534      1.5635059      0.90840215   
     15900  -6097.399      -6173.6394      76.240401      32260.496      455.46055      8279.4484      1.5609008      0.90840215   
     16000  -6100.2744     -6174.9153      74.640959      29097.233      445.90547      8297.0125      1.5575965      0.87571651   
     16100  -6095.8661     -6172.1416      76.2755        27494.318      455.67023      8312.7318      1.5546511      0.87571651   
     16200  -6095.0494     -6172.5723      77.522897      31039.874      463.12219      8327.6538      1.5518654      0.87571651   
     16300  -6092.4436     -6171.2718      78.828191      30371.886      470.92002      8340.0213      1.5495641      0.87571651   
     16400  -6089.7231     -6169.5109      79.787837      33513.614      476.65295      8349.4428      1.5478156      0.87571651   
     16500  -6090.3751     -6170.5827      80.207603      26779.291      479.16063      8358.5496      1.5461292      0.87571651   
     16600  -6092.8636     -6172.0498      79.186256      28465.345      473.0591       8363.9036      1.5451395      0.87571651   
     16700  -6093.5015     -6171.5292      78.027772      31687.941      466.13831      8365.5191      1.5448411      0.87571651   
     16800  -6095.06       -6172.3021      77.242032      30924.278      461.44429      8365.6774      1.5448119      0.87571651   
     16900  -6096.784      -6172.5913      75.807243      32689.466      452.87286      8359.2992      1.5459906      0.87571651   
     17000  -6094.8876     -6171.4         76.512385      26968.751      457.08538      8343.2154      1.5489709      0.86277676   
     17100  -6097.1225     -6177.2272      80.104737      24936.159      478.54611      8320.0219      1.5532889      0.86277676   
     17200  -6098.1822     -6174.8347      76.652468      31316.357      457.92224      8287.8493      1.5593186      0.86277676   
     17300  -6096.6428     -6173.1641      76.521337      33238.066      457.13886      8255.4942      1.5654299      0.86277676   
     17400  -6094.6614     -6170.4267      75.765365      29838.042      452.62268      8232.8526      1.5697351      0.86277676   
     17500  -6094.143      -6173.2622      79.119268      33092.889      472.65892      8223.5151      1.5715175      0.86277676   
     17600  -6094.1799     -6170.5421      76.362159      29635.332      456.18793      8232.3776      1.5698257      0.86277676   
     17700  -6095.7751     -6174.7462      78.971158      32893.913      471.77411      8259.2324      1.5647214      0.86277676   
     17800  -6093.8486     -6170.9591      77.110541      32531.761      460.65877      8295.249       1.5579277      0.86277676   
     17900  -6096.3269     -6172.0254      75.698447      28701.956      452.22291      8334.5757      1.5505766      0.86277676   
     18000  -6096.0822     -6173.4325      77.350316      26436.147      462.09119      8369.5289      1.544101       0.80615511   
     18100  -6097.1774     -6173.2403      76.062863      25122.312      454.39994      8388.2659      1.5406519      0.80615511   
     18200  -6098.3502     -6175.2614      76.911278      26711.134      459.46837      8387.2489      1.5408387      0.80615511   
     18300  -6099.4072     -6175.512       76.104802      28023.891      454.65048      8368.454       1.5442993      0.80615511   
     18400  -6100.5577     -6175.3713      74.813522      31330.167      446.93637      8335.1297      1.5504735      0.80615511   
     18500  -6096.3571     -6172.3056      75.948448      31261.16       453.71642      8291.2239      1.558684       0.80615511   
     18600  -6096.4474     -6174.947       78.499609      32800.849      468.95707      8250.6362      1.5663517      0.80615511   
     18700  -6094.8102     -6173.5567      78.746548      39914.547      470.43228      8217.1784      1.5727294      0.80615511   
     18800  -6095.3824     -6170.6956      75.31321       37869.085      449.9215       8197.9919      1.5764102      0.80615511   
     18900  -6095.1391     -6173.0464      77.907237      31966.1        465.41823      8200.9869      1.5758345      0.80615511   
     19000  -6097.2322     -6172.2158      74.983621      30170.48       447.95254      8219.9439      1.5722003      0.8068046    
     19100  -6097.3295     -6173.0749      75.745409      28707.241      452.50346      8250.7107      1.5663375      0.8068046    
     19200  -6097.1506     -6172.7852      75.634627      31442.44       451.84165      8287.5797      1.5593694      0.8068046    
     19300  -6098.0735     -6174.569       76.495443      30529.803      456.98417      8322.1783      1.5528865      0.8068046    
     19400  -6098.3358     -6173.7755      75.439672      33920.504      450.67699      8348.5445      1.5479822      0.8068046    
     19500  -6096.4268     -6174.4243      77.997517      30119.781      465.95757      8366.2326      1.5447094      0.8068046    
     19600  -6095.8185     -6174.5594      78.740915      31148.464      470.39863      8372.0825      1.54363        0.8068046    
     19700  -6096.2126     -6171.8425      75.629951      28435.148      451.81372      8367.664       1.5444451      0.8068046    
     19800  -6096.385      -6172.2465      75.861446      27702.124      453.19667      8353.4951      1.5470648      0.8068046    
     19900  -6096.9901     -6174.4491      77.458989      29958.419      462.7404       8333.6702      1.5507451      0.8068046    
     20000  -6095.6176     -6173.1351      77.517452      31723.078      463.08966      8308.5115      1.5554408      0.92353051   
     20033  -6095.8535     -6173.0191      77.16562       30864.996      460.98781      8300.0249      1.5570312      0.92353051   
Loop time of 86.0582 on 1 procs for 20000 steps with 1296 atoms

Performance: 10.040 ns/day, 2.391 hours/ns, 232.401 timesteps/s, 301.191 katom-step/s
99.8% CPU use with 1 MPI tasks x 1 OpenMP threads

MPI task timing breakdown:
Section |  min time  |  avg time  |  max time  |%varavg| %total
---------------------------------------------------------------
Pair    | 65.617     | 65.617     | 65.617     |   0.0 | 76.25
Neigh   | 0.87784    | 0.87784    | 0.87784    |   0.0 |  1.02
Comm    | 0.88638    | 0.88638    | 0.88638    |   0.0 |  1.03
Output  | 0.025756   | 0.025756   | 0.025756   |   0.0 |  0.03
Modify  | 18.2       | 18.2       | 18.2       |   0.0 | 21.15
Other   |            | 0.4503     |            |       |  0.52

Nlocal:           1296 ave        1296 max        1296 min
Histogram: 1 0 0 0 0 0 0 0 0 0
Nghost:           4440 ave        4440 max        4440 min
Histogram: 1 0 0 0 0 0 0 0 0 0
Neighs:              0 ave           0 max           0 min
Histogram: 1 0 0 0 0 0 0 0 0 0
FullNghs:       232030 ave      232030 max      232030 min
Histogram: 1 0 0 0 0 0 0 0 0 0

Total # of neighbors = 232030
Ave neighs/atom = 179.03549
Neighbor list builds = 1999
Dangerous builds = 1996

unfix 3
unfix 4

################## main calculation

dump 		3 all custom 1000 traj.lammpstrj id type element x y z
dump_modify     3 element H O

fix             3 all nph aniso ${pressure} ${pressure} ${pressureDamp}
fix             3 all nph aniso 30000 ${pressure} ${pressureDamp}
fix             3 all nph aniso 30000 30000 ${pressureDamp}
fix             3 all nph aniso 30000 30000 1
fix             4 all temp/csvr ${temperature} ${temperature} ${tempDamp} ${seed}
fix             4 all temp/csvr 460 ${temperature} ${tempDamp} ${seed}
fix             4 all temp/csvr 460 460 ${tempDamp} ${seed}
fix             4 all temp/csvr 460 460 0.1 ${seed}
fix             4 all temp/csvr 460 460 0.1 13929
velocity 	all create ${temperature} ${seed} dist gaussian
velocity 	all create 460 ${seed} dist gaussian
velocity 	all create 460 13929 dist gaussian

run             2000000
WARNING: Fix with atom-based arrays not compatible with Kokkos sorting on device, switching to classic host sorting (src/KOKKOS/atom_kokkos.cpp:216)
Per MPI rank memory allocation (min/avg/max) = 1138 | 1138 | 1138 Mbytes
   Step         TotEng         PotEng         KinEng         Press           Temp          Volume        Density     c_max_pace_gamma
     20033  -6096.0189     -6173.0191      77.000268      30843.717      460            8300.0249      1.5570312      0.92353051   
     20100  -6094.7927     -6171.0467      76.253993      25147.28       455.54175      8299.9912      1.5570375      0.92353051   
     20200  -6093.396      -6173.6804      80.284478      27181.321      479.61988      8300.0706      1.5570226      0.92353051   
     20300  -6095.2995     -6175.136       79.836492      30377.539      476.94361      8298.9878      1.5572258      0.92353051   
     20400  -6094.5769     -6173.5783      79.001349      30726.349      471.95447      8297.1123      1.5575778      0.92353051   
     20500  -6093.661      -6169.2604      75.599359      30191.072      451.63096      8296.2931      1.5577316      0.92353051   
     20600  -6094.608      -6171.7425      77.13456       29711.648      460.80226      8298.9081      1.5572408      0.92353051   
     20700  -6095.3637     -6173.3359      77.972181      31990.657      465.80621      8305.0249      1.5560938      0.92353051   
     20800  -6094.5001     -6174.9748      80.474626      35794.93       480.75583      8311.3378      1.5549119      0.92353051   
     20900  -6095.228      -6172.5616      77.333575      35960.217      461.99117      8314.5685      1.5543077      0.92353051   
     21000  -6093.1004     -6171.2084      78.107986      26687.655      466.61751      8316.9733      1.5538583      0.82786274   
     21100  -6094.5718     -6172.1433      77.571551      25408.689      463.41285      8320.8016      1.5531434      0.82786274   
     21200  -6095.6119     -6171.2337      75.621751      28889.546      451.76473      8322.9523      1.552742       0.82786274   
     21300  -6095.7337     -6172.9494      77.215684      30073.109      461.28689      8323.093       1.5527158      0.82786274   
     21400  -6096.1778     -6173.6214      77.443603      27782.842      462.64848      8319.2299      1.5534368      0.82786274   
     21500  -6094.9212     -6172.4475      77.526245      26295.258      463.14219      8311.9175      1.5548034      0.82786274   
     21600  -6094.6945     -6169.3029      74.608415      24405.696      445.71106      8299.8914      1.5570563      0.82786274   
     21700  -6095.0049     -6175.1392      80.134301      28261.719      478.72273      8288.8802      1.5591247      0.82786274   
     21800  -6095.2503     -6173.0789      77.828568      29287.647      464.94827      8279.9588      1.5608046      0.82786274   
     21900  -6094.6917     -6172.2524      77.560747      34818.722      463.34831      8271.6104      1.5623799      0.82786274   
     22000  -6094.1196     -6171.9993      77.879642      38770.479      465.25338      8266.4104      1.5633627      0.82739724   
     22100  -6095.4662     -6173.1022      77.635989      31876.552      463.7978       8268.4415      1.5629787      0.82739724   
     22200  -6095.8827     -6172.4575      76.57479       29529.805      457.45819      8273.745       1.5619768      0.82739724   
     22300  -6097.2813     -6172.568       75.286734      28816.258      449.76334      8282.7986      1.5602695      0.82739724   
     22400  -6098.9085     -6173.6722      74.763676      31597.798      446.63859      8292.3048      1.5584808      0.82739724   
     22500  -6100.1235     -6173.8976      73.774077      32305.619      440.72672      8299.3932      1.5571497      0.82739724   
     22600  -6101.3579     -6176.5997      75.241767      27720.455      449.4947       8303.7267      1.5563371      0.82739724   
     22700  -6101.9591     -6176.264       74.304879      27545.909      443.89773      8298.6968      1.5572804      0.82739724   
     22800  -6100.819      -6176.71        75.891033      32335.461      453.37342      8285.4198      1.5597759      0.82739724   
     22900  -6104.2884     -6176.0693      71.780952      29144.12       428.81978      8266.0543      1.5634301      0.82739724   
     23000  -6102.0615     -6174.9942      72.932748      30910.313      435.70061      8241.1838      1.5681482      0.90992524   
     23100  -6098.87       -6174.9644      76.094405      30134.967      454.58836      8217.6323      1.5726425      0.90992524   
     23200  -6095.9963     -6171.9929      75.996548      35426.029      454.00377      8202.875       1.5754718      0.90992524   
     23300  -6094.8638     -6174.6         79.736192      34380.252      476.34442      8204.4096      1.5751771      0.90992524   
     23400  -6094.6175     -6171.6405      77.022995      30432.911      460.13577      8217.7781      1.5726146      0.90992524   
     23500  -6095.7911     -6171.7155      75.924332      29078.242      453.57235      8243.096       1.5677845      0.90992524   
     23600  -6098.1409     -6173.2619      75.121026      31721.692      448.7734       8274.3035      1.5618714      0.90992524   
     23700  -6097.9689     -6176.6317      78.66287       29567.547      469.93239      8304.9359      1.5561105      0.90992524   
     23800  -6096.156      -6171.8069      75.650894      33396.963      451.93883      8328.0925      1.5517837      0.90992524   
     23900  -6099.3986     -6174.4691      75.070561      29625.104      448.47192      8343.4232      1.5489323      0.90992524   
     24000  -6096.9603     -6173.3171      76.356761      29011.028      456.15568      8344.6472      1.5487051      0.83389696   
     24100  -6098.5756     -6173.9942      75.418589      27378.323      450.55104      8334.3036      1.5506272      0.83389696   
     24200  -6098.4783     -6174.0927      75.614381      25042.647      451.7207       8317.1982      1.5538163      0.83389696   
     24300  -6098.2829     -6172.5476      74.2647        30483.45       443.6577       8294.8955      1.557994       0.83389696   
     24400  -6095.6261     -6173.9779      78.351764      32491.93       468.07384      8267.9697      1.5630679      0.83389696   
     24500  -6095.3166     -6172.2792      76.962593      29743.166      459.77493      8244.0117      1.5676103      0.83389696   
     24600  -6096.6735     -6173.1368      76.463271      27965.643      456.79198      8231.0982      1.5700697      0.83389696   
     24700  -6098.7606     -6176.8773      78.116673      29451.886      466.66941      8228.9311      1.5704832      0.83389696   
     24800  -6096.6118     -6173.6757      77.06387       39053.076      460.37996      8234.7642      1.5693707      0.83389696   
     24900  -6094.8691     -6173.3872      78.51809       35641.248      469.06747      8248.8116      1.5666981      0.83389696   
     25000  -6095.2056     -6174.463       79.257453      30526.624      473.48443      8271.4633      1.5624077      0.8519612    
     25100  -6097.8943     -6175.7623      77.868076      28202.601      465.18429      8298.1516      1.5573827      0.8519612    
     25200  -6098.3124     -6172.7719      74.459526      30147.233      444.82159      8316.8101      1.5538888      0.8519612    
     25300  -6098.876      -6172.7698      73.893809      28078.993      441.44199      8329.0495      1.5516054      0.8519612    
     25400  -6099.7205     -6176.1823      76.461813      27464.491      456.78326      8332.4843      1.5509658      0.8519612    
     25500  -6100.5249     -6174.2386      73.713674      28483.434      440.36587      8323.1406      1.5527069      0.8519612    
     25600  -6099.5244     -6174.698       75.173563      29632.788      449.08725      8305.0687      1.5560856      0.8519612    
     25700  -6097.93       -6173.464       75.533951      32261.12       451.24021      8280.161       1.5607665      0.8519612    
     25800  -6095.5118     -6175.221       79.709262      35646.973      476.18354      8257.4564      1.565058       0.8519612    
     25900  -6096.4195     -6172.2806      75.861117      34308.714      453.1947       8243.2329      1.5677584      0.8519612    
     26000  -6097.1149     -6175.7261      78.611256      30949.669      469.62405      8241.7802      1.5680348      0.80229473   
     26100  -6095.6967     -6173.0392      77.342463      30853.406      462.04428      8251.9741      1.5660977      0.80229473   
     26200  -6093.9724     -6168.7683      74.795888      32421.808      446.83102      8273.1109      1.5620965      0.80229473   
     26300  -6095.6549     -6173.8661      78.211174      33153.449      467.23396      8304.6464      1.5561647      0.80229473   
     26400  -6096.1418     -6174.0669      77.925077      31793.948      465.52481      8340.0377      1.5495611      0.80229473   
     26500  -6101.2279     -6174.8972      73.66929       31289.232      440.10072      8368.8728      1.5442221      0.80229473   
     26600  -6099.9948     -6174.2557      74.260929      23577.159      443.63517      8384.6858      1.5413097      0.80229473   
     26700  -6098.5567     -6173.1688      74.612128      23902.789      445.73324      8385.3259      1.5411921      0.80229473   
     26800  -6098.5464     -6174.0816      75.535192      28625.275      451.24762      8373.8354      1.5433069      0.80229473   
     26900  -6097.795      -6173.0037      75.208631      27982.955      449.29675      8352.4646      1.5472556      0.80229473   
     27000  -6095.5472     -6174.0393      78.492101      27294.428      468.91221      8326.6036      1.5520611      0.8341562    
     27100  -6093.4887     -6172.2806      78.791927      28881.908      470.70337      8299.2416      1.5571782      0.8341562    
     27200  -6093.6738     -6171.6874      78.01361       29577.986      466.05371      8280.1178      1.5607746      0.8341562    
     27300  -6095.0221     -6170.2805      75.258374      29750.896      449.59391      8273.1074      1.5620972      0.8341562    
     27400  -6097.6825     -6176.2485      78.565999      27337.095      469.35368      8274.4162      1.5618501      0.8341562    
     27500  -6097.4489     -6170.0531      72.604162      35398.31       433.73764      8277.6266      1.5612444      0.8341562    
     27600  -6100.4514     -6176.0512      75.599808      29300.033      451.63364      8282.5369      1.5603188      0.8341562    
     27700  -6100.3109     -6174.5958      74.284886      33047.049      443.77829      8286.2867      1.5596127      0.8341562    
     27800  -6098.5722     -6175.2914      76.719232      33834.344      458.32109      8289.389       1.559029       0.8341562    
     27900  -6093.8202     -6172.5852      78.765069      32497.34       470.54293      8292.292       1.5584832      0.8341562    
     28000  -6095.0873     -6175.2161      80.128818      25978.921      478.68997      8299.9802      1.5570396      0.74923105   
     28100  -6094.8288     -6171.9194      77.090601      30471.582      460.53965      8309.9252      1.5551762      0.74923105   
     28200  -6093.4556     -6172.6162      79.160619      28325.741      472.90595      8321.1789      1.553073       0.74923105   
     28300  -6093.3623     -6170.9445      77.582271      30365.687      463.47689      8333.592       1.5507596      0.74923105   
     28400  -6094.0337     -6171.3409      77.307215      25025.715      461.8337       8344.8833      1.5486613      0.74923105   
     28500  -6095.3961     -6172.9847      77.588628      25783.428      463.51486      8353.7995      1.5470084      0.74923105   
     28600  -6096.3277     -6173.8473      77.519627      21728.729      463.10265      8356.1377      1.5465755      0.74923105   
     28700  -6098.1823     -6172.7993      74.617004      29061.271      445.76237      8349.2919      1.5478436      0.74923105   
     28800  -6097.5279     -6173.7804      76.25248       26697.541      455.53271      8334.2529      1.5506366      0.74923105   
     28900  -6096.2977     -6171.7174      75.41971       31768.668      450.55773      8310.7782      1.5550166      0.74923105   
     29000  -6094.0574     -6172.9824      78.925015      26965.92       471.49845      8286.6853      1.5595377      0.7563127    
     29100  -6095.583      -6173.3622      77.779122      30974.863      464.65288      8267.2639      1.5632013      0.7563127    
     29200  -6095.294      -6173.6692      78.375118      34198.104      468.21336      8257.9168      1.5649707      0.7563127    
     29300  -6095.2756     -6174.3515      79.075877      31287.886      472.3997       8257.8517      1.564983       0.7563127    
     29400  -6094.8447     -6171.7875      76.942783      32660.459      459.65658      8268.2069      1.563023       0.7563127    
     29500  -6094.8713     -6171.604       76.732685      39362.968      458.40145      8291.3889      1.558653       0.7563127    
     29600  -6094.7953     -6173.8272      79.031911      30073.159      472.13705      8321.2936      1.5530515      0.7563127    
     29700  -6093.5946     -6172.0004      78.405749      30266.042      468.39635      8352.5901      1.5472324      0.7563127    
     29800  -6095.9913     -6172.6396      76.648319      26713.516      457.89745      8382.131       1.5417795      0.7563127    
     29900  -6096.6789     -6172.7264      76.04748       27584.047      454.30804      8401.6162      1.5382038      0.7563127    
     30000  -6095.3997     -6173.3662      77.966562      26775.72       465.77264      8405.8078      1.5374368      0.78829338   
     30100  -6095.0767     -6172.5615      77.484869      28233.58       462.89501      8396.2092      1.5391944      0.78829338   
     30200  -6095.5886     -6173.2221      77.633558      26793.217      463.78328      8374.213       1.5432373      0.78829338   
     30300  -6094.2777     -6172.8108      78.533095      33885.458      469.15711      8341.1358      1.5493571      0.78829338   
     30400  -6094.3849     -6172.1704      77.785524      30886.413      464.69112      8302.6066      1.5565471      0.78829338   
     30500  -6096.0959     -6175.62        79.524079      27941.773      475.07726      8264.781       1.5636709      0.78829338   
     30600  -6096.1941     -6171.8835      75.689402      33356.259      452.16888      8231.0994      1.5700695      0.78829338   
     30700  -6094.1807     -6171.6537      77.473008      37790.548      462.82415      8211.5581      1.5738058      0.78829338   
     30800  -6094.4064     -6173.048       78.641617      30579.29       469.80542      8209.861       1.5741311      0.78829338   
     30900  -6095.6454     -6173.4549      77.809517      31744.17       464.83445      8227.0696      1.5708385      0.78829338   
     31000  -6099.2822     -6173.1048      73.82266       33026.735      441.01695      8256.7988      1.5651826      0.84920694   
     31100  -6097.258      -6173.0863      75.828308      30226.472      452.99871      8293.3634      1.5582819      0.84920694   
     31200  -6097.3009     -6173.0685      75.767599      31456.74       452.63603      8329.2291      1.5515719      0.84920694   
     31300  -6097.9692     -6173.7065      75.737302      29201.679      452.45503      8359.361       1.5459792      0.84920694   
     31400  -6098.3825     -6175.8588      77.476298      27186.906      462.8438       8377.1556      1.5426952      0.84920694   
     31500  -6098.5447     -6172.8391      74.294469      27112.362      443.83554      8376.534       1.5428097      0.84920694   
     31600  -6098.6853     -6175.0672      76.381907      26881.48       456.30591      8360.8397      1.5457057      0.84920694   
     31700  -6097.231      -6173.4761      76.245043      28694.321      455.48828      8328.9349      1.5516267      0.84920694   
     31800  -6096.3903     -6171.1467      74.756358      26986.4        446.59487      8290.5624      1.5588083      0.84920694   
     31900  -6097.8353     -6175.0879      77.252658      27055.378      461.50777      8255.6525      1.5653999      0.84920694   
     32000  -6098.7263     -6174.5692      75.842955      31797.125      453.0862       8226.7321      1.570903       0.88535088   
     32100  -6097.4898     -6172.4896      74.999742      29164.91       448.04885      8208.684       1.5743568      0.88535088   
     32200  -6097.5561     -6174.6537      77.097565      31550.12       460.58125      8206.289       1.5748163      0.88535088   
     32300  -6096.4251     -6174.3365      77.911345      32104.644      465.44278      8219.3957      1.5723051      0.88535088   
     32400  -6098.1495     -6172.7239      74.574454      38318.701      445.50817      8246.9304      1.5670555      0.88535088   
     32500  -6096.1352     -6173.2454      77.110216      28628.997      460.65683      8282.4667      1.560332       0.88535088   
     32600  -6095.2868     -6172.604       77.31722       33500.328      461.89347      8320.1302      1.5532687      0.88535088   
     32700  -6096.8142     -6172.485       75.670738      29264.701      452.05738      8356.0086      1.5465994      0.88535088   
     32800  -6095.3439     -6172.1987      76.854849      23624.842      459.13126      8382.2783      1.5417524      0.88535088   
     32900  -6098.0456     -6173.2468      75.201231      26640.104      449.25254      8393.6096      1.5396711      0.88535088   
     33000  -6095.8695     -6175.227       79.357463      24267.229      474.08189      8386.3277      1.541008       0.84885244   
     33100  -6093.9363     -6169.4903      75.553997      27609.375      451.35997      8363.2411      1.5452619      0.84885244   
     33200  -6093.8586     -6171.1819      77.323256      32108.361      461.92953      8335.6831      1.5503706      0.84885244   
     33300  -6092.0385     -6170.761       78.722443      30743.883      470.28828      8311.2297      1.5549321      0.84885244   
     33400  -6094.4129     -6172.6382      78.225328      25834.389      467.31851      8291.9288      1.5585515      0.84885244   
     33500  -6095.3225     -6172.162       76.839555      24253.768      459.0399       8278.8789      1.5610082      0.84885244   
     33600  -6095.6823     -6172.253       76.57069       30783.728      457.4337       8270.5015      1.5625894      0.84885244   
     33700  -6096.7203     -6173.9694      77.249042      29872.685      461.48618      8267.7027      1.5631184      0.84885244   
     33800  -6099.5254     -6173.5667      74.041335      32817.445      442.32331      8271.6349      1.5623753      0.84885244   
     33900  -6098.8797     -6171.8809      73.001126      30764.37       436.1091       8280.5229      1.5606983      0.84885244   
     34000  -6098.3833     -6173.2704      74.887104      31292.15       447.37594      8290.675       1.5587872      0.91271764   
     34100  -6095.3169     -6176.1862      80.869305      32875.274      483.11364      8300.1642      1.5570051      0.91271764   
     34200  -6095.2151     -6172.6009      77.385838      31003.235      462.30339      8307.247       1.5556776      0.91271764   
     34300  -6093.5599     -6172.6029      79.042963      33543.801      472.20307      8317.4046      1.5537777      0.91271764   
     34400  -6093.4411     -6171.5463      78.105197      32394.718      466.60085      8327.7349      1.5518503      0.91271764   
     34500  -6092.4883     -6170.2838      77.795519      27293.667      464.75083      8338.6792      1.5498135      0.91271764   
     34600  -6090.4642     -6170.9106      80.446339      30107.291      480.58685      8350.7007      1.5475825      0.91271764   
     34700  -6090.9845     -6170.86        79.875499      29371.472      477.17664      8361.5767      1.5455695      0.91271764   
     34800  -6095.052      -6173.5805      78.528504      27894.691      469.12969      8368.9579      1.5442063      0.91271764   
     34900  -6093.6716     -6170.9324      77.260772      30711.035      461.55625      8366.0324      1.5447463      0.91271764   
     35000  -6093.9302     -6170.3953      76.465044      27324.365      456.80257      8358.0763      1.5462168      0.77944979   
     35100  -6093.7411     -6171.7489      78.007769      30571.511      466.01882      8341.4758      1.5492939      0.77944979   
     35200  -6096.7121     -6171.4149      74.702798      33905.92       446.2749       8318.045       1.5536581      0.77944979   
     35300  -6097.1978     -6171.2901      74.092285      32798.002      442.62769      8294.7069      1.5580295      0.77944979   
     35400  -6099.6407     -6176.4799      76.839164      34378.86       459.03756      8274.1557      1.5618993      0.77944979   
     35500  -6098.3286     -6173.3837      75.055109      35264.75       448.37961      8254.9041      1.5655419      0.77944979   
     35600  -6094.5791     -6173.4402      78.861107      34930.316      471.11666      8245.7235      1.5672849      0.77944979   
     35700  -6095.3287     -6171.9029      76.574286      33552.548      457.45518      8252.7439      1.5659516      0.77944979   
     35800  -6098.8337     -6173.9121      75.078392      33018.882      448.5187       8274.9312      1.5617529      0.77944979   
     35900  -6098.6329     -6173.7859      75.152941      30994.863      448.96406      8301.4627      1.5567616      0.77944979   
     36000  -6101.3432     -6175.3003      73.957063      33373.696      441.81987      8328.9483      1.5516242      0.82319389   
     36100  -6097.0102     -6173.2198      76.209627      32119.111      455.2767       8351.1997      1.54749        0.82319389   
     36200  -6096.1626     -6172.3965      76.233883      28867.862      455.42161      8366.853       1.5445948      0.82319389   
     36300  -6093.5542     -6173.4024      79.848134      29250.592      477.01316      8375.6138      1.5429792      0.82319389   
     36400  -6090.4909     -6172.6783      82.187366      30826.095      490.98775      8375.0915      1.5430754      0.82319389   
     36500  -6090.2671     -6167.5768      77.309693      29392.293      461.8485       8369.6975      1.5440699      0.82319389   
     36600  -6092.6655     -6172.1036      79.438112      27790.722      474.56369      8362.3991      1.5454175      0.82319389   
     36700  -6093.1913     -6171.1463      77.955015      29329.952      465.70366      8350.3752      1.5476428      0.82319389   
     36800  -6094.6632     -6173.7936      79.130403      27934.075      472.72543      8335.8558      1.5503385      0.82319389   
     36900  -6096.2476     -6173.4792      77.2316        31244.436      461.38198      8319.9336      1.5533054      0.82319389   
     37000  -6094.7738     -6173.9033      79.129522      30905.337      472.72017      8305.6897      1.5559693      0.82640361   
     37100  -6096.9515     -6172.5826      75.631046      31675.128      451.82026      8293.7749      1.5582046      0.82640361   
     37200  -6098.0777     -6175.4858      77.408066      24732.767      462.43618      8284.9283      1.5598684      0.82640361   
     37300  -6097.0555     -6172.3501      75.294526      30029.252      449.80988      8279.7359      1.5608466      0.82640361   
     37400  -6095.5729     -6173.1462      77.573386      34537.295      463.42381      8282.089       1.5604032      0.82640361   
     37500  -6095.0387     -6170.4242      75.38549       31870.391      450.35331      8293.5247      1.5582516      0.82640361   
     37600  -6095.167      -6172.241       77.074003      27978.145      460.44049      8314.9391      1.5542384      0.82640361   
     37700  -6096.1896     -6172.0074      75.817818      29965.344      452.93604      8342.1426      1.5491701      0.82640361   
     37800  -6094.0521     -6171.2725      77.2204        31733.718      461.31507      8367.7113      1.5444364      0.82640361   
     37900  -6096.1672     -6173.7122      77.544981      26160.861      463.25411      8388.9451      1.5405272      0.82640361   
     38000  -6095.9021     -6173.8687      77.966565      29034.972      465.77266      8396.6012      1.5391225      0.86689915   
     38100  -6095.956      -6174.3346      78.378569      22966.822      468.23397      8389.9673      1.5403395      0.86689915   
     38200  -6097.4239     -6174.3074      76.883551      24822.472      459.30273      8368.0549      1.544373       0.86689915   
     38300  -6098.4612     -6171.0242      72.562978      25280.042      433.4916       8329.4239      1.5515356      0.86689915   
     38400  -6099.1416     -6173.5003      74.358639      31537.613      444.21889      8283.75        1.5600903      0.86689915   
     38500  -6095.7201     -6171.7187      75.998611      32778.605      454.01609      8239.9519      1.5683827      0.86689915   
     38600  -6096.1943     -6172.6179      76.42355       31509.735      456.55468      8207.3738      1.5746082      0.86689915   
     38700  -6094.4553     -6171.5951      77.139764      32779.242      460.83334      8192.93        1.5773842      0.86689915   
     38800  -6095.3529     -6173.0127      77.659838      33852.093      463.94027      8201.758       1.5756863      0.86689915   
     38900  -6095.8427     -6174.1677      78.325018      31443.929      467.91406      8233.2947      1.5696508      0.86689915   
     39000  -6097.7825     -6174.7956      77.013153      31046.793      460.07697      8278.4701      1.5610853      0.87110684   
     39100  -6098.493      -6175.157       76.66399       27856.081      457.99107      8325.0139      1.5523575      0.87110684   
     39200  -6097.9667     -6172.962       74.995362      28186.736      448.02268      8364.8947      1.5449564      0.87110684   
     39300  -6098.1521     -6175.7439      77.591826      28566.499      463.53397      8393.4781      1.5396952      0.87110684   
     39400  -6098.6704     -6172.5342      73.863842      29593.08       441.26297      8402.1898      1.5380988      0.87110684   
     39500  -6095.5801     -6174.3731      78.792975      25905.373      470.70964      8391.0558      1.5401397      0.87110684   
     39600  -6095.4864     -6174.5618      79.075477      27887.696      472.39731      8365.6381      1.5448191      0.87110684   
     39700  -6095.1253     -6173.1071      77.981797      33694.511      465.86366      8328.3533      1.5517351      0.87110684   
     39800  -6095.3202     -6173.4677      78.147506      30855.787      466.8536       8290.9622      1.5587332      0.87110684   
     39900  -6095.8783     -6171.8515      75.973276      36085.068      453.86474      8258.4266      1.5648741      0.87110684   
     40000  -6094.398      -6170.4901      76.092129      40540.553      454.57477      8238.9406      1.5685752      0.80877127   
     40100  -6095.9181     -6175.9513      80.033196      34610.867      478.11872      8234.9213      1.5693408      0.80877127   
     40200  -6096.981      -6175.5997      78.618721      36339.18       469.66865      8242.603       1.5678782      0.80877127   
     40300  -6096.6125     -6172.5564      75.943947      34824.782      453.68953      8259.8287      1.5646085      0.80877127   
     40400  -6097.686      -6175.0545      77.368501      32432.465      462.19983      8286.845       1.5595076      0.80877127   
     40500  -6094.9413     -6173.592       78.650732      31460.448      469.85988      8314.2607      1.5543653      0.80877127   
     40600  -6095.7708     -6172.7582      76.987479      26901.909      459.9236       8341.6104      1.5492689      0.80877127   
     40700  -6095.7681     -6172.9083      77.140252      24684.393      460.83626      8362.6873      1.5453642      0.80877127   
     40800  -6097.7123     -6174.5492      76.836853      23059.498      459.02375      8374.2577      1.5432291      0.80877127   
     40900  -6096.9958     -6172.5262      75.530389      24882.028      451.21893      8373.4721      1.5433739      0.80877127   
     41000  -6093.2053     -6171.0288      77.823567      28085.534      464.91839      8359.918       1.5458762      0.80009026   
     41100  -6096.8696     -6174.5601      77.690438      30030.142      464.12307      8341.0701      1.5493693      0.80009026   
     41200  -6095.4207     -6174.4149      78.994235      30127.991      471.91197      8317.9473      1.5536763      0.80009026   
     41300  -6094.5069     -6172.7924      78.28547       35406.881      467.6778       8296.3613      1.5577188      0.80009026   
     41400  -6096.2349     -6174.1624      77.927495      34587.52       465.53926      8284.0594      1.560032       0.80009026   
     41500  -6095.845      -6173.0078      77.162823      34049.296      460.9711       8277.4236      1.5612827      0.80009026   
     41600  -6094.7342     -6172.069       77.334783      35573.817      461.99839      8277.0003      1.5613625      0.80009026   
     41700  -6097.3724     -6173.9104      76.537999      30926.154      457.2384       8283.8136      1.5600783      0.80009026   
     41800  -6097.2553     -6172.7552      75.499959      33609.787      451.03714      8294.9033      1.5579926      0.80009026   
     41900  -6097.8534     -6173.8774      76.024017      34219.869      454.16787      8307.8111      1.5555719      0.80009026   
     42000  -6095.0418     -6171.3696      76.327884      33155.386      455.98317      8319.5765      1.5533721      0.81222395   
     42100  -6092.185      -6170.4231      78.238174      30342.353      467.39526      8331.4763      1.5511534      0.81222395   
     42200  -6093.0118     -6171.8428      78.83097       27797.073      470.93662      8341.4014      1.5493078      0.81222395   
     42300  -6094.1105     -6169.8933      75.782781      26652.284      452.72672      8351.2242      1.5474855      0.81222395   
     42400  -6096.0232     -6174.7865      78.763303      31745.363      470.53238      8360.1266      1.5458376      0.81222395   
     42500  -6094.9749     -6168.7994      73.824502      30747.634      441.02796      8365.8426      1.5447814      0.81222395   
     42600  -6096.8243     -6169.9977      73.173364      27494.681      437.13806      8369.2984      1.5441435      0.81222395   
     42700  -6097.9876     -6172.5667      74.579176      26636.397      445.53638      8365.7441      1.5447996      0.81222395   
     42800  -6097.0277     -6173.1857      76.158047      29219.1        454.96857      8354.1668      1.5469404      0.81222395   
     42900  -6095.0975     -6172.8547      77.75721       28212.054      464.52197      8340.2215      1.5495269      0.81222395   
     43000  -6094.1802     -6172.1915      78.011388      34120.025      466.04043      8329.5288      1.5515161      0.80818716   
     43100  -6096.338      -6173.5228      77.184724      30928.757      461.10194      8324.8302      1.5523918      0.80818716   
     43200  -6097.2487     -6172.9079      75.65921       30072.148      451.98851      8321.51        1.5530112      0.80818716   
     43300  -6098.284      -6174.3498      76.065746      25174.384      454.41716      8320.8972      1.5531255      0.80818716   
     43400  -6096.6333     -6173.0111      76.377775      28301.291      456.28122      8320.3577      1.5532262      0.80818716   
     43500  -6096.8694     -6174.4667      77.59724       31621.881      463.56631      8319.5357      1.5533797      0.80818716   
     43600  -6097.1357     -6174.8862      77.750545      28376.607      464.48216      8319.2022      1.553442       0.80818716   
     43700  -6096.901      -6173.2521      76.351067      29313.079      456.12167      8315.9512      1.5540493      0.80818716   
     43800  -6092.4459     -6170.4995      78.053583      33938.63       466.29251      8313.0196      1.5545973      0.80818716   
     43900  -6091.8526     -6172.5013      80.648688      32709.611      481.79568      8317.4599      1.5537674      0.80818716   
     44000  -6092.496      -6172.8625      80.366568      34157.906      480.11029      8327.7761      1.5518426      0.81617391   
     44100  -6093.7885     -6171.6047      77.816261      30487.833      464.87474      8342.2607      1.5491482      0.81617391   
     44200  -6095.7081     -6171.2776      75.569427      26020.153      451.45215      8358.0171      1.5462277      0.81617391   
     44300  -6095.2097     -6171.3496      76.139951      27723.904      454.86046      8371.425       1.5437513      0.81617391   
     44400  -6093.6177     -6172.5924      78.974744      31570.687      471.79553      8377.4456      1.5426418      0.81617391   
     44500  -6094.9623     -6169.1827      74.220409      31099.923      443.39311      8376.6122      1.5427953      0.81617391   
     44600  -6093.352      -6170.7533      77.401251      32773.354      462.39547      8372.5626      1.5435415      0.81617391   
     44700  -6094.7027     -6172.2153      77.512615      32538.654      463.06076      8365.3693      1.5448688      0.81617391   
     44800  -6094.3523     -6171.8736      77.521247      29898.842      463.11233      8352.8376      1.5471865      0.81617391   
     44900  -6095.4441     -6173.5075      78.063488      26387.602      466.35168      8336.8226      1.5501587      0.81617391   
     45000  -6097.7987     -6175.1785      77.379793      27003.378      462.26728      8316.4882      1.5539489      0.77309076   
     45100  -6095.5708     -6172.1446      76.573837      27301.118      457.4525       8297.07        1.5575857      0.77309076   
     45200  -6095.4726     -6175.7948      80.322127      33374.664      479.8448       8285.1909      1.559819       0.77309076   
     45300  -6095.3909     -6171.7319      76.341069      36442.052      456.06194      8283.0308      1.5602257      0.77309076   
     45400  -6097.6126     -6175.3279      77.715314      32517.978      464.27169      8292.2547      1.5584902      0.77309076   
     45500  -6096.6352     -6173.3461      76.710857      30552.496      458.27105      8308.5224      1.5554388      0.77309076   
     45600  -6097.7868     -6173.2037      75.4169        26909.595      450.54095      8329.2881      1.5515609      0.77309076   
     45700  -6099.1055     -6174.9718      75.866314      27109.738      453.22575      8346.7539      1.5483142      0.77309076   
     45800  -6097.2897     -6172.451       75.161234      27145.254      449.0136       8359.0799      1.5460311      0.77309076   
     45900  -6094.8919     -6172.4854      77.593509      25836.114      463.54403      8366.5444      1.5446518      0.77309076   
     46000  -6095.764      -6171.0402      75.276141      27938.085      449.70006      8368.9663      1.5442048      0.82711181   
     46100  -6095.1589     -6172.8182      77.65931       33554.212      463.93712      8367.2322      1.5445248      0.82711181   
     46200  -6097.0441     -6175.5124      78.468322      34757.679      468.77016      8360.2495      1.5458149      0.82711181   
     46300  -6096.2816     -6172.483       76.20142       29798.425      455.22768      8348.7807      1.5479384      0.82711181   
     46400  -6094.528      -6172.3629      77.83495       31405.503      464.98639      8338.1046      1.5499203      0.82711181   
     46500  -6095.1179     -6175.1559      80.038091      32469.704      478.14797      8328.2088      1.551762       0.82711181   
     46600  -6092.6617     -6169.7769      77.115251      31189.651      460.68691      8321.1024      1.5530872      0.82711181   
     46700  -6091.3652     -6170.8726      79.507343      26763.763      474.97728      8321.1289      1.5530823      0.82711181   
     46800  -6092.0845     -6169.5789      77.494481      30563.413      462.95243      8329.7556      1.5514738      0.82711181   
     46900  -6093.7071     -6171.4593      77.752205      30197.548      464.49208      8345.5287      1.5485415      0.82711181   
     47000  -6092.45       -6172.5064      80.05643       30539.46       478.25753      8362.0955      1.5454736      0.81253601   
     47100  -6091.6976     -6169.4799      77.782296      28121.259      464.67184      8376.5605      1.5428048      0.81253601   
     47200  -6093.0773     -6169.1674      76.090094      26959.797      454.56261      8390.0042      1.5403327      0.81253601   
     47300  -6092.1384     -6170.9076      78.769189      27971.906      470.56754      8399.2689      1.5386337      0.81253601   
     47400  -6093.0226     -6174.0732      81.050509      30281.435      484.19616      8400.3079      1.5384434      0.81253601   
     47500  -6092.8454     -6169.9116      77.066276      29424.448      460.39433      8391.5651      1.5400462      0.81253601   
     47600  -6088.0147     -6170.5257      82.510911      29489.155      492.92061      8380.2523      1.5421252      0.81253601   
     47700  -6090.9037     -6168.8663      77.962541      24983.946      465.74862      8367.4023      1.5444934      0.81253601   
     47800  -6091.9359     -6169.2539      77.317994      28133.191      461.8981       8354.4681      1.5468846      0.81253601   
     47900  -6092.7543     -6170.9946      78.240256      31269.703      467.40769      8340.5522      1.5494655      0.81253601   
     48000  -6091.9705     -6170.1504      78.179893      31116.107      467.04708      8328.3659      1.5517327      0.76812316   
     48100  -6093.0207     -6168.1278      75.107174      34166.138      448.69065      8318.1703      1.5536347      0.76812316   
     48200  -6092.6666     -6172.5642      79.897588      29168.21       477.3086       8312.7719      1.5546436      0.76812316   
     48300  -6094.842      -6168.8009      73.95891       28229.001      441.83091      8311.0382      1.5549679      0.76812316   
     48400  -6095.1682     -6175.2633      80.095154      28167.061      478.48886      8315.2715      1.5541763      0.76812316   
     48500  -6095.4105     -6171.8015      76.390976      27372.801      456.36008      8318.2567      1.5536185      0.76812316   
     48600  -6094.0192     -6172.8608      78.841616      27773.963      471.00022      8322.2027      1.5528819      0.76812316   
     48700  -6093.7068     -6169.9727      76.265898      32606.782      455.61287      8329.2879      1.551561       0.76812316   
     48800  -6093.9424     -6172.3046      78.362238      30081.476      468.13642      8341.9498      1.5492059      0.76812316   
     48900  -6094.1334     -6171.1591      77.025712      27463.05       460.152        8354.5297      1.5468732      0.76812316   
     49000  -6095.616      -6173.0578      77.441789      22905.239      462.63765      8365.0394      1.5449297      0.75227172   
     49100  -6097.1175     -6171.9884      74.870888      25491.297      447.27907      8369.3946      1.5441258      0.75227172   
     49200  -6095.5161     -6172.5796      77.063471      26482.216      460.37757      8365.2631      1.5448884      0.75227172   
     49300  -6093.938      -6171.4672      77.529231      25661.792      463.16003      8348.2512      1.5480365      0.75227172   
     49400  -6093.2039     -6168.6829      75.478942      30061.421      450.91159      8322.6458      1.5527992      0.75227172   
     49500  -6093.2447     -6170.7354      77.4907        28309.149      462.92984      8294.7844      1.5580149      0.75227172   
     49600  -6094.175      -6172.6733      78.498349      29892.858      468.94954      8269.5334      1.5627723      0.75227172   
     49700  -6094.4192     -6170.498       76.07877       30804.029      454.49496      8253.2355      1.5658584      0.75227172   
     49800  -6094.3738     -6173.5983      79.224514      29178.627      473.28765      8248.9154      1.5666784      0.75227172   
     49900  -6092.6935     -6170.9807      78.287205      27800.401      467.68817      8255.6548      1.5653995      0.75227172   
     50000  -6094.9821     -6172.1506      77.168485      34834.785      461.00493      8272.6475      1.562184       0.80159601   
     50100  -6094.0452     -6172.2491      78.203856      32263.89       467.19024      8300.2323      1.5569923      0.80159601   
     50200  -6093.1342     -6168.5719      75.437723      29812.24       450.66535      8332.9595      1.5508773      0.80159601   
     50300  -6092.5099     -6169.2814      76.771525      29261.432      458.63348      8365.5006      1.5448445      0.80159601   
     50400  -6092.3026     -6171.4787      79.176054      26167.098      472.99815      8392.4408      1.5398855      0.80159601   
     50500  -6093.9804     -6170.327       76.346567      25861.156      456.09478      8407.4055      1.5371446      0.80159601   
     50600  -6096.6444     -6172.4138      75.769459      25737.277      452.64714      8407.8381      1.5370655      0.80159601   
     50700  -6092.0578     -6171.7672      79.70935       28365.389      476.18407      8392.3325      1.5399054      0.80159601   
     50800  -6091.469      -6170.7515      79.282523      28208.301      473.6342       8368.4427      1.5443014      0.80159601   
     50900  -6089.9397     -6168.2222      78.282439      28095.26       467.65969      8340.9393      1.5493936      0.80159601   
     51000  -6087.2457     -6168.7887      81.543002      33732.731      487.13831      8315.0791      1.5542123      0.78381843   
     51100  -6086.9305     -6167.4794      80.548868      33661.471      481.19935      8300.8181      1.5568824      0.78381843   
     51200  -6089.3733     -6168.9961      79.622816      30180.825      475.66712      8300.6326      1.5569172      0.78381843   
     51300  -6093.4805     -6171.052       77.571492      28529.634      463.41249      8310.9065      1.5549926      0.78381843   
     51400  -6095.1841     -6172.8073      77.623175      27165.383      463.72125      8330.358       1.5513617      0.78381843   
     51500  -6095.6171     -6171.0119      75.394817      27471.672      450.40903      8350.9235      1.5475412      0.78381843   
     51600  -6096.5709     -6171.4053      74.834387      28440.485      447.06101      8367.9957      1.5443839      0.78381843   
     51700  -6097.508      -6173.2243      75.716259      30498.093      452.32932      8376.4943      1.542817       0.78381843   
     51800  -6097.3996     -6172.7838      75.384242      29433.004      450.34585      8375.3355      1.5430305      0.78381843   
     51900  -6096.7337     -6172.1405      75.406788      28678.7        450.48054      8365.5537      1.5448347      0.78381843   
     52000  -6096.5364     -6171.5258      74.989397      31353.816      447.98705      8348.5543      1.5479803      0.82387746   
     52100  -6098.1269     -6173.5208      75.393908      26032.215      450.40359      8328.4745      1.5517125      0.82387746   
     52200  -6097.091      -6172.4707      75.379656      26469.414      450.31845      8305.1113      1.5560776      0.82387746   
     52300  -6099.2154     -6173.8221      74.606651      35659.376      445.70052      8283.7714      1.5600862      0.82387746   
     52400  -6099.2725     -6173.6498      74.377294      32934.793      444.33034      8270.0019      1.5626838      0.82387746   
     52500  -6101.2605     -6176.7911      75.530616      29095.576      451.22029      8262.535       1.564096       0.82387746   
     52600  -6098.9748     -6175.3184      76.343571      28107.876      456.07688      8260.5532      1.5644712      0.82387746   
     52700  -6101.9766     -6175.158       73.181428      31250.338      437.18623      8265.1021      1.5636102      0.82387746   
     52800  -6104.4289     -6175.5983      71.169377      32236.502      425.16623      8271.9958      1.5623071      0.82387746   
     52900  -6100.3137     -6174.784       74.470372      29465.227      444.88638      8277.7237      1.5612261      0.82387746   
     53000  -6098.6046     -6172.5882      73.983527      29587.463      441.97797      8284.8454      1.559884       0.72156819   
     53100  -6096.2526     -6173.3634      77.110848      30976.487      460.6606       8300.197       1.5569989      0.72156819   
[...]
   2006100  -6099.1398     -6176.8169      77.677144      27388.003      464.04366      8262.5244      1.564098       0.77638101   
   2006200  -6099.5699     -6173.7872      74.217306      30538.217      443.37457      8283.9431      1.5600539      0.77638101   
   2006300  -6100.5706     -6176.1018      75.531137      27759.895      451.2234       8305.0751      1.5560844      0.77638101   
   2006400  -6101.105      -6177.8584      76.753371      26349.49       458.52503      8321.6428      1.5529864      0.77638101   
   2006500  -6099.163      -6173.9766      74.813613      31854.401      446.93691      8327.0705      1.5519741      0.77638101   
   2006600  -6098.0265     -6175.1713      77.144747      32731.823      460.86311      8326.7843      1.5520275      0.77638101   
   2006700  -6097.5992     -6177.152       79.552837      25511.448      475.24906      8324.2185      1.5525059      0.77638101   
   2006800  -6098.2737     -6177.1847      78.91104       28965.872      471.41496      8314.6093      1.5543001      0.77638101   
   2006900  -6100.6683     -6178.1383      77.469976      25406.872      462.80604      8300.8976      1.5568675      0.77638101   
   2007000  -6101.5537     -6176.3525      74.798831      27129.498      446.8486       8281.8496      1.5604483      0.83243639   
   2007100  -6100.598      -6178.5629      77.964891      29210.604      465.76266      8261.8659      1.5642227      0.83243639   
   2007200  -6096.3907     -6173.7945      77.403767      31328.152      462.4105       8244.6845      1.5674824      0.83243639   
   2007300  -6096.8697     -6174.0006      77.130847      29686.723      460.78008      8238.8164      1.5685988      0.83243639   
   2007400  -6096.8261     -6175.6877      78.861602      28404.242      471.11961      8243.7161      1.5676665      0.83243639   
   2007500  -6096.9824     -6173.0642      76.081864      32481.139      454.51345      8258.3806      1.5648828      0.83243639   
   2007600  -6095.3607     -6176.8358      81.475174      31532.037      486.73311      8283.9715      1.5600486      0.83243639   
   2007700  -6096.4058     -6174.51        78.104188      33334.115      466.59482      8312.2581      1.5547397      0.83243639   
   2007800  -6097.5059     -6173.5329      76.027054      32996.597      454.18601      8339.8637      1.5495934      0.83243639   
   2007900  -6103.2968     -6180.5566      77.259731      27228.751      461.55003      8360.9318      1.5456887      0.83243639   
   2008000  -6103.4115     -6178.9684      75.556918      25748.363      451.37742      8364.5276      1.5450242      0.90198016   
   2008100  -6100.2352     -6174.3623      74.127094      23573.478      442.83564      8349.5211      1.5478011      0.90198016   
   2008200  -6100.107      -6177.5648      77.45784       25071.802      462.73353      8323.6048      1.5526203      0.90198016   
   2008300  -6101.0402     -6177.8535      76.813276      27438.75       458.8829       8292.6982      1.5584069      0.90198016   
   2008400  -6099.2171     -6175.7249      76.507838      32374.429      457.05822      8263.8695      1.5638434      0.90198016   
   2008500  -6099.8904     -6175.5925      75.702183      29591.276      452.24523      8241.0834      1.5681673      0.90198016   
   2008600  -6099.3923     -6175.9316      76.539278      29398.437      457.24604      8229.3585      1.5704016      0.90198016   
   2008700  -6099.6963     -6176.4977      76.801355      32176.024      458.81169      8231.2912      1.5700329      0.90198016   
   2008800  -6099.8612     -6174.5086      74.647458      26624.866      445.9443       8241.7643      1.5680378      0.90198016   
   2008900  -6100.4954     -6178.5077      78.012261      23335.788      466.04565      8258.8191      1.5647997      0.90198016   
   2009000  -6102.2592     -6177.742       75.482848      27404.673      450.93493      8277.4904      1.56127        0.81657622   
   2009100  -6101.6813     -6175.9749      74.293604      29679.148      443.83038      8290.4109      1.5588368      0.81657622   
   2009200  -6098.9729     -6176.764       77.791115      31478.837      464.72452      8301.9974      1.5566613      0.81657622   
   2009300  -6100.0789     -6178.1017      78.022752      34429.54       466.10833      8309.8012      1.5551994      0.81657622   
   2009400  -6100.4572     -6175.2114      74.754208      28502.724      446.58202      8312.5618      1.5546829      0.81657622   
   2009500  -6099.7162     -6177.6368      77.920598      29429.496      465.49806      8309.9917      1.5551638      0.81657622   
   2009600  -6100.0399     -6177.8235      77.783522      27789.854      464.67916      8302.6594      1.5565372      0.81657622   
   2009700  -6103.0721     -6176.397       73.3249        30977.291      438.04333      8292.2134      1.558498       0.81657622   
   2009800  -6103.9936     -6177.8398      73.84622       30715.599      441.1577       8276.008       1.5615497      0.81657622   
   2009900  -6101.7053     -6177.091       75.38565       31152.67       450.35426      8257.7584      1.5650007      0.81657622   
   2010000  -6104.3961     -6178.1169      73.720816      30748.37       440.40853      8243.0818      1.5677872      0.84255624   
   2010100  -6103.4942     -6180.5177      77.023461      31862.108      460.13855      8233.0411      1.5696992      0.84255624   
   2010200  -6103.9807     -6176.0113      72.030613      33946.964      430.31125      8227.0094      1.57085        0.84255624   
   2010300  -6102.1827     -6179.3696      77.186975      30272.785      461.11539      8231.0126      1.570086       0.84255624   
   2010400  -6100.5015     -6177.717       77.21553       31655.756      461.28597      8242.2204      1.567951       0.84255624   
   2010500  -6101.2545     -6180.3656      79.111152      29675.332      472.61043      8262.5904      1.5640855      0.84255624   
   2010600  -6102.837      -6178.7866      75.949591      29313.191      453.72325      8282.4929      1.5603271      0.84255624   
   2010700  -6101.7827     -6177.5877      75.804977      33274.189      452.85932      8297.6101      1.5574844      0.84255624   
   2010800  -6102.3657     -6178.8987      76.532915      32173.267      457.20803      8307.5769      1.5556158      0.84255624   
   2010900  -6101.9493     -6179.3157      77.366388      31600.284      462.1872       8311.4128      1.5548978      0.84255624   
   2011000  -6099.2239     -6176.176       76.952089      31559.975      459.71218      8308.9268      1.5553631      0.81734954   
   2011100  -6098.3475     -6175.7231      77.375535      37713.861      462.24184      8304.6582      1.5561625      0.81734954   
   2011200  -6100.2074     -6178.4508      78.243393      32590.564      467.42643      8301.6802      1.5567208      0.81734954   
   2011300  -6100.3841     -6178.2401      77.855972      31025.753      465.11198      8298.0983      1.5573927      0.81734954   
   2011400  -6102.269      -6181.9293      79.660312      30829.286      475.89112      8294.2426      1.5581167      0.81734954   
   2011500  -6103.8019     -6178.346       74.544052      25849.791      445.32655      8287.9789      1.5592943      0.81734954   
   2011600  -6105.6892     -6179.9427      74.253524      28528.81       443.59093      8278.4658      1.5610861      0.81734954   
   2011700  -6102.8445     -6178.0692      75.22466       30563.15       449.39251      8263.9482      1.5638285      0.81734954   
   2011800  -6102.2423     -6179.8903      77.647955      29541.478      463.86929      8251.1986      1.5662449      0.81734954   
   2011900  -6100.9657     -6178.1807      77.214972      31025.726      461.28264      8243.6381      1.5676814      0.81734954   
   2012000  -6102.6364     -6177.4603      74.82392       31196.569      446.99848      8243.4729      1.5677128      0.78602446   
   2012100  -6100.8107     -6176.1667      75.356017      29394.736      450.17723      8250.8095      1.5663188      0.78602446   
   2012200  -6103.1099     -6176.9206      73.810691      34438.099      440.94545      8265.6169      1.5635128      0.78602446   
   2012300  -6104.6261     -6179.7267      75.100636      30949.893      448.65158      8285.7991      1.5597045      0.78602446   
   2012400  -6106.904      -6181.9577      75.053714      28778.805      448.37128      8302.8581      1.5564999      0.78602446   
   2012500  -6106.6881     -6177.7528      71.06467       32865.556      424.5407       8310.593       1.5550512      0.78602446   
   2012600  -6104.6417     -6180.1755      75.533749      30780.012      451.23901      8308.2275      1.555494       0.78602446   
   2012700  -6102.4676     -6178.449       75.981368      29407.382      453.91308      8298.5793      1.5573025      0.78602446   
   2012800  -6102.6313     -6178.974       76.342729      28707.319      456.07185      8286.3392      1.5596028      0.78602446   
   2012900  -6101.4817     -6177.5706      76.088873      34381.7        454.55532      8272.5144      1.5622092      0.78602446   
   2013000  -6102.2575     -6178.4154      76.157901      34308.715      454.96769      8261.6178      1.5642696      0.77187259   
   2013100  -6101.2143     -6176.4768      75.262518      32535.611      449.61867      8255.1002      1.5655047      0.77187259   
   2013200  -6102.8864     -6178.8867      76.000259      30468.635      454.02594      8256.5584      1.5652282      0.77187259   
   2013300  -6103.3495     -6178.6056      75.256052      25110.668      449.58004      8263.6635      1.5638824      0.77187259   
   2013400  -6101.1647     -6176.5876      75.422815      28246.254      450.57628      8272.683       1.5621773      0.77187259   
   2013500  -6100.7225     -6177.4542      76.731699      30637.686      458.39556      8285.2612      1.5598057      0.77187259   
   2013600  -6100.5309     -6178.2431      77.712207      28792.769      464.25313      8300.1663      1.5570047      0.77187259   
   2013700  -6101.7885     -6177.287       75.498504      31234.624      451.02845      8315.3989      1.5541525      0.77187259   
   2013800  -6102.5669     -6176.8684      74.301546      29904.841      443.87782      8328.0261      1.551796       0.77187259   
   2013900  -6100.3162     -6177.2693      76.953017      26550.654      459.71772      8338.5598      1.5498357      0.77187259   
   2014000  -6100.6022     -6176.9504      76.348193      27574.818      456.1045       8345.7054      1.5485088      0.80492757   
   2014100  -6101.1861     -6178.0877      76.901607      26326.009      459.41059      8345.8609      1.5484799      0.80492757   
   2014200  -6101.0395     -6176.6919      75.652414      28533.447      451.94791      8339.606       1.5496413      0.80492757   
   2014300  -6099.7734     -6175.0771      75.303678      28063.245      449.86456      8331.2359      1.5511982      0.80492757   
   2014400  -6100.7143     -6176.7354      76.021198      26221.074      454.15103      8323.0198      1.5527294      0.80492757   
   2014500  -6100.8793     -6176.4859      75.606575      30792.132      451.67407      8310.7569      1.5550206      0.80492757   
   2014600  -6102.8572     -6177.0541      74.196899      31193.563      443.25266      8298.3639      1.5573429      0.80492757   
   2014700  -6099.3307     -6177.9389      78.608172      33102.062      469.60562      8288.5529      1.5591863      0.80492757   
   2014800  -6100.1352     -6178.5758      78.440567      29830.872      468.60435      8286.5189      1.559569       0.80492757   
   2014900  -6099.5041     -6176.1045      76.600416      28020.897      457.61128      8291.5857      1.558616       0.80492757   
   2015000  -6099.7728     -6177.0239      77.251034      29911.589      461.49808      8301.3301      1.5567864      0.94562567   
   2015100  -6100.7186     -6176.942       76.22345       28172.224      455.35928      8313.2603      1.5545523      0.94562567   
   2015200  -6099.477      -6175.1779      75.700958      32150.988      452.23791      8325.0046      1.5523592      0.94562567   
   2015300  -6097.4847     -6174.584       77.09928       30553.63       460.59149      8335.7954      1.5503497      0.94562567   
   2015400  -6097.8059     -6175.1095      77.30366       28620.37       461.81246      8346.466       1.5483677      0.94562567   
   2015500  -6096.2084     -6174.5686      78.360252      28745.911      468.12455      8355.7207      1.5466527      0.94562567   
   2015600  -6095.8976     -6178.1219      82.224357      25576.306      491.20873      8363.0354      1.5452999      0.94562567   
   2015700  -6095.9789     -6174.5186      78.539631      28521.126      469.19616      8367.9396      1.5443943      0.94562567   
   2015800  -6098.2672     -6174.5544      76.287253      28241.954      455.74044      8370.5308      1.5439162      0.94562567   
   2015900  -6099.2265     -6174.9468      75.720296      31108.346      452.35344      8366.801       1.5446044      0.94562567   
   2016000  -6099.2366     -6176.4091      77.17257       25794.185      461.02933      8356.0714      1.5465878      0.78708137   
   2016100  -6097.0951     -6176.5815      79.486422      30562.328      474.8523       8339.8626      1.5495936      0.78708137   
   2016200  -6098.3354     -6176.1943      77.858877      29797.95       465.12933      8321.9915      1.5529213      0.78708137   
   2016300  -6095.7122     -6173.867       78.154801      32714.13       466.89719      8305.253       1.5560511      0.78708137   
   2016400  -6096.2479     -6175.1386      78.890704      28639.739      471.29347      8294.39        1.558089       0.78708137   
   2016500  -6096.3132     -6173.5985      77.285377      36236.566      461.70324      8290.2248      1.5588718      0.78708137   
   2016600  -6096.1139     -6172.6477      76.533774      31352.563      457.21316      8293.277       1.5582981      0.78708137   
   2016700  -6096.7423     -6175.6364      78.89413       27402.58       471.31394      8303.5089      1.5563779      0.78708137   
   2016800  -6099.2953     -6178.0474      78.752121      25066.387      470.46557      8316.1232      1.5540171      0.78708137   
   2016900  -6101.9645     -6177.4205      75.456039      25583.956      450.77477      8327.2538      1.55194        0.78708137   
   2017000  -6100.6153     -6177.5642      76.948948      21995.809      459.69341      8334.8067      1.5505336      0.90221402   
   2017100  -6097.2409     -6174.2296      76.988688      29062.578      459.93082      8335.2606      1.5504492      0.90221402   
   2017200  -6097.1223     -6175.6038      78.481535      29349.759      468.84909      8336.3165      1.5502528      0.90221402   
   2017300  -6096.1107     -6173.4519      77.34113       30050.542      462.03631      8336.6034      1.5501994      0.90221402   
   2017400  -6096.5216     -6174.4864      77.964868      32234.023      465.76252      8337.4658      1.5500391      0.90221402   
   2017500  -6097.0784     -6174.1033      77.024937      33678.394      460.14737      8339.5331      1.5496549      0.90221402   
   2017600  -6098.9574     -6178.7408      79.783356      27750.191      476.62618      8342.5805      1.5490888      0.90221402   
   2017700  -6098.0375     -6173.1828      75.145306      27271.64       448.91845      8340.6976      1.5494385      0.90221402   
   2017800  -6096.1702     -6174.7924      78.622268      28006.542      469.68983      8336.6337      1.5501938      0.90221402   
   2017900  -6095.3595     -6174.3292      78.969732      29961.375      471.76559      8329.7906      1.5514673      0.90221402   
   2018000  -6097.3718     -6175.3402      77.968341      31437.284      465.78327      8323.4026      1.552658       0.8476306    
   2018100  -6098.3524     -6175.3538      77.001415      29498.675      460.00685      8317.3179      1.5537939      0.8476306    
   2018200  -6097.1437     -6175.227       78.083348      33544.723      466.47032      8311.1976      1.5549381      0.8476306    
   2018300  -6098.1696     -6174.7613      76.591733      31199.137      457.55941      8307.4219      1.5556448      0.8476306    
   2018400  -6098.3206     -6176.1003      77.779727      26847.069      464.65649      8304.4998      1.5561922      0.8476306    
   2018500  -6098.7057     -6173.5253      74.819576      31039.286      446.97253      8301.7426      1.556709       0.8476306    
   2018600  -6099.3163     -6175.5396      76.223316      31915.177      455.35848      8302.514       1.5565644      0.8476306    
   2018700  -6096.4551     -6174.5884      78.133311      32562.314      466.7688       8303.3348      1.5564106      0.8476306    
   2018800  -6096.9597     -6172.9242      75.964432      27358.637      453.81191      8304.4423      1.556203       0.8476306    
   2018900  -6096.7936     -6173.713       76.919397      29941.247      459.51687      8311.7478      1.5548352      0.8476306    
   2019000  -6098.0026     -6176.6561      78.653495      29302.41       469.87639      8323.1144      1.5527118      0.79173604   
   2019100  -6099.1077     -6177.378       78.270275      29059.332      467.58702      8331.0683      1.5512294      0.79173604   
   2019200  -6097.9861     -6177.4814      79.495345      26000.496      474.9056       8334.4501      1.5505999      0.79173604   
   2019300  -6097.7363     -6174.3214      76.585073      31647.574      457.51962      8330.2599      1.5513799      0.79173604   
   2019400  -6099.5487     -6175.6532      76.104539      29434.668      454.64891      8325.2005      1.5523227      0.79173604   
   2019500  -6101.3327     -6178.794       77.461277      25633.609      462.75407      8319.6948      1.55335        0.79173604   
   2019600  -6101.0263     -6177.2805      76.254216      27705.945      455.54308      8309.4091      1.5552728      0.79173604   
   2019700  -6098.7641     -6175.9868      77.222703      27570.486      461.32883      8297.2861      1.5575452      0.79173604   
   2019800  -6099.0766     -6174.3719      75.295252      27975.479      449.81422      8289.1092      1.5590816      0.79173604   
   2019900  -6097.7564     -6178.8152      81.058834      30022.751      484.24589      8285.8473      1.5596954      0.79173604   
   2020000  -6097.1908     -6173.937       76.746271      35857.348      458.48262      8286.2776      1.5596144      0.82134661   
   2020033  -6096.5549     -6173.6118      77.056913      29223.51       460.33839      8287.8742      1.559314       0.82134661   
Loop time of 8606.11 on 1 procs for 2000000 steps with 1296 atoms

Performance: 10.039 ns/day, 2.391 hours/ns, 232.393 timesteps/s, 301.182 katom-step/s
99.8% CPU use with 1 MPI tasks x 1 OpenMP threads

MPI task timing breakdown:
Section |  min time  |  avg time  |  max time  |%varavg| %total
---------------------------------------------------------------
Pair    | 6582.3     | 6582.3     | 6582.3     |   0.0 | 76.48
Neigh   | 87.475     | 87.475     | 87.475     |   0.0 |  1.02
Comm    | 87.783     | 87.783     | 87.783     |   0.0 |  1.02
Output  | 5.244      | 5.244      | 5.244      |   0.0 |  0.06
Modify  | 1798.7     | 1798.7     | 1798.7     |   0.0 | 20.90
Other   |            | 44.6       |            |       |  0.52

Nlocal:           1296 ave        1296 max        1296 min
Histogram: 1 0 0 0 0 0 0 0 0 0
Nghost:           4408 ave        4408 max        4408 min
Histogram: 1 0 0 0 0 0 0 0 0 0
Neighs:              0 ave           0 max           0 min
Histogram: 1 0 0 0 0 0 0 0 0 0
FullNghs:       233082 ave      233082 max      233082 min
Histogram: 1 0 0 0 0 0 0 0 0 0

Total # of neighbors = 233082
Ave neighs/atom = 179.84722
Neighbor list builds = 200000
Dangerous builds = 200000

unfix		3
unfix		4
Total wall time: 2:24:53
