LAMMPS (27 Jun 2024)
KOKKOS mode with Kokkos version 4.3.1 is enabled (src/KOKKOS/kokkos.cpp:72)
  will use up to 1 GPU(s) per node
WARNING: When using a single thread, the Kokkos Serial backend (i.e. Makefile.kokkos_mpi_only) gives better performance than the OpenMP backend (src/KOKKOS/kokkos.cpp:202)
  using 1 OpenMP thread(s) per MPI task
Reading data file ...
  orthogonal box = (0 0 0) to (19.665067 19.665067 32.733555)
  1 by 1 by 1 MPI processor grid
  reading atoms ...
  2160 atoms
  read_data CPU = 0.024 seconds
ACE/AL version: 2023.11.25
Loading /pc2/users/a/acepdw01/work/phase_diagram/pot_dir/interim_potential_ladder_step_1.yaml
Total number of basis functions
	H: 23 (r=1) 664 (r>1)
	O: 23 (r=1) 664 (r>1)
Mapping LAMMPS atom type #1(H) -> ACE species type #0
Mapping LAMMPS atom type #2(O) -> ACE species type #1
Loading ASI /pc2/users/a/acepdw01/work/phase_diagram/pot_dir/interim_potential_ladder_step_1.asi
LINEAR ASI is loaded

CITE-CITE-CITE-CITE-CITE-CITE-CITE-CITE-CITE-CITE-CITE-CITE-CITE

Your simulation uses code contributions which should be cited:
- Type Label Framework: https://doi.org/10.1021/acs.jpcb.3c08419
The log file lists these citations in BibTeX format.

CITE-CITE-CITE-CITE-CITE-CITE-CITE-CITE-CITE-CITE-CITE-CITE-CITE

Switching to 'neigh_modify every 1 delay 0 check yes' setting during minimization
Neighbor list info ...
  update: every = 1 steps, delay = 0 steps, check = yes
  max neighbors/atom: 2000, page size: 100000
  master list distance cutoff = 6.5
  ghost atom cutoff = 6.5
  binsize = 6.5, bins = 4 4 6
  1 neighbor lists, perpetual/occasional/extra = 1 0 0
  (1) pair pace/extrapolation/kk, perpetual
      attributes: full, newton on, kokkos_device
      pair build: full/bin/kk/device
      stencil: full/bin/3d
      bin: kk/device
Setting up cg/kk style minimization ...
  Unit style    : metal
  Current step  : 0
WARNING: Fix with atom-based arrays not compatible with sending data in Kokkos communication, switching to classic exchange/border communication (src/KOKKOS/comm_kokkos.cpp:754)
WARNING: Fix with atom-based arrays not compatible with Kokkos sorting on device, switching to classic host sorting (src/KOKKOS/atom_kokkos.cpp:216)
Per MPI rank memory allocation (min/avg/max) = 1840 | 1840 | 1840 Mbytes
   Step         TotEng         PotEng         KinEng         Press           Temp          Volume        Density     c_max_pace_gamma
         0  -10417.495     -10417.495      0              21939.986      0              12658.552      1.7015372      0.62320148   
        33  -10417.742     -10417.742      0              22350.057      0              12658.552      1.7015372      0.62320148   
Loop time of 0.352027 on 1 procs for 33 steps with 2160 atoms

99.5% CPU use with 1 MPI tasks x 1 OpenMP threads

Minimization stats:
  Stopping criterion = force tolerance
  Energy initial, next-to-last, final = 
     -10417.4952910973   -10417.742060806  -10417.7420608146
  Force two-norm initial, final = 1.0592923 0.00038830903
  Force max component initial, final = 0.040662516 1.1308343e-05
  Final line search alpha, max atom move = 1 1.1308343e-05
  Iterations, force evaluations = 33 66

MPI task timing breakdown:
Section |  min time  |  avg time  |  max time  |%varavg| %total
---------------------------------------------------------------
Pair    | 0.32678    | 0.32678    | 0.32678    |   0.0 | 92.83
Neigh   | 0          | 0          | 0          |   0.0 |  0.00
Comm    | 0.0016211  | 0.0016211  | 0.0016211  |   0.0 |  0.46
Output  | 0          | 0          | 0          |   0.0 |  0.00
Modify  | 0.014018   | 0.014018   | 0.014018   |   0.0 |  3.98
Other   |            | 0.009606   |            |       |  2.73

Nlocal:           2160 ave        2160 max        2160 min
Histogram: 1 0 0 0 0 0 0 0 0 0
Nghost:           6010 ave        6010 max        6010 min
Histogram: 1 0 0 0 0 0 0 0 0 0
Neighs:              0 ave           0 max           0 min
Histogram: 1 0 0 0 0 0 0 0 0 0
FullNghs:       419040 ave      419040 max      419040 min
Histogram: 1 0 0 0 0 0 0 0 0 0

Total # of neighbors = 419040
Ave neighs/atom = 194
Neighbor list builds = 0
Dangerous builds = 0
Setting up Verlet run ...
  Unit style    : metal
  Current step  : 33
  Time step     : 0.0005
WARNING: Fix with atom-based arrays not compatible with Kokkos sorting on device, switching to classic host sorting (src/KOKKOS/atom_kokkos.cpp:216)
Per MPI rank memory allocation (min/avg/max) = 1840 | 1840 | 1840 Mbytes
   Step         TotEng         PotEng         KinEng         Press           Temp          Volume        Density     c_max_pace_gamma
        33  -10308.904     -10417.742      108.83833      31533.741      390            12658.552      1.7015372      0.62320148   
       100  -10293.533     -10338.452      44.919544      34921.468      160.96003      12699.919      1.6959948      0.62320148   
       200  -10274.717     -10346.313      71.596292      30332.983      256.55073      12948.56       1.6634279      0.62320148   
       300  -10263.001     -10341.677      78.675481      26074.399      281.91756      13291.483      1.6205111      0.62320148   
       400  -10254.923     -10335.936      81.013265      23588.201      290.29453      13570.208      1.5872267      0.62320148   
       500  -10245.483     -10335.261      89.77815       21388.301      321.70171      13789.286      1.5620096      0.62320148   
       600  -10237.852     -10329.766      91.914856      17573.438      329.35816      13973.362      1.5414327      0.62320148   
       700  -10235.576     -10330.729      95.15276       15365.634      340.96053      14123.449      1.5250522      0.62320148   
       800  -10226.226     -10319.996      93.770151      15036.601      336.00623      14231.97       1.5134234      0.62320148   
       900  -10218.194     -10317.941      99.747655      14514.349      357.4254       14307.247      1.5054606      0.62320148   
      1000  -10212.871     -10316.881      104.00971      15631.74       372.69762      14358.658      1.5000703      0.86732899   
      1033  -10210.623     -10314.076      103.4529       10038.084      370.70239      14371.071      1.4987746      0.86732899   
Loop time of 5.78587 on 1 procs for 1000 steps with 2160 atoms

Performance: 7.466 ns/day, 3.214 hours/ns, 172.835 timesteps/s, 373.323 katom-step/s
99.6% CPU use with 1 MPI tasks x 1 OpenMP threads

MPI task timing breakdown:
Section |  min time  |  avg time  |  max time  |%varavg| %total
---------------------------------------------------------------
Pair    | 4.7569     | 4.7569     | 4.7569     |   0.0 | 82.22
Neigh   | 0.043368   | 0.043368   | 0.043368   |   0.0 |  0.75
Comm    | 0.046583   | 0.046583   | 0.046583   |   0.0 |  0.81
Output  | 0.0014129  | 0.0014129  | 0.0014129  |   0.0 |  0.02
Modify  | 0.91509    | 0.91509    | 0.91509    |   0.0 | 15.82
Other   |            | 0.02251    |            |       |  0.39

Nlocal:           2160 ave        2160 max        2160 min
Histogram: 1 0 0 0 0 0 0 0 0 0
Nghost:           5812 ave        5812 max        5812 min
Histogram: 1 0 0 0 0 0 0 0 0 0
Neighs:              0 ave           0 max           0 min
Histogram: 1 0 0 0 0 0 0 0 0 0
FullNghs:       374886 ave      374886 max      374886 min
Histogram: 1 0 0 0 0 0 0 0 0 0

Total # of neighbors = 374886
Ave neighs/atom = 173.55833
Neighbor list builds = 99
Dangerous builds = 96
1064 atoms in group g_bulk
1096 atoms in group g_liquid
Setting up Verlet run ...
  Unit style    : metal
  Current step  : 1033
  Time step     : 0.0005
WARNING: Fix with atom-based arrays not compatible with Kokkos sorting on device, switching to classic host sorting (src/KOKKOS/atom_kokkos.cpp:216)
Per MPI rank memory allocation (min/avg/max) = 1866 | 1866 | 1866 Mbytes
   Step         TotEng         PotEng         KinEng         Press           Temp          Volume        Density     c_max_pace_gamma
      1033  -10209.337     -10314.076      104.7395       10133.71       375.31264      14371.071      1.4987746      0.86732899   
      1100  -10202.211     -10283.123      80.911636      13060.017      289.93036      14364.243      1.499487       0.86732899   
      1200  -10187.665     -10272.903      85.238024      14993.684      305.43309      14366.115      1.4992917      0.86732899   
      1300  -10176.767     -10268.368      91.601018      14084.215      328.23359      14405.87       1.4951541      0.86732899   
      1400  -10174.166     -10264.255      90.088706      13134.911      322.81452      14477.668      1.4877393      0.86732899   
      1500  -10168.762     -10260.793      92.031364      13783.5        329.77564      14546.013      1.4807492      0.86732899   
      1600  -10162.685     -10254.131      91.446149      11318.851      327.67865      14579.046      1.4773941      0.86732899   
      1700  -10163.201     -10258.092      94.891394      11722.729      340.02398      14569          1.4784128      0.86732899   
      1800  -10155.778     -10254.888      99.109712      12378.844      355.13946      14526.247      1.4827641      0.86732899   
      1900  -10148.709     -10250.05       101.34114      19676.993      363.13532      14478.563      1.4876474      0.86732899   
      2000  -10143.429     -10241.539      98.109811      19983.889      351.55652      14467.434      1.4887917      0.84106637   
      2100  -10142.379     -10241.836      99.456783      23616.347      356.38312      14515.574      1.4838542      0.84106637   
      2200  -10137.352     -10241.466      104.11323      17001.032      373.06855      14607.205      1.474546       0.84106637   
      2300  -10136.854     -10239.528      102.67393      9397.5182      367.91112      14695.787      1.4656579      0.84106637   
      2400  -10133.871     -10234.897      101.02575      8166.4937      362.0052       14734.772      1.4617801      0.84106637   
      2500  -10130.817     -10238.361      107.54377      11560.57       385.36117      14716.151      1.4636298      0.84106637   
      2600  -10127.279     -10229.827      102.54771      12293.165      367.45882      14653.23       1.4699146      0.84106637   
      2700  -10126.177     -10228.845      102.66822      16372.82       367.89065      14592.572      1.4760247      0.84106637   
      2800  -10121.886     -10225.954      104.06774      19125.549      372.90555      14577.858      1.4775145      0.84106637   
      2900  -10118.552     -10228.492      109.94011      17230.426      393.94798      14619.918      1.4732638      0.84106637   
      3000  -10118.289     -10224.121      105.8325       11831.588      379.22922      14697.538      1.4654833      0.80667557   
      3100  -10117.588     -10221.514      103.926        11066.142      372.39764      14769.424      1.4583505      0.80667557   
      3200  -10116.148     -10225.922      109.77472      11107.876      393.35536      14804.278      1.454917       0.80667557   
      3300  -10112.428     -10219.886      107.4586       14125.606      385.05601      14790.54       1.4562684      0.80667557   
      3400  -10113.171     -10222.253      109.08214      16065.188      390.87364      14747.395      1.4605289      0.80667557   
      3500  -10114.641     -10224.406      109.76585      16500.849      393.32358      14696.901      1.4655468      0.80667557   
      3600  -10113.757     -10220.28       106.5227       15256.302      381.70239      14666.768      1.4685578      0.80667557   
      3700  -10118.472     -10223.179      104.70725      17433          375.19708      14674.335      1.4678005      0.80667557   
      3800  -10120.297     -10223.716      103.41915      12577.5        370.58144      14710.23       1.4642189      0.80667557   
      3900  -10119.776     -10225.312      105.53579      12603.475      378.166        14750.452      1.4602262      0.80667557   
      4000  -10118.708     -10223.353      104.64594      12861.306      374.97742      14768.006      1.4584905      1.0752791    
      4100  -10116.587     -10224.091      107.50383      17105.526      385.21808      14764.159      1.4588706      1.0752791    
      4200  -10114.375     -10220.231      105.85564      18786.365      379.31211      14748.52       1.4604175      1.0752791    
      4300  -10113.639     -10222.398      108.7585       11955.02       389.71393      14737.984      1.4614615      1.0752791    
      4400  -10122.248     -10226.575      104.32764      16872.581      373.83685      14740.095      1.4612522      1.0752791    
      4500  -10118.854     -10222.415      103.56116      13718.884      371.09033      14753.212      1.459953       1.0752791    
      4600  -10116.356     -10220.374      104.01852      12144.027      372.72918      14769.742      1.4583191      1.0752791    
      4700  -10111.963     -10219.892      107.92905      14865.153      386.74177      14779.875      1.4573192      1.0752791    
      4800  -10116.456     -10221.027      104.57069      12666.545      374.70778      14781.642      1.457145       1.0752791    
      4900  -10114.667     -10218.564      103.89721      14672.845      372.29447      14771.672      1.4581285      1.0752791    
      5000  -10116.722     -10223.635      106.9121       15896.236      383.09774      14756.714      1.4596066      0.78463484   
      5100  -10114.215     -10221.57       107.35485      19406.952      384.68424      14743.186      1.4609459      0.78463484   
      5200  -10114.768     -10222.051      107.28289      15781.15       384.42638      14744.835      1.4607824      0.78463484   
      5300  -10115.843     -10224.487      108.64434      15145.596      389.30486      14761.806      1.4591031      0.78463484   
      5400  -10116.816     -10225.734      108.9182       15387.377      390.28618      14781.081      1.4572004      0.78463484   
      5500  -10116.054     -10219.473      103.41871      17657.844      370.57989      14792.063      1.4561185      0.78463484   
      5600  -10115.113     -10219.585      104.47188      12719.707      374.35371      14793.191      1.4560075      0.78463484   
      5700  -10115.763     -10223.738      107.97541      12467.127      386.90789      14783.97       1.4569156      0.78463484   
      5800  -10116.69      -10221.25       104.56038      15623.504      374.67083      14761.889      1.4590949      0.78463484   
      5900  -10115.614     -10222.541      106.92706      14149.816      383.15132      14733.973      1.4618594      0.78463484   
      6000  -10114.882     -10221.052      106.16954      18019.109      380.43691      14715.054      1.4637389      0.79861249   
      6100  -10114.829     -10222.393      107.5645       18362.394      385.43546      14726.107      1.4626402      0.79861249   
      6200  -10117.881     -10220.374      102.49379      18398.821      367.26561      14758.569      1.4594231      0.79861249   
      6300  -10113.857     -10223.805      109.94816      15336.884      393.97683      14787.807      1.4565376      0.79861249   
      6400  -10112.556     -10217.434      104.87874      14541.137      375.8116       14798.829      1.4554528      0.79861249   
      6500  -10114.352     -10218.272      103.91961      11619.722      372.37475      14805.756      1.4547718      0.79861249   
      6600  -10116.989     -10219.995      103.00603      15688.01       369.10113      14803.78       1.454966       0.79861249   
      6700  -10116.327     -10224.239      107.91217      14043.835      386.68127      14790.923      1.4562308      0.79861249   
      6800  -10115.548     -10220.927      105.37905      16301.772      377.60435      14769.137      1.4583788      0.79861249   
      6900  -10115.178     -10222.377      107.19893      17259.362      384.12553      14752.981      1.4599759      0.79861249   
      7000  -10114.304     -10220.968      106.66346      15251.106      382.20677      14755.712      1.4597057      0.77680676   
      7100  -10109.724     -10216.135      106.41133      13898.235      381.30333      14783.791      1.4569332      0.77680676   
      7200  -10108.782     -10215.211      106.42886      14115.222      381.36612      14826.171      1.4527686      0.77680676   
      7300  -10111.472     -10218.506      107.0338       12248.393      383.53381      14859.991      1.4494623      0.77680676   
      7400  -10112.724     -10218.115      105.39118      12384.361      377.64783      14866.946      1.4487842      0.77680676   
      7500  -10108.743     -10218.341      109.59763      14753.686      392.72078      14843.693      1.4510538      0.77680676   
      7600  -10109.836     -10218.239      108.40321      17465.218      388.44082      14798.662      1.4554691      0.77680676   
      7700  -10113.887     -10220.783      106.89608      16770.362      383.04033      14758.719      1.4594082      0.77680676   
      7800  -10116.794     -10220.048      103.25395      16216.94       369.98948      14743.862      1.4608789      0.77680676   
      7900  -10116.529     -10221.104      104.57502      15620.105      374.7233       14761.38       1.4591451      0.77680676   
      8000  -10120.811     -10223.722      102.91137      14523.08       368.76194      14795.811      1.4557496      0.87062685   
      8100  -10122.086     -10226.747      104.66145      11172.534      375.033        14831.156      1.4522803      0.87062685   
      8200  -10118.619     -10218.898      100.27872      8658.4256      359.32838      14846.952      1.4507352      0.87062685   
      8300  -10119.545     -10218.759      99.213902      14434.335      355.51281      14834.968      1.4519072      0.87062685   
      8400  -10118.44      -10222.232      103.79221      10674.173      371.91825      14799.728      1.4553643      0.87062685   
      8500  -10117.942     -10218.438      100.49663      16599.983      360.10921      14762.911      1.4589939      0.87062685   
      8600  -10122.829     -10221.912      99.082856      15879.354      355.04323      14748.592      1.4604104      0.87062685   
      8700  -10123.687     -10225.589      101.90257      14703.325      365.14708      14759.362      1.4593447      0.87062685   
      8800  -10121.27      -10222.322      101.05157      15312.799      362.09773      14796.643      1.4556678      0.87062685   
      8900  -10119.253     -10222.566      103.31299      13749.027      370.20104      14850.001      1.4504374      0.87062685   
      9000  -10119.485     -10220.872      101.38694      11951.845      363.29944      14881.926      1.4473258      0.81467255   
      9100  -10120.474     -10221.329      100.85549      14047.85       361.3951       14864.823      1.4489912      0.81467255   
      9200  -10122.765     -10226.928      104.16287      15066.651      373.24643      14807.2        1.45463        0.81467255   
      9300  -10119.23      -10222.085      102.85479      17466.386      368.5592       14739.363      1.4613247      0.81467255   
      9400  -10117.593     -10219.849      102.2565       18881.534      366.41533      14710.187      1.4642232      0.81467255   
      9500  -10113.468     -10217.72       104.25211      16014.135      373.5662       14740.301      1.4612318      0.81467255   
      9600  -10113.687     -10216.971      103.28339      14476.994      370.09498      14815.871      1.4537786      0.81467255   
      9700  -10109.402     -10216.429      107.02669      16985.674      383.50834      14892.575      1.4462909      0.81467255   
      9800  -10109.204     -10215.16       105.95571      10195.65       379.67069      14931.681      1.4425031      0.81467255   
      9900  -10108.072     -10213.917      105.84465      11167.544      379.27274      14916.609      1.4439606      0.81467255   
     10000  -10107.225     -10212.773      105.54822      15010.333      378.21053      14863.738      1.4490969      0.77522948   
     10100  -10105.242     -10210.932      105.68991      15367.35       378.71825      14803.873      1.4549569      0.77522948   
     10200  -10107.579     -10211.787      104.2076       17275.207      373.4067       14768.898      1.4584024      0.77522948   
     10300  -10111.727     -10217.011      105.28436      18248.561      377.26507      14775.031      1.457797       0.77522948   
     10400  -10110.43      -10211.279      100.84948      16330.277      361.37358      14805.494      1.4547976      0.77522948   
     10500  -10109.735     -10214.674      104.93822      11373.631      376.02472      14846.818      1.4507484      0.77522948   
     10600  -10113.507     -10217.046      103.53918      15313.835      371.01156      14875.326      1.447968       0.77522948   
     10700  -10114.412     -10219.015      104.60309      13936.72       374.82386      14871.453      1.4483451      0.77522948   
     10800  -10111.872     -10215.268      103.39619      15491.979      370.49917      14838.839      1.4515284      0.77522948   
     10900  -10112.178     -10216.386      104.20741      13514.593      373.40602      14805.956      1.4547522      0.77522948   
     11000  -10111.309     -10215.993      104.68363      18892.645      375.11248      14795.32       1.4557979      0.76749461   
     11100  -10111.869     -10217.002      105.13319      15220.033      376.72337      14812.627      1.454097       0.76749461   
     11200  -10112.662     -10218.801      106.1381       12814.772      380.32427      14836.356      1.4517713      0.76749461   
     11300  -10108.138     -10211.85       103.71163      14747.835      371.62949      14854.725      1.4499761      0.76749461   
     11400  -10105.775     -10215.351      109.57591      11696.008      392.64294      14862.514      1.4492162      0.76749461   
     11500  -10109.225     -10214.643      105.41749      14336.697      377.74212      14852.676      1.4501761      0.76749461   
     11600  -10109.1       -10209.825      100.72479      14477.915      360.92676      14831.785      1.4522187      0.76749461   
     11700  -10109.638     -10214.471      104.83271      16022.027      375.64664      14809.945      1.4543603      0.76749461   
     11800  -10108.685     -10214.401      105.71581      18426.528      378.81106      14804.165      1.4549282      0.76749461   
     11900  -10106.351     -10212.027      105.67575      18619.096      378.66753      14816.104      1.4537558      0.76749461   
     12000  -10109.454     -10212.583      103.12936      15757.921      369.54307      14839.631      1.4514509      0.78842209   
     12100  -10112.515     -10216.475      103.96013      13992.589      372.51993      14867.55       1.4487254      0.78842209   
     12200  -10112.446     -10220.23       107.78318      12067.945      386.21908      14877.185      1.4477871      0.78842209   
     12300  -10111.098     -10215.012      103.91366      13321.612      372.35343      14857.93       1.4496634      0.78842209   
     12400  -10110.356     -10214.658      104.30172      17191.13       373.74395      14830.994      1.4522962      0.78842209   
     12500  -10110.694     -10219.96       109.26568      17339.225      391.53131      14816.649      1.4537023      0.78842209   
     12600  -10111.11      -10215.804      104.69412      16812.907      375.15004      14820.851      1.4532901      0.78842209   
     12700  -10111.407     -10216.187      104.77958      14261.294      375.45627      14844.773      1.4509482      0.78842209   
     12800  -10108.513     -10214.496      105.98234      15244.748      379.76612      14872.85       1.4482091      0.78842209   
     12900  -10108.737     -10213.317      104.58006      12207.476      374.74136      14887.222      1.446811       0.78842209   
     13000  -10107.681     -10215.213      107.53223      10998.807      385.31985      14879.691      1.4475433      0.85666254   
     13100  -10113.04      -10215.311      102.27176      10722.409      366.47003      14847.71       1.4506612      0.85666254   
     13200  -10114.706     -10219.37       104.66397      16153.738      375.042        14805.982      1.4547496      0.85666254   
     13300  -10113.409     -10220.021      106.61226      16518.12       382.02333      14775.237      1.4577767      0.85666254   
     13400  -10115.916     -10218.544      102.6276       17138.296      367.74509      14774.077      1.4578912      0.85666254   
     13500  -10116.254     -10221.654      105.3998       14688.097      377.67871      14804.084      1.4549361      0.85666254   
     13600  -10117.531     -10221.55       104.01922      15083.493      372.73168      14844.872      1.4509385      0.85666254   
     13700  -10111.783     -10217.196      105.41326      12302.893      377.72693      14869.432      1.448542       0.85666254   
     13800  -10113.447     -10219.059      105.61209      17830.974      378.4394       14869.271      1.4485577      0.85666254   
     13900  -10110.569     -10215.651      105.08143      16565.282      376.5379       14852.607      1.4501829      0.85666254   
     14000  -10110.847     -10216.156      105.30947      16701.202      377.35501      14834.42       1.4519608      0.89640975   
     14100  -10110.104     -10215.561      105.45712      16779.614      377.88409      14821.289      1.4532472      0.89640975   
     14200  -10112.559     -10214.706      102.14662      17089.128      366.02161      14819.555      1.4534172      0.89640975   
     14300  -10114.433     -10218.38       103.94704      16984.309      372.47305      14826.405      1.4527457      0.89640975   
     14400  -10116.453     -10218.683      102.22987      9719.7792      366.31993      14834.707      1.4519327      0.89640975   
     14500  -10116.603     -10220.602      103.99954      14373.605      372.66117      14838.207      1.4515902      0.89640975   
     14600  -10116.263     -10218.385      102.12142      14054.381      365.93131      14832.643      1.4521347      0.89640975   
     14700  -10117.846     -10220.313      102.46701      15730.222      367.16965      14825.151      1.4528686      0.89640975   
     14800  -10119.815     -10217.86       98.04506       15158.367      351.3245       14809.775      1.454377       0.89640975   
     14900  -10119.151     -10221.689      102.53754      16946.475      367.42239      14792.541      1.4560714      0.89640975   
     15000  -10120.46      -10221.412      100.9523       17127.241      361.74199      14783.998      1.4569129      0.80271979   
     15100  -10117.777     -10220.896      103.1186       14779.844      369.50449      14792.968      1.4560294      0.80271979   
     15200  -10115.377     -10218.185      102.80749      18069.103      368.38969      14808.968      1.4544563      0.80271979   
     15300  -10118.19      -10218.903      100.71307      14463.885      360.88477      14836.775      1.4517304      0.80271979   
     15400  -10117.794     -10220.6        102.80623      15191.3        368.38519      14859.682      1.4494924      0.80271979   
     15500  -10118.187     -10220.291      102.10427      15526.945      365.86985      14855.553      1.4498953      0.80271979   
     15600  -10118.139     -10218.969      100.8299       15515.362      361.3034       14830.024      1.4523912      0.80271979   
     15700  -10120.826     -10217.414      96.58842       14957.365      346.10493      14802.909      1.4550516      0.80271979   
     15800  -10119.605     -10223.602      103.9971       15024.28       372.65242      14787.39       1.4565786      0.80271979   
     15900  -10114.938     -10220.645      105.70725      15979.177      378.78041      14789.595      1.4563615      0.80271979   
     16000  -10118.365     -10220.367      102.00246      15822.122      365.50504      14814.24       1.4539387      0.77238112   
     16100  -10120.278     -10222.744      102.46548      13911.865      367.16416      14847.886      1.450644       0.77238112   
     16200  -10120.404     -10217.722      97.31766       9288.2442      348.71801      14874.176      1.4480799      0.77238112   
     16300  -10116.636     -10222.606      105.96987      15432.023      379.72145      14883.71       1.4471524      0.77238112   
     16400  -10115.986     -10220.423      104.43715      17877.576      374.22924      14874.622      1.4480366      0.77238112   
     16500  -10119.512     -10221.067      101.55487      17816.684      363.90118      14852.457      1.4501975      0.77238112   
     16600  -10122.064     -10221.873      99.808917      17037.422      357.64492      14817.562      1.4536127      0.77238112   
     16700  -10119.315     -10222.012      102.69708      19174.721      367.99405      14788.969      1.4564232      0.77238112   
     16800  -10121.756     -10223.921      102.16434      18611.833      366.08511      14787.139      1.4566033      0.77238112   
     16900  -10114.85      -10215.703      100.85297      16295.53       361.38606      14810.662      1.4542899      0.77238112   
     17000  -10117.138     -10219.215      102.07665      13462.354      365.77089      14852.432      1.4502         0.77405808   
     17100  -10116.18      -10215.714      99.533694      11928.741      356.65872      14890.134      1.4465281      0.77405808   
     17200  -10115.405     -10216.751      101.34607      10088.709      363.15298      14904.904      1.4450946      0.77405808   
     17300  -10113.644     -10213.594      99.94957       16687.834      358.14892      14885.646      1.4469642      0.77405808   
     17400  -10112.371     -10212.513      100.14164      15732.54       358.83716      14846.837      1.4507465      0.77405808   
     17500  -10111.528     -10214.791      103.26328      15787.827      370.02294      14815.718      1.4537937      0.77405808   
     17600  -10112.323     -10216.519      104.19577      19533.423      373.36432      14806.516      1.4546971      0.77405808   
     17700  -10107.168     -10212.684      105.51592      17559.521      378.09481      14825.899      1.4527953      0.77405808   
     17800  -10111.559     -10218.225      106.66617      17482.278      382.21648      14866.207      1.4488562      0.77405808   
     17900  -10111.697     -10216.073      104.37564      15008.314      374.00883      14899.254      1.4456426      0.77405808   
     18000  -10105.168     -10215.127      109.95806      10761.41       394.0123       14909.002      1.4446974      0.74094553   
     18100  -10104.875     -10211.689      106.81349      14171.047      382.74439      14892.379      1.44631        0.74094553   
     18200  -10103.416     -10211.2        107.78396      16180.776      386.22185      14870.244      1.4484628      0.74094553   
     18300  -10109.668     -10217.762      108.0931       17434.925      387.32959      14854.847      1.4499642      0.74094553   
     18400  -10107.153     -10213.122      105.9693       16951.046      379.71941      14845.636      1.4508639      0.74094553   
     18500  -10108.063     -10215.062      106.99949      17082.4        383.41086      14852.348      1.4502082      0.74094553   
     18600  -10111.736     -10217.863      106.12778      16441.146      380.28729      14873.069      1.4481878      0.74094553   
     18700  -10107.134     -10216.091      108.95668      14634.79       390.42406      14889.589      1.446581       0.74094553   
     18800  -10106.702     -10213.833      107.13131      14745.689      383.88323      14896.675      1.4458929      0.74094553   
     18900  -10110.251     -10215.296      105.04525      13418.19       376.40825      14889.645      1.4465755      0.74094553   
     19000  -10111.498     -10216.124      104.62545      13824.303      374.90399      14875.945      1.4479078      0.74905417   
     19100  -10109.987     -10214.057      104.07024      13700.835      372.91452      14859.372      1.4495226      0.74905417   
     19200  -10109.626     -10210.866      101.23974      11896.307      362.772        14850.854      1.4503541      0.74905417   
     19300  -10110.897     -10214.813      103.91537      16780.517      372.35956      14852.76       1.4501679      0.74905417   
     19400  -10112.864     -10220.219      107.35506      15159.684      384.68498      14861.755      1.4492902      0.74905417   
     19500  -10108.638     -10215.856      107.21814      12720.957      384.19436      14861.232      1.4493412      0.74905417   
     19600  -10111.26      -10215.433      104.1732       16474.943      373.28345      14856.51       1.4498019      0.74905417   
     19700  -10111.607     -10215.219      103.61173      16197.483      371.27152      14859.234      1.4495361      0.74905417   
     19800  -10111.426     -10215.862      104.43646      14535.68       374.22679      14869.534      1.448532       0.74905417   
     19900  -10113.303     -10216.759      103.45648      13915.607      370.71522      14874.938      1.4480058      0.74905417   
     20000  -10113.055     -10216.624      103.56927      16572.955      371.11937      14866.366      1.4488407      0.8675901    
     20100  -10110.141     -10214.627      104.48647      13864.931      374.40597      14848.649      1.4505694      0.8675901    
     20200  -10108.426     -10212.666      104.24002      15212.828      373.52286      14830.546      1.4523401      0.8675901    
     20300  -10105.524     -10213.893      108.36947      17063.386      388.31993      14819.24       1.4534481      0.8675901    
     20400  -10104.903     -10217.11       112.20694      15073.646      402.07071      14822.738      1.4531052      0.8675901    
     20500  -10107.041     -10212.874      105.83304      17157.801      379.23115      14846.354      1.4507937      0.8675901    
     20600  -10110.118     -10213.291      103.17319      13451.002      369.70011      14880.355      1.4474787      0.8675901    
     20700  -10111.513     -10213.178      101.66444      15114.387      364.29379      14900.718      1.4455006      0.8675901    
     20800  -10113.226     -10218.635      105.40888      13878.555      377.71124      14900.663      1.4455059      0.8675901    
     20900  -10110.638     -10215.019      104.38095      14951.857      374.02787      14877.517      1.4477548      0.8675901    
     21000  -10115.981     -10218.559      102.57785      15377.67       367.56682      14845.514      1.4508758      0.9120185    
     21100  -10113.137     -10216.741      103.60377      15961.315      371.24301      14815.781      1.4537875      0.9120185    
     21200  -10111.394     -10216.308      104.91405      16082.3        375.93811      14810.09       1.454346       0.9120185    
     21300  -10110.925     -10216.073      105.14884      14878.277      376.77943      14827.29       1.452659       0.9120185    
     21400  -10110.754     -10217.097      106.34224      14326.947      381.05576      14853.77       1.4500693      0.9120185    
     21500  -10108.217     -10212.368      104.1506       14851.172      373.20245      14881.84       1.4473343      0.9120185    
     21600  -10110.142     -10216.653      106.51096      12597.835      381.66032      14902.368      1.4453405      0.9120185    
     21700  -10105.108     -10209.442      104.33418      11868.587      373.86027      14902.424      1.4453351      0.9120185    
     21800  -10104.895     -10212.521      107.62578      16379.241      385.65504      14881.084      1.4474077      0.9120185    
     21900  -10105.726     -10211.352      105.62635      15320.965      378.49049      14857.261      1.4497286      0.9120185    
     22000  -10107.537     -10213.573      106.03592      15939.172      379.95811      14842.402      1.4511799      0.75641327   
     22100  -10106.246     -10213.899      107.65334      16439.998      385.7538       14843.342      1.451088       0.75641327   
     22200  -10108.907     -10215.241      106.33375      16355.025      381.02532      14854.522      1.4499959      0.75641327   
     22300  -10108.308     -10215.525      107.21699      14406.535      384.19024      14866.884      1.4487903      0.75641327   
     22400  -10109.723     -10214.43       104.70727      14014.419      375.19717      14873.041      1.4481905      0.75641327   
     22500  -10107.484     -10213.542      106.05824      14889.069      380.03811      14872.252      1.4482673      0.75641327   
     22600  -10105.889     -10212.776      106.88782      16268.467      383.01074      14867.735      1.4487073      0.75641327   
     22700  -10103.131     -10213.986      110.85537      13653.644      397.22762      14865.147      1.4489595      0.75641327   
     22800  -10105.734     -10214.558      108.82393      15392.407      389.94839      14864.602      1.4490127      0.75641327   
     22900  -10099.856     -10212.385      112.5294       17310.834      403.22619      14873.669      1.4481293      0.75641327   
     23000  -10100.948     -10210.94       109.99147      17258.428      394.13203      14886.729      1.4468589      0.84505549   
     23100  -10103.749     -10209.85       106.10093      13798.203      380.19106      14888.201      1.4467158      0.84505549   
     23200  -10104.811     -10213.267      108.45667      10385.253      388.63239      14870.25       1.4484623      0.84505549   
     23300  -10105.808     -10214.702      108.89395      18488.273      390.19929      14835.091      1.4518951      0.84505549   
     23400  -10108.545     -10215.28       106.73506      19757.569      382.46333      14810.396      1.4543161      0.84505549   
     23500  -10105.817     -10212.886      107.06929      17061.164      383.66099      14816.355      1.4537312      0.84505549   
     23600  -10107.566     -10213.345      105.77884      13579.38       379.03694      14855.165      1.4499332      0.84505549   
     23700  -10110.003     -10215.456      105.45341      12798.724      377.8708       14901.399      1.4454345      0.84505549   
     23800  -10113.924     -10214.944      101.01986      11406.103      361.98409      14924.444      1.4432026      0.84505549   
     23900  -10115.598     -10214.388      98.790147      13970.376      353.99437      14914.767      1.444139       0.84505549   
     24000  -10115.17      -10215.838      100.66826      15502.797      360.72421      14871.496      1.448341       0.79452395   
     24100  -10114.747     -10220.683      105.93629      15386.914      379.60113      14816.129      1.4537533      0.79452395   
     24200  -10114.678     -10216.195      101.51682      22275.988      363.76483      14776.894      1.4576132      0.79452395   
     24300  -10115.349     -10221.894      106.54512      17135.454      381.78274      14784.693      1.4568444      0.79452395   
     24400  -10112.315     -10216.219      103.90453      16302.992      372.32072      14830.289      1.4523652      0.79452395   
     24500  -10112.184     -10218.408      106.22372      15798.142      380.63105      14892.071      1.4463399      0.79452395   
     24600  -10108.702     -10214.921      106.21918      13205.719      380.61478      14940.875      1.4416154      0.79452395   
     24700  -10107.58      -10215.732      108.1521       11986.062      387.54103      14948.118      1.440917       0.79452395   
     24800  -10108.31      -10215.099      106.78895      12700.882      382.65644      14910.217      1.4445797      0.79452395   
     24900  -10106.709     -10214.215      107.50526      14001.571      385.2232       14848.54       1.4505801      0.79452395   
     25000  -10108.727     -10214.475      105.7477       17689.56       378.92535      14795.585      1.4557719      0.77337502   
     25100  -10109.584     -10218.056      108.47286      21625.905      388.69038      14780.435      1.4572641      0.77337502   
     25200  -10115.361     -10215.023      99.662354      16323.102      357.11974      14810.342      1.4543213      0.77337502   
     25300  -10113.562     -10222.225      108.6625       12989.522      389.36995      14869.971      1.4484895      0.77337502   
     25400  -10114.64      -10216.373      101.73341      12919.503      364.54096      14921.642      1.4434736      0.77337502   
     25500  -10115.758     -10221.769      106.01128      14604.136      379.86982      14936.058      1.4420804      0.77337502   
     25600  -10115.687     -10221.879      106.19171      12998.789      380.51635      14906.076      1.444981       0.77337502   
     25700  -10115.599     -10216.021      100.42178      17359.461      359.841        14841.637      1.4512548      0.77337502   
     25800  -10114.146     -10220.287      106.14039      16732.383      380.33248      14780.9        1.4572182      0.77337502   
     25900  -10113.012     -10218.324      105.31202      20715.445      377.36416      14755.85       1.459692       0.77337502   
     26000  -10114.164     -10217.635      103.47086      15587.027      370.76675      14785          1.4568141      0.77005646   
     26100  -10117.287     -10219.443      102.15621      14807.507      366.05595      14848.469      1.450587       0.77005646   
     26200  -10117.858     -10221.362      103.50451      13127.988      370.88734      14903.872      1.4451946      0.77005646   
     26300  -10115.998     -10221.165      105.16691      11492.569      376.84421      14918.642      1.4437639      0.77005646   
     26400  -10114.455     -10219.816      105.36149      12519.002      377.54142      14886.932      1.4468391      0.77005646   
     26500  -10115.79      -10214.428      98.638398      14912.147      353.4506       14830.514      1.4523432      0.77005646   
     26600  -10115.808     -10220.404      104.59564      18404.115      374.79718      14787.134      1.4566038      0.77005646   
     26700  -10115.189     -10218.911      103.72187      17585.146      371.6662       14779.741      1.4573325      0.77005646   
     26800  -10116.102     -10219.96       103.85879      15946.617      372.1568       14808.457      1.4545065      0.77005646   
     26900  -10116.8       -10220.799      103.99912      16522.263      372.65965      14857.535      1.4497019      0.77005646   
     27000  -10114.32      -10212.858      98.538363      13587.299      353.09215      14898.208      1.4457442      0.96058869   
     27100  -10112.53      -10216.75       104.21993      13672.25       373.4509       14911.339      1.444471       0.96058869   
     27200  -10116.293     -10219.078      102.78512      12763.397      368.30953      14899.264      1.4456417      0.96058869   
     27300  -10115.294     -10221.397      106.10311      14343.314      380.19888      14868.153      1.4486666      0.96058869   
     27400  -10112.98      -10217.323      104.34294      17330.786      373.89167      14837.478      1.4516615      0.96058869   
     27500  -10114.268     -10218.144      103.87626      18577.004      372.21942      14824.888      1.4528944      0.96058869   
     27600  -10111.904     -10216.409      104.5049       17081.725      374.47204      14840.344      1.4513812      0.96058869   
     27700  -10110.226     -10219.232      109.00633      14676.266      390.60198      14878.353      1.4476734      0.96058869   
     27800  -10108.387     -10212.65       104.26268      12957.79       373.60406      14910.297      1.4445719      0.96058869   
     27900  -10109.795     -10217.713      107.9177       10405.945      386.7011       14924.195      1.4432267      0.96058869   
     28000  -10111.627     -10215.046      103.41916      12658.36       370.5815       14910.035      1.4445973      0.73964471   
     28100  -10111.709     -10215.172      103.46287      16810.864      370.73812      14875.753      1.4479265      0.73964471   
     28200  -10115.808     -10216.622      100.81378      15813.872      361.24564      14837.224      1.4516864      0.73964471   
     28300  -10117.222     -10221.083      103.86047      16966.534      372.16285      14811.275      1.4542298      0.73964471   
     28400  -10114.231     -10221.84       107.60866      19592.857      385.5937       14805.762      1.4547713      0.73964471   
     28500  -10115.217     -10216.458      101.24119      15973.416      362.77718      14825.416      1.4528426      0.73964471   
     28600  -10116.841     -10221.422      104.58072      15243.147      374.74371      14862.693      1.4491988      0.73964471   
     28700  -10119.947     -10221.002      101.05529      12986.045      362.11104      14893.563      1.446195       0.73964471   
     28800  -10119.411     -10220.209      100.7985       11842.579      361.1909       14891.882      1.4463582      0.73964471   
     28900  -10119.493     -10224.732      105.23866      15457.428      377.1013       14858.865      1.4495721      0.73964471   
     29000  -10120.967     -10220.932      99.964858      16604.265      358.2037       14817.344      1.4536341      0.7631439    
     29100  -10118.036     -10220.718      102.68205      17618.937      367.9402       14799.228      1.4554136      0.7631439    
     29200  -10112.249     -10216.897      104.64714      16282.792      374.98171      14819.244      1.4534477      0.7631439    
     29300  -10116.188     -10221.879      105.69105      14731.973      378.72234      14869.779      1.4485082      0.7631439    
     29400  -10110.542     -10214.558      104.01512      15218.77       372.71699      14920.367      1.443597       0.7631439    
     29500  -10109.329     -10219.167      109.83825      12307.493      393.58299      14948.898      1.4408418      0.7631439    
     29600  -10109.861     -10214.737      104.87585      13573.004      375.80123      14934.36       1.4422444      0.7631439    
     29700  -10109.519     -10213.957      104.43812      16774.609      374.23273      14888.893      1.4466486      0.7631439    
     29800  -10108.963     -10214.158      105.19489      14978.089      376.94445      14837.088      1.4516998      0.7631439    
     29900  -10104.623     -10214.288      109.6647       17296.894      392.96111      14807.08       1.4546417      0.7631439    
     30000  -10105.923     -10212.721      106.79833      17660.651      382.69005      14807.259      1.4546241      0.81421735   
     30100  -10105.527     -10218.669      113.14264      13823.356      405.42359      14831.182      1.4522778      0.81421735   
     30200  -10105.931     -10214.502      108.57099      14371.799      389.04204      14869.539      1.4485316      0.81421735   
     30300  -10110.123     -10215.181      105.05804      13883.422      376.45409      14902.159      1.4453608      0.81421735   
     30400  -10107.537     -10216.103      108.56646      14983.125      389.02578      14904.624      1.4451217      0.81421735   
     30500  -10111.408     -10215.679      104.2716       13306.81       373.63603      14882.092      1.4473098      0.81421735   
     30600  -10112.167     -10218.86       106.69215      15847.853      382.30958      14839.689      1.4514453      0.81421735   
     30700  -10110.535     -10218.825      108.28981      13055.669      388.03449      14801.641      1.4551762      0.81421735   
     30800  -10110.531     -10218.817      108.2853       18404.34       388.01832      14787.87       1.4565314      0.81421735   
     30900  -10113.322     -10217.934      104.6124       17445.967      374.85724      14808.896      1.4544634      0.81421735   
     31000  -10112.351     -10218.868      106.5167       13931.186      381.6809       14853.904      1.4500563      0.77001707   
     31100  -10112.304     -10223.114      110.81075      13007.744      397.06775      14898.488      1.445717       0.77001707   
     31200  -10117.875     -10224.192      106.31726      13895.114      380.96625      14908.947      1.4447027      0.77001707   
     31300  -10117.287     -10221.837      104.54974      15544.805      374.6327       14878.686      1.447641       0.77001707   
     31400  -10114.059     -10217.392      103.33385      15725.535      370.27578      14832.686      1.4521305      0.77001707   
     31500  -10112.838     -10217.439      104.60169      17568.756      374.81884      14800.318      1.4553064      0.77001707   
     31600  -10113.155     -10217.576      104.42087      16564.325      374.17091      14793.401      1.4559868      0.77001707   
     31700  -10111.532     -10215.759      104.22725      16685.472      373.47711      14815.643      1.453801       0.77001707   
     31800  -10114.33      -10216.683      102.35279      13763.616      366.76035      14846.587      1.4507709      0.77001707   
     31900  -10114.506     -10218.296      103.7895       16239.117      371.90854      14869.228      1.4485619      0.77001707   
     32000  -10112.631     -10213.917      101.2864       10300.784      362.93916      14872.641      1.4482294      0.74979792   
     32100  -10113.917     -10220.697      106.78007      13639.927      382.62463      14854.689      1.4499796      0.74979792   
     32200  -10112.618     -10216.385      103.76744      15485.2        371.82949      14824.431      1.4529392      0.74979792   
     32300  -10110.846     -10222.017      111.17059      17014.677      398.35715      14794.419      1.4558866      0.74979792   
     32400  -10111.494     -10217.419      105.92574      16062.623      379.56332      14782.461      1.4570643      0.74979792   
     32500  -10115.159     -10219.82       104.66097      15389.031      375.03125      14797.885      1.4555456      0.74979792   
     32600  -10117.487     -10221.869      104.38212      16413.333      374.03207      14826.954      1.4526919      0.74979792   
     32700  -10114.891     -10220.025      105.13378      14671.99       376.72548      14852.041      1.4502382      0.74979792   
     32800  -10113.554     -10219.838      106.28326      12738.926      380.84443      14854.8        1.4499688      0.74979792   
     32900  -10111.809     -10216.479      104.66953      13451.406      375.06195      14836.752      1.4517326      0.74979792   
     33000  -10111.218     -10219.514      108.29562      14430.173      388.05528      14818.035      1.4535664      0.76273064   
     33100  -10108.991     -10214.075      105.0845       17014.748      376.54888      14812.472      1.4541123      0.76273064   
     33200  -10113.501     -10217.299      103.79835      13468.737      371.94022      14825.599      1.4528247      0.76273064   
     33300  -10114.861     -10218.618      103.75731      15112.767      371.7932       14847.637      1.4506683      0.76273064   
     33400  -10112.975     -10218.099      105.12355      13489.049      376.68882      14860.303      1.4494318      0.76273064   
     33500  -10115.214     -10219.829      104.61496      14882.653      374.8664       14857.534      1.449702       0.76273064   
     33600  -10117.474     -10217.556      100.0819       16678.618      358.62311      14839.056      1.4515072      0.76273064   
     33700  -10114.63      -10218.996      104.36615      15457.837      373.97483      14816.431      1.4537237      0.76273064   
     33800  -10120.762     -10221.018      100.2564       15035.624      359.2484       14796.936      1.455639       0.76273064   
     33900  -10117.583     -10221.635      104.0521       13823.394      372.84949      14784.557      1.4568578      0.76273064   
     34000  -10119.135     -10224.496      105.36086      14240.496      377.53918      14781.427      1.4571663      0.77092799   
     34100  -10119.084     -10222.04       102.95624      13755.644      368.9227       14790.419      1.4562804      0.77092799   
     34200  -10120.455     -10222.647      102.19203      13739.797      366.18431      14805.305      1.4548161      0.77092799   
     34300  -10119.25      -10224.716      105.46623      13890.439      377.91675      14815.087      1.4538556      0.77092799   
     34400  -10117.232     -10220.147      102.91493      15455.21       368.77469      14820.211      1.4533528      0.77092799   
     34500  -10115.258     -10218.001      102.74342      16720.087      368.16013      14825.196      1.4528642      0.77092799   
     34600  -10117.69      -10219.359      101.66931      14279.459      364.31127      14835.35       1.4518698      0.77092799   
     34700  -10116.329     -10221.759      105.43053      14720.875      377.78882      14842.152      1.4512044      0.77092799   
     34800  -10113.265     -10218.577      105.31163      13055.258      377.36279      14840.852      1.4513315      0.77092799   
     34900  -10112.28      -10216.703      104.42203      14566.443      374.17508      14838.003      1.4516102      0.77092799   
     35000  -10110.206     -10215.043      104.83633      17192.879      375.65962      14839.372      1.4514763      0.75775221   
     35100  -10108.227     -10217.094      108.86751      17172.589      390.10453      14845.694      1.4508582      0.75775221   
     35200  -10108.3       -10215.861      107.56133      14970.716      385.42411      14853.826      1.4500639      0.75775221   
     35300  -10114.309     -10216.994      102.68508      17632.055      367.95105      14857.339      1.449721       0.75775221   
     35400  -10116.628     -10224.887      108.25868      11815.007      387.92294      14856.709      1.4497825      0.75775221   
     35500  -10117.525     -10217.959      100.43381      16946.006      359.88411      14841.886      1.4512304      0.75775221   
     35600  -10117.127     -10219.924      102.79646      14846.222      368.35018      14826.225      1.4527634      0.75775221   
     35700  -10118.421     -10217.791      99.369366      14894.046      356.06988      14815.588      1.4538064      0.75775221   
     35800  -10118.195     -10220.608      102.41217      19312.593      366.97314      14810.91       1.4542656      0.75775221   
     35900  -10114.034     -10218.98       104.94617      17618.955      376.05321      14808.585      1.4544939      0.75775221   
     36000  -10113.449     -10221.299      107.84969      17879.023      386.45739      14807.783      1.4545727      0.81805459   
     36100  -10114.943     -10218.86       103.9169       15750.536      372.36503      14805.775      1.4547699      0.81805459   
     36200  -10113.377     -10218.622      105.2448       13042.086      377.12331      14801.113      1.4552281      0.81805459   
     36300  -10116.706     -10221.238      104.5323       18848.319      374.5702       14792.985      1.4560277      0.81805459   
     36400  -10119.663     -10223.557      103.89399      15007.355      372.28295      14792.674      1.4560584      0.81805459   
     36500  -10120.901     -10221.752      100.85084      14707.037      361.37843      14804.522      1.4548931      0.81805459   
     36600  -10115.959     -10221.299      105.33998      14027.289      377.46435      14833.453      1.4520554      0.81805459   
     36700  -10114.753     -10220.795      106.04225      15941.937      379.98079      14861.01       1.4493629      0.81805459   
     36800  -10111.499     -10217.219      105.71927      16400.843      378.82345      14872.562      1.4482372      0.81805459   
     36900  -10112.701     -10217.748      105.04626      13306.401      376.41186      14870.021      1.4484846      0.81805459   
     37000  -10113.67      -10218.475      104.80507      15249.698      375.54761      14850.98       1.4503418      0.75496904   
     37100  -10110.121     -10219.692      109.57027      16642.593      392.62274      14827.803      1.4526088      0.75496904   
     37200  -10116.778     -10221.467      104.68909      13557.94       375.13204      14816.909      1.4536768      0.75496904   
     37300  -10113.644     -10216.326      102.68144      17249.211      367.93803      14824.331      1.4529489      0.75496904   
     37400  -10111.884     -10215.366      103.48208      18708.556      370.80696      14847.105      1.4507203      0.75496904   
     37500  -10109.516     -10216.142      106.62662      15128.947      382.07476      14870.776      1.448411       0.75496904   
     37600  -10110.619     -10211.407      100.78816      9647.5303      361.15385      14881.764      1.4473416      0.75496904   
     37700  -10115.72      -10218.712      102.99192      10565.907      369.05056      14870.746      1.448414       0.75496904   
     37800  -10114.389     -10219.491      105.10225      15556.845      376.61252      14834.078      1.4519943      0.75496904   
     37900  -10119.422     -10222.886      103.46452      18189.348      370.74404      14795.45       1.4557852      0.75496904   
     38000  -10119.808     -10222.399      102.59062      18979.764      367.61258      14772.974      1.458          0.88317616   
     38100  -10115.146     -10218.013      102.86677      16960.859      368.60212      14773.46       1.4579521      0.88317616   
     38200  -10117.689     -10218.329      100.63957      15330.749      360.62141      14795.893      1.4557416      0.88317616   
     38300  -10119.385     -10222.905      103.51959      13433.576      370.94136      14833.631      1.4520381      0.88317616   
     38400  -10120.912     -10222.315      101.4035       11678.554      363.3588       14870.187      1.4484684      0.88317616   
     38500  -10116.463     -10220.075      103.6123       10938.712      371.27358      14879.009      1.4476096      0.88317616   
     38600  -10120.966     -10223.095      102.12875      15608.239      365.95756      14861.553      1.4493099      0.88317616   
     38700  -10124.434     -10222.518      98.08309       12354.748      351.46077      14821.48       1.4532284      0.88317616   
     38800  -10121.339     -10223.443      102.10421      15125.033      365.86963      14779.716      1.4573349      0.88317616   
     38900  -10117.015     -10217.806      100.79099      18409.286      361.16397      14763.686      1.4589173      0.88317616   
     39000  -10119.537     -10219.995      100.45765      17151.278      359.96953      14787.879      1.4565305      0.80701764   
     39100  -10122.292     -10224.037      101.74531      15182.458      364.58358      14835.246      1.45188        0.80701764   
     39200  -10123.026     -10225.004      101.97879      11531.607      365.4202       14879.617      1.4475504      0.80701764   
     39300  -10124.49      -10221.939      97.449422      14300.544      349.19015      14895.177      1.4460383      0.80701764   
     39400  -10122.479     -10224.038      101.55845      12350.84       363.91402      14873.334      1.448162       0.80701764   
     39500  -10121.068     -10222.235      101.16687      15214.951      362.51086      14830.666      1.4523283      0.80701764   
     39600  -10118.783     -10220.547      101.76429      17173.826      364.65159      14802.017      1.4551393      0.80701764   
     39700  -10120.135     -10221.994      101.85926      20754.961      364.99191      14808.903      1.4544627      0.80701764   
     39800  -10119.574     -10220.556      100.98157      16535.019      361.84687      14850.215      1.4504165      0.80701764   
     39900  -10117.34      -10220.027      102.68667      12591.585      367.95675      14903.915      1.4451905      0.80701764   
     40000  -10116.184     -10217.577      101.39364      14770.833      363.32345      14941.576      1.4415479      0.73347732   
     40100  -10118.006     -10220.047      102.04073      11035.542      365.64217      14945.444      1.4411748      0.73347732   
     40200  -10113.84      -10217.109      103.26876      14090.853      370.04256      14912.201      1.4443875      0.73347732   
     40300  -10112.313     -10215.806      103.49293      17423.676      370.84584      14860.564      1.4494063      0.73347732   
     40400  -10113.767     -10216.661      102.89423      17853.512      368.7005       14823.097      1.4530699      0.73347732   
     40500  -10112.075     -10219.924      107.84879      18269.529      386.45416      14812.64       1.4540957      0.73347732   
     40600  -10114.032     -10216.349      102.31642      18240.917      366.63005      14832.648      1.4521343      0.73347732   
     40700  -10113.677     -10213.316      99.639053      15863.525      357.03625      14874.286      1.4480693      0.73347732   
     40800  -10113.011     -10219.042      106.03061      12802          379.9391       14922.18       1.4434216      0.73347732   
     40900  -10113.791     -10216.256      102.46584      10439.345      367.16546      14937.955      1.4418973      0.73347732   
     41000  -10114.726     -10218.259      103.53281      11870.119      370.98872      14905.29       1.4450572      0.82930333   
     41033  -10113.993     -10216.172      102.17904      13284.921      366.13778      14887.222      1.446811       0.82930333   
Loop time of 224.856 on 1 procs for 40000 steps with 2160 atoms

Performance: 7.685 ns/day, 3.123 hours/ns, 177.892 timesteps/s, 384.246 katom-step/s
99.8% CPU use with 1 MPI tasks x 1 OpenMP threads

MPI task timing breakdown:
Section |  min time  |  avg time  |  max time  |%varavg| %total
---------------------------------------------------------------
Pair    | 181.64     | 181.64     | 181.64     |   0.0 | 80.78
Neigh   | 1.7346     | 1.7346     | 1.7346     |   0.0 |  0.77
Comm    | 1.8154     | 1.8154     | 1.8154     |   0.0 |  0.81
Output  | 0.15513    | 0.15513    | 0.15513    |   0.0 |  0.07
Modify  | 38.619     | 38.619     | 38.619     |   0.0 | 17.18
Other   |            | 0.892      |            |       |  0.40

Nlocal:           2160 ave        2160 max        2160 min
Histogram: 1 0 0 0 0 0 0 0 0 0
Nghost:           5757 ave        5757 max        5757 min
Histogram: 1 0 0 0 0 0 0 0 0 0
Neighs:              0 ave           0 max           0 min
Histogram: 1 0 0 0 0 0 0 0 0 0
FullNghs:       363310 ave      363310 max      363310 min
Histogram: 1 0 0 0 0 0 0 0 0 0

Total # of neighbors = 363310
Ave neighs/atom = 168.19907
Neighbor list builds = 4000
Dangerous builds = 4000
Setting up Verlet run ...
  Unit style    : metal
  Current step  : 41033
  Time step     : 0.0005
WARNING: Fix with atom-based arrays not compatible with Kokkos sorting on device, switching to classic host sorting (src/KOKKOS/atom_kokkos.cpp:216)
Per MPI rank memory allocation (min/avg/max) = 1867 | 1867 | 1867 Mbytes
   Step         TotEng         PotEng         KinEng         Press           Temp          Volume        Density     c_max_pace_gamma
     41033  -10107.334     -10216.172      108.83833      13762.707      390            14887.222      1.446811       0.82930333   
     41100  -10115.753     -10250.084      134.3307       38553.544      481.34669      14933.462      1.4423311      0.82930333   
     41200  -10127.073     -10254.517      127.44363      25772.64       456.66829      15143.824      1.4222957      0.82930333   
     41300  -10137.917     -10262.649      124.73189      17956.829      446.95131      15437.31       1.3952558      0.82930333   
     41400  -10148.917     -10266.831      117.91411      14543.729      422.52118      15685.277      1.3731983      0.82930333   
     41500  -10154.428     -10271.702      117.27427      12278.282      420.22845      15845.087      1.3593485      0.82930333   
     41600  -10158.319     -10272.886      114.56768      10786.932      410.52994      15941.145      1.3511575      0.82930333   
     41700  -10165.277     -10277.581      112.30422      12401.636      402.4193       15998.614      1.3463039      0.82930333   
     41800  -10163.713     -10274.188      110.47413      14750.937      395.86154      16022.917      1.3442619      0.82930333   
     41900  -10162.142     -10276.292      114.14921      15833.265      409.03045      16024.3        1.3441459      0.82930333   
     42000  -10161.966     -10273.527      111.56102      12379.12       399.75619      16004.246      1.3458302      0.86970403   
     42100  -10164.357     -10275.092      110.73519      15058.526      396.79698      15968.472      1.3488452      0.86970403   
     42200  -10164.034     -10277.288      113.25443      15920.31       405.82418      15928.045      1.3522687      0.86970403   
     42300  -10164.141     -10275.737      111.59662      14921.34       399.88375      15894.765      1.3551001      0.86970403   
     42400  -10164.009     -10273.316      109.30698      15875.239      391.67928      15871.351      1.3570991      0.86970403   
     42500  -10163.868     -10274.939      111.07024      18486.653      397.99758      15861.582      1.3579349      0.86970403   
     42600  -10165.269     -10275.637      110.36822      18939.897      395.48204      15868.879      1.3573105      0.86970403   
     42700  -10165.249     -10273.803      108.55339      18802.793      388.97897      15884.642      1.3559636      0.86970403   
     42800  -10164.559     -10276.497      111.93808      14515.444      401.10731      15901.593      1.3545182      0.86970403   
     42900  -10163.53      -10274.668      111.13744      14493.442      398.23838      15921.567      1.3528189      0.86970403   
     43000  -10164.79      -10279.255      114.46481      16253.545      410.16132      15942.748      1.3510216      0.69989693   
     43033  -10164.063     -10277.198      113.13554      16249.558      405.39817      15948.677      1.3505194      0.69989693   
Loop time of 10.9079 on 1 procs for 2000 steps with 2160 atoms

Performance: 7.921 ns/day, 3.030 hours/ns, 183.354 timesteps/s, 396.044 katom-step/s
99.8% CPU use with 1 MPI tasks x 1 OpenMP threads

MPI task timing breakdown:
Section |  min time  |  avg time  |  max time  |%varavg| %total
---------------------------------------------------------------
Pair    | 8.8985     | 8.8985     | 8.8985     |   0.0 | 81.58
Neigh   | 0.08782    | 0.08782    | 0.08782    |   0.0 |  0.81
Comm    | 0.090534   | 0.090534   | 0.090534   |   0.0 |  0.83
Output  | 0.0072589  | 0.0072589  | 0.0072589  |   0.0 |  0.07
Modify  | 1.7789     | 1.7789     | 1.7789     |   0.0 | 16.31
Other   |            | 0.04482    |            |       |  0.41

Nlocal:           2160 ave        2160 max        2160 min
Histogram: 1 0 0 0 0 0 0 0 0 0
Nghost:           5544 ave        5544 max        5544 min
Histogram: 1 0 0 0 0 0 0 0 0 0
Neighs:              0 ave           0 max           0 min
Histogram: 1 0 0 0 0 0 0 0 0 0
FullNghs:       340364 ave      340364 max      340364 min
Histogram: 1 0 0 0 0 0 0 0 0 0

Total # of neighbors = 340364
Ave neighs/atom = 157.57593
Neighbor list builds = 200
Dangerous builds = 200
Total wall time: 0:04:02
