ITEM: TIMESTEP
2000
ITEM: NUMBER OF ATOMS
2160
ITEM: BOX BOUNDS pp pp pp
-3.5672822591352360e-01 2.0021795035913495e+01
-4.8744535037982523e-01 2.0152512100379649e+01
-8.3130462308392428e-01 3.3564859573084391e+01
ITEM: ATOMS id type element x y z
2 1 H 0.155909 -0.258554 -0.0551057
3 1 H 2.59002 2.99518 -0.0551689
9 1 H 0.16289 1.67546 1.04872
10 1 H 1.53117 1.27573 1.7337
1445 2 O 0.895171 1.0347 1.07991
17 1 H 3.86227 -0.137457 -0.317964
20 1 H 6.08957 2.49852 -0.298491
25 1 H 4.01781 1.93836 1.04681
26 1 H 4.64029 0.694955 1.40121
1453 2 O 4.60484 1.25504 0.620275
482 1 H 7.04239 -0.377829 0.0147784
483 1 H 9.33068 2.19637 -0.308065
489 1 H 7.06461 1.50405 1.22187
490 1 H 8.54128 0.947261 1.46932
1685 2 O 7.89099 1.10493 0.756852
1691 2 O 6.78271 -0.415322 3.04707
1450 2 O 6.70212 3.00275 33.529
1849 2 O 9.74174 20.0504 -0.772665
497 1 H 10.46 -0.0258141 -0.465376
500 1 H 12.7531 2.64311 -0.334998
505 1 H 10.6972 1.6424 1.53392
506 1 H 11.4151 0.0615634 1.31277
1693 2 O 11.3622 1.01829 1.12894
1746 2 O 9.87734 2.66056 33.4931
962 1 H 13.6493 -0.0274195 -0.168154
963 1 H 15.9816 2.22297 -0.553732
969 1 H 14.0636 1.72494 1.19276
970 1 H 15.4689 0.933991 1.51957
1925 2 O 14.9062 1.31252 0.851883
977 1 H 17.068 -0.383691 -0.174107
980 1 H 19.1263 2.60517 -0.37806
985 1 H 17.6001 0.907197 1.4109
986 1 H 19.038 0.544421 1.46947
1933 2 O 18.4812 1.2692 1.03909
2145 2 O 19.9494 19.8313 -0.608522
22 1 H 0.464763 5.59381 2.33335
24 1 H 2.03869 3.38526 2.18279
27 1 H 1.85463 5.04587 0.381483
28 1 H 0.855147 3.68855 0.462611
1454 2 O 1.57787 4.23431 0.858747
1506 2 O 3.32008 3.09591 -0.78135
1449 2 O 2.98458 6.30526 -0.54931
5 1 H 3.61122 6.54434 3.20577
7 1 H 5.58977 3.70187 2.56107
11 1 H 5.29059 5.61426 0.791816
12 1 H 4.77405 4.31029 0.508192
1446 2 O 4.65929 4.93237 1.1499
502 1 H 7.08643 6.62496 1.69872
504 1 H 8.5647 3.52953 2.406
507 1 H 8.74462 5.16154 0.270475
508 1 H 7.53097 4.37154 0.255887
1694 2 O 8.07934 4.84615 0.941565
1763 2 O 9.64341 6.9275 2.35447
485 1 H 10.0948 6.08944 2.08667
487 1 H 12.4663 3.72932 1.93161
491 1 H 11.7523 5.26673 0.548745
492 1 H 10.7257 4.20307 0.862846
1686 2 O 11.2428 4.8858 1.20445
1689 2 O 10.0853 6.38652 33.5949
982 1 H 13.8502 5.69568 1.721
984 1 H 15.9864 2.99397 1.69285
987 1 H 15.4278 5.52073 -0.170072
988 1 H 14.5219 4.2983 0.141849
1934 2 O 15.1498 4.91698 0.543097
1986 2 O 16.6424 2.76959 33.3809
965 1 H 16.0062 5.55167 1.94722
967 1 H 19.347 3.5064 1.85928
971 1 H 18.4529 5.47855 0.192468
972 1 H 17.3406 4.43791 0.482103
1926 2 O 18.2725 4.65333 0.495897
1930 2 O 19.9412 3.13392 -0.598989
162 1 H 0.294451 7.09587 0.253549
163 1 H 2.28753 9.38006 -0.501379
169 1 H 1.25601 8.72625 1.75577
170 1 H 2.04946 7.39155 1.63494
1525 2 O 1.70386 8.14184 1.21597
1985 2 O -0.252573 6.68637 -0.370923
1505 2 O 6.2943 6.4687 -0.823461
177 1 H 3.52367 6.98204 -0.0995362
180 1 H 5.69628 9.56743 -0.552182
185 1 H 4.06613 8.67124 1.50396
186 1 H 5.34565 7.88012 1.01563
1533 2 O 4.42423 8.14388 0.670824
642 1 H 6.80021 7.1404 -0.310066
643 1 H 8.99519 9.27657 -0.643891
649 1 H 7.60498 8.94047 1.06376
650 1 H 8.66645 7.82394 1.24498
1765 2 O 8.19143 8.3088 0.541059
1771 2 O 6.50655 7.1596 2.22874
657 1 H 10.683 6.96967 -0.267946
660 1 H 12.9585 9.62357 -0.104332
665 1 H 10.5332 8.90768 1.13149
666 1 H 11.7476 7.90814 1.66018
1773 2 O 11.37 8.38686 0.843103
2011 2 O 13.4484 6.334 2.30296
1122 1 H 13.371 6.88561 -0.227512
1123 1 H 15.6119 8.95228 -0.572824
1129 1 H 13.9049 8.67493 1.21868
1130 1 H 15.1055 7.90612 1.56626
2005 2 O 14.6102 8.1584 0.757884
1137 1 H 16.9398 7.18546 -0.170562
1140 1 H 19.1681 9.45223 -0.441709
1145 1 H 17.224 8.22818 1.65306
1146 1 H 18.7047 7.72991 1.39356
2013 2 O 17.9105 8.14772 0.926573
2066 2 O 16.3505 9.60257 -0.726599
182 1 H -0.192858 12.9904 2.00983
184 1 H 2.61108 10.2753 2.09001
187 1 H 1.68744 11.982 0.471204
188 1 H 0.583166 10.8347 0.537101
1534 2 O 1.15037 11.4038 0.978718
1586 2 O 3.03777 10.0059 33.5719
292 1 H 2.6287 10.7321 33.1181
165 1 H 3.21312 12.685 2.04904
167 1 H 5.89366 10.6304 2.10637
171 1 H 5.39997 12.4508 0.388706
172 1 H 4.33144 11.5292 0.39075
1526 2 O 4.95514 11.9509 1.04578
662 1 H 7.04441 12.5604 1.97041
664 1 H 9.2506 10.4932 1.61065
667 1 H 8.85247 11.7628 -0.00898885
668 1 H 7.75261 10.6501 0.252669
1774 2 O 8.23274 11.3701 0.665889
645 1 H 9.90148 13.2838 3.31548
647 1 H 12.2794 9.96988 1.68977
651 1 H 11.8856 11.7648 0.186184
652 1 H 10.8403 10.4839 0.0205293
1766 2 O 11.3506 11.0978 0.679881
1142 1 H 13.338 12.6999 1.34844
1144 1 H 15.3918 10.2283 2.44156
1147 1 H 15.4771 12.2206 0.66906
1148 1 H 15.2864 10.6151 0.789265
2014 2 O 14.9122 11.5036 1.1268
2083 2 O 16.6861 13.8497 2.28509
2009 2 O 16.5892 13.0055 33.4043
1125 1 H 16.1909 13.0757 2.69813
1127 1 H 19.705 9.90614 1.81681
1131 1 H 18.588 11.9952 0.246102
1132 1 H 17.6178 10.9298 0.828117
2006 2 O 18.4764 11.4255 1.07341
2065 2 O 19.8105 13.0224 -0.810076
1611 2 O 19.4788 13.5518 2.42993
2010 2 O 19.9544 10.0145 -0.425266
322 1 H -0.0748731 13.8158 -0.388831
323 1 H 2.37288 16.2888 0.0189377
329 1 H 0.37899 15.5569 1.53949
330 1 H 1.39342 14.4152 1.43096
1605 2 O 0.948464 15.1246 0.970973
1585 2 O 6.48497 13.4204 -0.819817
337 1 H 3.33952 13.9504 -0.175949
340 1 H 6.1449 16.4855 0.136561
345 1 H 4.72627 16.0987 1.36931
346 1 H 5.40659 14.6724 1.73653
1613 2 O 4.76948 15.1165 1.12335
1666 2 O 3.11858 16.5852 -0.607494
802 1 H 7.13521 13.8886 -0.309782
803 1 H 9.48857 15.9812 -0.344624
809 1 H 8.01352 15.4176 1.08485
810 1 H 8.62251 14.0721 1.30627
1845 2 O 8.8067 14.9555 0.90216
1851 2 O 6.57249 13.2965 2.45732
817 1 H 10.282 13.7025 -0.621853
820 1 H 12.7245 16.2468 -0.272114
825 1 H 10.9964 15.5849 1.27822
826 1 H 11.4461 14.241 1.46705
1853 2 O 11.5106 14.9526 0.735622
1282 1 H 13.7011 13.9339 -0.583579
1283 1 H 16.2401 16.2714 -0.441585
1289 1 H 14.4236 15.66 0.966979
1290 1 H 15.6954 14.7613 0.938272
2085 2 O 15.006 15.1628 0.365631
1297 1 H 17.3742 13.4977 -0.523643
1300 1 H 19.1157 16.4923 -0.282559
1305 1 H 17.6167 15.7793 1.53707
1306 1 H 18.6313 14.5358 1.43298
2093 2 O 18.0305 15.2509 0.818145
342 1 H 0.27572 19.6044 2.10436
344 1 H 3.18794 16.7877 2.90216
347 1 H 2.0241 19.2304 0.476731
348 1 H 1.09341 18.114 0.703645
1614 2 O 1.70594 18.6851 1.15846
1609 2 O 3.08692 20.0104 -0.49828
449 1 H -0.00984324 19.2334 33.2007
325 1 H 3.87853 19.4912 2.34205
327 1 H 6.17424 17.129 2.37669
331 1 H 5.55359 18.4911 0.652226
332 1 H 4.06533 17.9197 0.20437
1606 2 O 4.82546 17.9126 0.981497
1665 2 O 6.48899 19.7805 -0.638051
822 1 H 7.3966 19.8356 2.40792
824 1 H 9.56703 17.0799 1.56733
827 1 H 8.81777 19.1087 0.638768
828 1 H 7.78275 17.9999 0.784045
1854 2 O 8.44039 18.4796 1.32947
1610 2 O 6.86243 16.8126 -0.511678
1683 2 O 9.78265 -0.0875442 3.04931
805 1 H 10.4048 19.7543 2.95024
807 1 H 12.993 17.6949 1.72558
811 1 H 12.1203 19.1838 0.0359782
812 1 H 10.9144 18.1764 0.210303
1846 2 O 11.6801 18.6285 0.649857
1302 1 H 13.566 19.7998 2.02886
1304 1 H 15.3812 17.6194 1.91895
1307 1 H 15.4455 19.0293 0.27747
1308 1 H 14.3428 17.8985 0.0433036
2094 2 O 14.5733 18.7503 0.652312
1931 2 O 12.9161 -0.402922 2.63499
1285 1 H 17.3505 19.5068 1.67298
1287 1 H 18.942 17.2558 1.9595
1291 1 H 18.9411 18.9866 0.0932345
1292 1 H 17.854 17.8575 0.224476
2086 2 O 18.2466 18.6341 0.756315
2089 2 O 16.6622 19.8867 33.3977
2090 2 O 19.786 16.7878 33.4308
18 1 H 2.86154 0.13909 5.65815
19 1 H 0.142523 2.0554 5.23215
29 1 H 1.91409 1.814 3.97805
30 1 H 1.00069 0.599772 4.03119
1455 2 O 1.43496 1.21403 4.58063
6 1 H 3.81429 0.161469 3.33823
8 1 H 6.12933 2.50003 3.26714
13 1 H 4.29778 2.0519 4.69987
14 1 H 5.0668 0.577476 5.04909
1447 2 O 4.66815 1.22537 4.35964
1601 2 O 6.93718 20.0317 5.80376
498 1 H 9.43709 -0.198617 6.08662
499 1 H 7.22764 3.19934 5.81149
509 1 H 8.32141 2.40535 4.11582
510 1 H 7.78732 1.15709 4.02417
1695 2 O 7.59296 1.96277 4.56277
486 1 H 10.2844 0.377034 3.67601
488 1 H 12.4015 2.02756 2.11712
493 1 H 10.5857 1.99209 4.95058
494 1 H 11.9255 1.34463 4.68738
1687 2 O 11.1046 1.66313 4.27379
1923 2 O 16.7826 -0.302971 2.13169
978 1 H 15.7309 -0.32656 5.68944
979 1 H 13.5739 2.53351 5.52883
989 1 H 15.3055 1.74184 3.69595
990 1 H 14.2354 0.6194 3.68045
1935 2 O 14.9606 0.924236 4.20734
1932 2 O 16.337 2.81564 2.5758
966 1 H 16.9182 -0.157844 3.02541
968 1 H 19.7128 2.22693 2.68521
973 1 H 18.579 1.7163 4.56441
974 1 H 18.825 0.296346 3.48673
1927 2 O 18.2472 1.15421 3.76917
1444 2 O 19.9028 3.20796 2.58054
1 1 H 0.420818 5.68066 6.02285
4 1 H 2.94879 3.76621 5.38077
15 1 H 0.951168 4.31232 4.09082
16 1 H 2.04092 5.34239 4.17841
1448 2 O 1.40438 4.81924 4.75419
1452 2 O 2.84256 2.86513 2.5378
21 1 H 5.85502 6.55452 2.55772
23 1 H 3.51941 3.45517 2.87035
31 1 H 5.00908 5.89772 4.48894
32 1 H 5.97452 4.64746 4.4458
1456 2 O 5.07249 4.94586 4.05883
1684 2 O 5.99962 2.85898 2.36009
1466 2 O 6.49676 3.57544 6.42431
481 1 H 7.48881 6.89398 6.63874
484 1 H 9.47951 3.79105 5.14252
495 1 H 7.53379 5.17047 3.04681
496 1 H 7.44098 5.73908 4.52633
1688 2 O 7.71489 4.94049 3.97405
1924 2 O 12.9654 2.892 2.28086
1692 2 O 9.40893 3.07521 2.72077
501 1 H 13.1203 5.8541 2.98372
503 1 H 10.1076 3.65794 2.95343
511 1 H 11.0821 5.21792 4.65138
512 1 H 12.4063 4.5762 4.32679
1696 2 O 11.5844 4.9411 3.93436
1706 2 O 13.2575 3.00371 6.29283
1682 2 O 9.6995 3.42107 6.07492
2003 2 O 16.5976 6.23874 2.34914
961 1 H 13.4552 5.76977 5.78209
964 1 H 17.1691 3.24467 5.04161
975 1 H 13.6971 3.83831 3.44369
976 1 H 15.1294 4.48796 3.30886
1928 2 O 14.2633 4.54579 3.91502
1922 2 O 17.06 2.62043 5.83193
981 1 H 19.6005 6.27328 2.43641
983 1 H 17.3535 2.8352 2.40853
991 1 H 19.1985 3.97355 4.78465
992 1 H 18.4347 5.11871 5.41508
1936 2 O 18.4597 4.57823 4.63928
1946 2 O 19.9541 2.62179 5.80608
1531 2 O 0.145362 6.35777 2.85529
178 1 H 2.31621 7.07914 6.80462
179 1 H 19.5478 9.68986 5.26252
189 1 H 2.14726 9.16748 3.76486
190 1 H 1.3309 7.89024 3.65096
1535 2 O 1.6032 8.53325 4.33241
1465 2 O 2.86894 6.28381 6.43375
1523 2 O 2.83528 6.08329 2.81148
1532 2 O 3.23195 9.85464 2.73538
166 1 H 3.39777 5.65859 2.09575
168 1 H 5.98176 9.2447 2.79828
173 1 H 3.90262 7.99367 4.69089
174 1 H 5.42106 7.83776 4.67873
1527 2 O 4.66283 7.97738 4.07518
1441 2 O 6.61797 6.44622 6.33715
658 1 H 9.0248 6.28595 5.14681
659 1 H 7.06261 9.7125 5.55071
669 1 H 8.40269 8.52806 3.8896
670 1 H 7.44244 7.38675 3.63104
1775 2 O 7.86039 7.85804 4.32898
1772 2 O 9.70322 10.01 2.38913
646 1 H 10.2155 7.39004 3.03359
648 1 H 12.668 9.17834 2.90033
653 1 H 10.6198 8.7936 4.34102
654 1 H 11.5432 7.50235 4.62427
1767 2 O 11.3573 8.19593 3.9752
2004 2 O 13.0257 9.62254 2.2016
1138 1 H 15.7279 7.15412 5.3286
1139 1 H 13.7911 8.99685 5.08405
1149 1 H 15.0882 8.73309 3.61784
1150 1 H 14.4888 7.38201 3.34041
2015 2 O 14.6699 7.99043 4.1121
1126 1 H 17.0629 5.55585 2.99206
1128 1 H 19.9254 8.74641 2.77576
1133 1 H 17.7962 8.43519 4.59078
1134 1 H 18.5089 6.98057 4.48175
2007 2 O 18.7103 7.98685 4.42591
161 1 H 20.0337 13.1284 4.96961
164 1 H 3.39398 10.6336 5.77029
175 1 H 0.926618 10.866 3.96633
176 1 H 1.65024 12.197 3.47803
1528 2 O 1.16989 11.776 4.27727
181 1 H 6.03126 12.7098 3.04117
183 1 H 3.72846 10.7 3.07698
191 1 H 3.91814 12.5143 4.51873
192 1 H 4.96177 11.2262 4.47884
1536 2 O 4.61517 11.9554 3.92176
1764 2 O 6.64703 10.0453 2.53044
641 1 H 7.15069 12.7999 5.4439
644 1 H 9.09416 9.87869 5.16938
655 1 H 7.26374 10.907 3.78682
656 1 H 8.32463 11.9469 3.55765
1768 2 O 7.8524 11.5144 4.34057
1762 2 O 9.8205 9.57312 5.81971
661 1 H 13.1112 12.6285 2.81026
663 1 H 10.6107 10.3537 2.62033
671 1 H 11.4285 11.8137 5.06883
672 1 H 12.532 10.9257 4.24827
1776 2 O 11.6204 11.3284 4.17298
1785 2 O 10.1442 13.0251 5.97545
2012 2 O 16.0964 9.63048 2.80578
1121 1 H 12.9308 13.9171 5.66844
1124 1 H 15.741 10.6496 5.06716
1135 1 H 14.2973 12.2546 5.00381
1136 1 H 15.1315 12.0972 3.5633
2008 2 O 14.767 11.6769 4.38536
2091 2 O 13.2161 13.2898 2.1462
1524 2 O -0.185953 9.64962 2.6185
1141 1 H 18.8996 12.8871 2.76156
1143 1 H 16.8042 10.2554 3.14622
1151 1 H 17.3674 11.8518 4.56118
1152 1 H 18.6842 11.1586 4.40885
2016 2 O 18.0243 11.5809 3.86397
1612 2 O 3.10219 16.1904 3.55995
338 1 H 2.29003 13.5066 5.0822
339 1 H 0.0204324 16.0628 6.15601
349 1 H 1.25372 15.5622 4.05402
350 1 H 0.50235 14.251 3.68485
1615 2 O 0.961855 14.6237 4.46795
2106 2 O 19.8412 16.6563 6.44291
1603 2 O 2.56623 13.4025 2.39062
326 1 H 3.09109 14.2236 2.60205
328 1 H 6.17364 16.0143 3.30765
333 1 H 5.28057 15.8578 5.25004
334 1 H 5.41553 14.188 5.05291
1607 2 O 5.23731 15.159 4.58497
818 1 H 9.66143 13.6612 5.4621
819 1 H 7.70916 16.2147 5.05166
829 1 H 8.99983 15.6151 3.33093
830 1 H 7.92755 14.5528 3.50475
1855 2 O 8.74234 14.8819 3.85718
1843 2 O 9.96047 12.9892 2.35423
1852 2 O 10.1214 16.5637 2.26394
806 1 H 10.5383 12.185 2.25718
808 1 H 12.6004 16.4085 2.6562
813 1 H 11.445 15.7136 4.73814
814 1 H 11.81 14.5988 3.74102
1847 2 O 12.2073 15.3499 4.16747
2084 2 O 13.3891 17.0304 2.35116
2092 2 O 16.0966 17.1551 2.44342
1298 1 H 16.5159 14.0887 4.97276
1299 1 H 14.0305 16.3639 6.15565
1309 1 H 15.2644 15.8705 3.61652
1310 1 H 14.022 15.2487 4.05969
2095 2 O 14.8484 15.5408 4.39815
2082 2 O 16.9467 16.8522 6.26797
1604 2 O 19.5074 16.8778 2.58639
1286 1 H 17.5025 13.9687 2.88388
1288 1 H 18.9324 16.3717 3.19695
1293 1 H 18.0956 15.9171 5.04651
1294 1 H 18.5786 14.7271 4.85956
2087 2 O 18.1183 15.3014 4.27961
2001 2 O 19.4969 13.2132 5.78839
1443 2 O 3.35589 -0.404438 2.69035
321 1 H 19.3098 19.57 5.7068
324 1 H 3.75801 16.9272 5.46238
335 1 H 1.33039 17.5631 3.67332
336 1 H 1.82069 19.0546 4.03
1608 2 O 1.34632 18.2411 4.32953
341 1 H 6.45235 19.5111 3.68802
343 1 H 3.97183 15.6861 3.86201
351 1 H 4.72036 18.7531 5.16069
352 1 H 5.9292 17.7827 5.43705
1616 2 O 5.3006 18.0959 4.72359
1844 2 O 6.77593 16.4766 2.75045
801 1 H 7.55371 19.2232 5.98386
804 1 H 9.66534 17.1273 5.50549
815 1 H 8.29656 17.8809 3.78416
816 1 H 9.071 19.0788 3.73213
1848 2 O 8.90657 18.3615 4.34701
821 1 H 12.583 19.4069 3.13295
823 1 H 10.589 17.247 2.86528
831 1 H 11.1554 18.7195 4.90374
832 1 H 12.1135 17.5442 4.7005
1856 2 O 11.6912 18.2455 4.16499
1842 2 O 10.2635 16.4669 6.06997
1841 2 O 13.0274 -0.374326 6.11265
1281 1 H 13.6577 19.7254 5.46739
1284 1 H 16.6973 17.8665 6.3495
1295 1 H 14.7572 17.641 4.46951
1296 1 H 14.9095 19.0497 3.91987
2088 2 O 14.5582 18.6653 4.75211
1451 2 O -0.186108 20.0645 2.81745
1301 1 H 19.899 19.3467 3.48175
1303 1 H 16.6519 17.8535 2.98702
1311 1 H 17.3206 19.2107 4.90711
1312 1 H 18.1528 17.8004 4.43449
2096 2 O 17.8386 18.7065 4.22453
2081 2 O -0.290718 19.9542 6.15274
34 1 H 0.329549 19.4758 5.6122
35 1 H 2.79799 2.44526 6.34572
41 1 H 1.23131 0.880715 6.86109
42 1 H 2.04229 0.495488 8.23974
1461 2 O 1.9321 1.23617 7.51465
1459 2 O 2.45241 19.7802 9.43829
49 1 H 3.84678 -0.418813 6.73872
52 1 H 5.70094 3.63936 5.86575
57 1 H 5.21524 2.03479 7.81462
58 1 H 5.8473 0.598664 7.90818
1469 2 O 5.0905 1.11617 7.42985
515 1 H 9.15578 2.6316 6.40575
514 1 H 7.31982 0.194393 6.36163
521 1 H 7.65353 1.86829 7.98406
522 1 H 8.83551 0.871522 8.11505
1701 2 O 8.20022 1.32462 7.42977
1700 2 O 6.51157 2.71429 9.70104
529 1 H 11.1168 -0.103794 6.23028
532 1 H 12.7643 2.39925 6.81937
537 1 H 10.9398 1.8922 8.31838
538 1 H 11.95 0.650304 8.11574
1709 2 O 11.6362 1.55277 7.76428
1708 2 O 9.82806 2.61881 9.74625
1940 2 O 13.4977 3.12993 9.30483
994 1 H 13.551 0.349516 6.47413
995 1 H 16.4138 2.03569 5.46195
1001 1 H 14.6522 1.74094 7.26756
1002 1 H 15.2413 1.20668 8.56143
1941 2 O 15.092 0.979243 7.6335
1939 2 O 16.1134 -0.320962 9.57024
1947 2 O 13.1887 19.8911 9.57035
2105 2 O 16.6505 20.0135 5.98178
1009 1 H 16.9493 -0.0774593 6.70449
1012 1 H 19.3549 2.10261 6.35612
1017 1 H 17.9667 1.46542 8.19941
1018 1 H 19.3412 0.57709 8.30681
1949 2 O 18.6661 1.0584 7.70477
1467 2 O -0.105524 20.1287 9.70307
54 1 H 19.7949 6.76647 8.50159
56 1 H 2.37097 3.69694 9.02052
59 1 H 2.08994 4.90998 7.24829
60 1 H 1.45581 3.42237 7.46676
1470 2 O 1.61889 4.33093 7.86168
1539 2 O 3.27109 6.03477 9.74909
1442 2 O 3.3841 3.09483 5.87401
37 1 H 2.52096 6.67907 9.77986
39 1 H 5.59637 2.99205 9.57009
43 1 H 4.85969 4.80028 7.32133
44 1 H 4.50266 5.05313 8.75746
1462 2 O 5.28631 4.86876 8.25539
1787 2 O 6.68916 6.8026 10.0395
534 1 H 6.85558 6.02353 9.38014
536 1 H 8.82668 2.72751 9.6124
539 1 H 9.14984 4.48763 8.33491
540 1 H 7.83756 4.55554 7.45784
1710 2 O 8.22981 4.73248 8.36616
517 1 H 10.7869 5.79043 9.35862
519 1 H 12.5668 3.51957 9.33782
523 1 H 12.1476 5.3797 7.48018
524 1 H 10.6644 4.42321 7.29092
1702 2 O 11.2965 4.87071 7.85935
1014 1 H 13.8263 5.66242 9.60316
1016 1 H 16.3284 3.55525 8.90988
1019 1 H 15.3131 5.22137 6.51883
1020 1 H 14.5835 4.08863 7.23869
1950 2 O 14.9168 4.99442 7.35196
1460 2 O 0.146483 2.99526 9.63798
1945 2 O 16.471 6.70049 5.79272
1921 2 O -0.352844 6.12195 6.60782
997 1 H 16.197 5.62648 8.72605
999 1 H 19.8052 2.9409 8.90591
1003 1 H 18.7335 4.78058 7.30378
1004 1 H 17.8194 3.44529 7.26083
1942 2 O 18.2388 4.1702 7.90611
194 1 H -0.285228 7.08931 6.33515
195 1 H 2.8408 9.54282 6.33873
201 1 H 0.814099 8.64275 8.02324
202 1 H 0.64231 8.68414 6.37069
1541 2 O 1.22329 8.36815 7.17373
1540 2 O -0.321221 9.8144 9.29772
1546 2 O 6.43663 10.0618 6.21781
209 1 H 3.70949 6.51942 6.94528
212 1 H 5.70916 9.40119 6.41928
217 1 H 4.20949 8.28 8.33329
218 1 H 5.71435 7.64131 8.34582
1549 2 O 4.91631 7.88438 7.81182
674 1 H 6.39933 5.80192 7.1137
675 1 H 9.21476 8.97816 6.38317
681 1 H 7.87844 8.52782 7.98234
682 1 H 8.9992 7.65073 8.47091
1781 2 O 8.56004 8.00543 7.70363
1705 2 O 9.69902 6.00815 5.75257
689 1 H 10.0605 6.77783 6.12719
692 1 H 12.3274 9.10824 5.61752
697 1 H 12.348 9.09035 8.0609
698 1 H 11.4896 7.70945 8.27402
1789 2 O 11.5287 8.6141 7.72137
1681 2 O 12.884 6.52804 6.0229
1154 1 H 13.4367 7.18598 6.70183
1155 1 H 15.3571 9.60239 6.07304
1161 1 H 14.1201 8.04585 8.90663
1162 1 H 14.9014 7.35748 7.90924
2021 2 O 14.3324 8.10558 8.00696
2002 2 O 16.1856 9.9908 5.71533
2026 2 O 19.6481 10.2417 6.06959
1169 1 H 16.9764 7.40269 6.28821
1172 1 H 18.8648 10.1591 6.62317
1177 1 H 17.0523 9.07476 8.16439
1178 1 H 18.5448 8.99238 8.3832
2029 2 O 17.7799 8.42753 8.15182
214 1 H 0.261943 12.641 8.61953
216 1 H 2.45687 9.76698 8.33217
219 1 H 1.76655 12.0077 6.88567
220 1 H 0.428898 11.3049 6.93949
1550 2 O 1.37794 11.2723 7.37757
1548 2 O 2.83768 9.16946 9.00259
1522 2 O 3.66515 9.79349 6.07089
197 1 H 3.48082 12.6028 9.01449
199 1 H 6.4456 10.0747 9.25611
203 1 H 5.61504 12.1546 7.54977
204 1 H 4.66406 11.0584 7.24838
1542 2 O 5.03229 11.5725 8.01558
1619 2 O 2.64562 13.0805 9.20428
1521 2 O 6.74367 13.6214 5.85506
694 1 H 7.10838 12.9257 9.02636
696 1 H 10.558 9.40091 8.86309
699 1 H 7.41308 11.1199 7.44043
700 1 H 8.69181 10.8354 8.07107
1790 2 O 8.09392 11.6118 7.90891
1786 2 O 13.1841 9.62479 5.56188
1761 2 O 13.401 13.0478 6.13695
677 1 H 10.2769 12.0969 9.37726
679 1 H 13.4703 10.2669 10.2539
683 1 H 11.9979 12.2404 6.87683
684 1 H 11.25 10.7767 6.97922
1782 2 O 11.7221 11.5051 7.50867
2025 2 O 16.3719 13.6045 5.85777
1174 1 H 13.8311 12.378 9.42418
1176 1 H 15.4533 10.6068 9.49694
1179 1 H 14.8094 11.1913 7.46019
1180 1 H 13.3576 11.0555 7.90787
2030 2 O 14.2577 11.106 8.35918
1157 1 H 17.0671 12.4418 9.00132
1159 1 H 0.146035 10.7574 9.49445
1163 1 H 18.1187 13.1644 7.63029
1164 1 H 17.7453 11.8762 6.88881
2022 2 O 17.9573 12.2368 7.75898
1627 2 O -0.286736 12.8681 9.39888
354 1 H -0.165039 13.6404 6.24724
355 1 H 2.38766 17.5146 5.66053
361 1 H 2.21566 14.7782 7.94357
362 1 H 1.93144 15.72 6.92013
1621 2 O 1.6143 14.8584 7.16565
1602 2 O 3.03532 17.0315 6.26202
1545 2 O 3.00653 13.0092 5.50854
369 1 H 3.20486 13.3507 6.3495
372 1 H 6.97939 15.965 6.45556
377 1 H 4.85561 16.1262 8.08976
378 1 H 5.79706 14.9219 7.98937
1629 2 O 5.11361 15.3459 7.51021
834 1 H 7.33429 14.0962 6.28031
835 1 H 9.51817 15.8987 6.57495
841 1 H 7.86536 15.5457 8.84095
842 1 H 8.84065 14.4239 8.53062
1861 2 O 8.51879 15.2232 8.13356
1867 2 O 6.92822 13.6344 9.71797
849 1 H 9.40764 12.4708 6.44375
857 1 H 12.2641 13.9305 8.38323
858 1 H 11.2726 14.2546 7.33558
1869 2 O 11.6916 14.7247 8.0421
852 1 H 12.8278 16.2524 7.11879
1314 1 H 13.7505 13.5059 6.98501
1315 1 H 16.1229 16.3363 6.37957
1321 1 H 14.4513 15.2405 8.38665
1322 1 H 15.751 14.1282 8.30124
2101 2 O 15.1006 14.71 7.76406
1620 2 O -0.156261 16.9252 9.76122
1329 1 H 16.5647 14.2926 6.49973
1332 1 H 19.1055 16.1926 6.84233
1337 1 H 17.5922 15.5211 8.33869
1338 1 H 18.7405 14.4847 8.75448
2109 2 O 18.3267 15.0251 7.90965
374 1 H 0.786944 19.6323 9.86983
376 1 H 2.45447 17.4744 8.72216
379 1 H 0.460467 19.0955 7.80237
380 1 H 0.401968 17.729 7.14437
1630 2 O 0.915612 18.2256 7.84917
1625 2 O 3.25124 20.0137 5.97355
357 1 H 3.1729 19.2187 9.00865
359 1 H 6.04774 16.8709 9.55092
363 1 H 5.3373 19.0904 7.41009
364 1 H 4.10225 17.9925 7.4569
1622 2 O 4.88917 18.3897 7.91545
1626 2 O 7.19209 16.6954 5.75284
1865 2 O 10.3595 -0.460854 5.7449
854 1 H 6.87027 19.1054 9.06636
856 1 H 9.09783 17.3528 9.37073
859 1 H 8.91527 18.379 7.52228
860 1 H 7.7654 17.2638 7.48198
1870 2 O 8.09446 18.0807 7.96994
1860 2 O 6.54493 16.2541 9.99182
837 1 H 10.0202 19.3519 8.61237
839 1 H 12.3254 17.0266 9.43019
843 1 H 11.8966 18.8942 7.28445
844 1 H 10.7746 17.6221 7.67099
1862 2 O 11.3913 18.3939 8.01074
1866 2 O 13.343 16.875 6.59541
1334 1 H 14.0867 19.5922 9.15836
1336 1 H 16.1231 17.1832 9.25504
1339 1 H 15.3846 18.9419 7.12938
1340 1 H 14.5237 17.9262 7.82311
2110 2 O 15.2919 18.4754 7.9765
1317 1 H 15.9668 19.442 9.12683
1319 1 H 19.3632 17.4028 9.72821
1323 1 H 18.6142 19.266 8.74592
1324 1 H 17.8508 18.3171 7.82592
2102 2 O 18.1878 18.3959 8.71287
50 1 H 2.34753 19.4133 12.4887
51 1 H 0.105876 2.40209 12.6636
61 1 H 1.99379 1.98997 10.5209
62 1 H 0.952339 0.880898 10.6793
1471 2 O 1.67885 1.24193 11.1852
1707 2 O 6.49139 19.7918 9.73148
38 1 H 2.89923 -0.345888 10.1291
40 1 H 6.50724 2.18252 10.5146
45 1 H 4.21052 2.0012 11.85
46 1 H 5.00033 0.60229 11.6205
1463 2 O 4.61022 1.34249 11.1676
1641 2 O 3.25591 19.8166 12.8303
530 1 H 9.18976 -0.189001 12.2847
531 1 H 6.2632 2.68923 12.1321
541 1 H 8.43473 1.70328 11.1896
542 1 H 8.49031 0.226759 10.7022
1711 2 O 8.08264 0.823398 11.395
518 1 H 10.3403 0.263575 9.17858
520 1 H 13.2001 2.25169 9.04212
525 1 H 11.1976 1.28706 11.3695
526 1 H 12.1974 0.211445 11.3403
1703 2 O 11.9322 1.01426 10.8292
1698 2 O 9.7157 3.07088 12.7907
1857 2 O 13.1276 19.8485 13.0092
1010 1 H 15.9692 0.358579 12.7929
1011 1 H 13.7708 2.95696 12.2257
1021 1 H 15.473 1.02001 10.69
1022 1 H 14.0593 1.03448 10.8232
1951 2 O 14.815 1.12167 11.4366
998 1 H 16.6873 20.0307 10.2254
1000 1 H 19.8337 2.89147 10.3958
1005 1 H 17.4582 2.10131 12.0999
1006 1 H 18.3728 0.815849 12.321
1943 2 O 18.0521 1.43094 11.554
33 1 H 0.0755224 5.75769 12.2716
36 1 H 2.48548 3.12748 12.2545
47 1 H 0.277623 4.66401 10.7814
48 1 H 1.65621 5.27655 10.8522
1464 2 O 1.03747 4.74812 11.3982
1547 2 O -0.317015 6.22865 9.30878
1468 2 O 2.87665 3.098 9.86669
53 1 H 6.04392 6.35067 10.787
55 1 H 3.58272 3.73066 10.0927
63 1 H 4.24486 5.51146 11.7212
64 1 H 5.48173 4.398 11.815
1472 2 O 5.06355 5.11867 11.3477
1482 2 O 6.03597 3.15811 13.0798
1458 2 O 3.21404 3.38265 12.8223
513 1 H 7.54315 6.28806 12.8436
516 1 H 9.09466 3.75904 12.2418
527 1 H 7.50728 4.11553 10.4505
528 1 H 8.72893 5.14859 10.9737
1704 2 O 8.08084 4.3494 11.1972
1457 2 O 6.71602 6.82939 12.9616
533 1 H 12.6517 6.14248 10.5619
535 1 H 9.81992 3.45168 10.4114
543 1 H 11.011 5.09768 11.9806
544 1 H 11.9504 4.00516 11.3219
1712 2 O 11.3025 4.75768 11.1098
1697 2 O 13.0493 6.36606 13.0528
1948 2 O 16.6376 2.86499 9.6334
993 1 H 13.3263 5.43288 12.816
996 1 H 16.0182 3.59938 12.8541
1007 1 H 14.8994 3.68109 10.9608
1008 1 H 15.2224 5.14822 10.8498
1944 2 O 15.1192 4.48841 11.4963
1938 2 O 16.4595 2.89527 13.2582
1962 2 O -0.332022 3.12646 13.1017
1013 1 H 0.340012 5.54809 8.82694
1015 1 H 17.3261 3.3159 10.0905
1023 1 H 19.0692 5.02494 10.7088
1024 1 H 17.6081 5.13336 11.2246
1952 2 O 18.3793 4.51835 11.2193
210 1 H 2.32771 7.10904 12.3817
211 1 H -0.0123239 9.4516 12.4111
221 1 H 2.09102 8.77769 10.8397
222 1 H 0.62731 8.70807 10.6072
1551 2 O 1.27289 8.42204 11.3162
1937 2 O 19.8335 6.38699 12.687
1481 2 O 2.93259 6.48738 12.7359
198 1 H 4.0529 6.52482 10.0323
200 1 H 6.48885 8.65077 10.0754
205 1 H 4.0412 9.13477 11.7055
206 1 H 5.168 8.27487 11.8516
1543 2 O 4.41376 8.42226 11.1859
1538 2 O 2.92017 9.83434 13.0325
1779 2 O 10.0639 6.54209 9.54103
690 1 H 9.25508 7.146 12.4553
691 1 H 7.32383 9.32206 12.6598
701 1 H 9.18061 8.72076 10.8151
702 1 H 7.98956 7.53579 11.0888
1791 2 O 8.45479 8.29937 11.5163
1721 2 O 9.45565 6.23373 12.7332
1788 2 O 10.2436 9.81586 9.65889
678 1 H 10.5846 7.321 10.0099
680 1 H 12.3136 9.12048 10.6525
685 1 H 11.1021 8.87528 12.4408
686 1 H 12.0845 7.61447 12.396
1783 2 O 11.6364 8.27716 11.8293
2027 2 O 13.2059 6.39509 9.77418
2019 2 O 16.5314 6.12414 9.34187
2020 2 O 12.979 9.44753 9.96061
2028 2 O 16.269 10.0279 9.57076
1170 1 H 16.3252 6.95144 12.0654
1171 1 H 13.8242 9.13796 12.9262
1181 1 H 15.5258 8.86836 11.2052
1182 1 H 14.333 8.18157 10.9105
2031 2 O 14.9604 8.20393 11.6024
1158 1 H 17.5127 6.01288 9.3333
1160 1 H 19.5187 9.73205 10.2255
1165 1 H 17.9607 8.28753 9.93086
1166 1 H 18.6864 7.86665 11.435
2023 2 O 18.2548 8.59303 10.963
193 1 H 0.236384 12.8693 13.6685
196 1 H 2.26478 10.4611 12.5831
207 1 H 0.658318 11.8604 12.3022
208 1 H 0.468903 12.3065 10.9296
1544 2 O 1.05795 11.6323 11.3968
2042 2 O 19.7382 10.0419 12.955
1561 2 O 2.83854 13.3254 13.0221
213 1 H 6.32219 13.0657 10.2484
215 1 H 3.48523 9.70332 9.53035
223 1 H 4.47793 11.7158 10.889
224 1 H 5.66946 10.6587 11.2848
1552 2 O 5.41767 11.436 10.781
1537 2 O 6.33609 13.1805 12.9916
1780 2 O 6.97004 9.47448 9.71459
1562 2 O 6.5848 9.94275 12.8869
673 1 H 6.46894 12.7526 12.1828
676 1 H 9.35522 10.5647 12.7728
687 1 H 8.05763 10.5346 11.0923
688 1 H 9.0037 11.6399 10.8282
1784 2 O 8.47084 11.3251 11.5714
693 1 H 12.6492 12.6887 10.485
695 1 H 10.9913 10.3729 10.0521
703 1 H 11.8923 10.8547 11.9177
704 1 H 11.0215 12.0958 11.8654
1792 2 O 11.4757 11.4402 11.2881
1802 2 O 13.6143 9.85735 13.4899
2099 2 O 16.4414 13.1035 9.38144
1153 1 H 13.4015 12.7312 12.3947
1156 1 H 17.2188 9.56745 12.343
1167 1 H 15.4636 11.9341 10.9471
1168 1 H 15.3243 11.1238 12.2238
2024 2 O 14.7602 11.4833 11.5511
1173 1 H 19.2484 12.3633 9.09229
1175 1 H 16.9313 10.5197 9.99162
1183 1 H 17.7916 12.0404 11.9824
1184 1 H 18.503 10.6789 11.5654
2032 2 O 18.1187 11.5721 11.2476
2017 2 O -0.190459 13.6949 13.4539
1628 2 O 2.97251 16.7003 9.07102
370 1 H 2.08801 13.5741 12.3476
371 1 H 19.2019 15.7756 12.0604
381 1 H 0.62757 15.7097 10.8109
382 1 H 0.953864 14.2114 10.3257
1631 2 O 0.88414 14.7439 11.1221
358 1 H 3.04615 13.7275 9.87295
360 1 H 5.88894 15.8243 10.5857
365 1 H 3.63197 15.4282 11.6434
366 1 H 4.82966 14.5825 11.4577
1623 2 O 4.13313 14.9725 10.973
1859 2 O 9.8033 12.9739 9.45625
850 1 H 9.98116 13.7796 12.6479
851 1 H 7.08846 15.7106 12.5179
861 1 H 9.15501 15.5373 10.7959
862 1 H 8.10635 14.2495 10.8707
1871 2 O 8.54734 14.9379 11.4494
1868 2 O 9.63549 17.1509 10.1225
838 1 H 10.5857 13.5761 9.892
840 1 H 12.8487 15.9001 10.1891
845 1 H 10.9871 15.6168 11.929
846 1 H 11.8902 14.2172 11.8939
1863 2 O 11.4298 14.9754 11.2492
1858 2 O 9.9695 16.9531 12.9446
2107 2 O 13.2963 13.169 9.8816
2108 2 O 16.4921 16.4529 9.87426
1330 1 H 16.1359 13.6669 12.4035
1331 1 H 14.0114 16.3665 12.1464
1341 1 H 15.248 15.464 10.7265
1342 1 H 14.5503 14.1091 10.6568
2111 2 O 14.978 14.6773 11.332
1318 1 H 16.6698 13.3419 10.2449
1320 1 H 0.147894 17.1995 8.88668
1325 1 H 17.4855 15.3495 11.4078
1326 1 H 18.1343 14.1946 11.9883
2103 2 O 18.2317 14.7711 11.2544
353 1 H 0.73437 -0.503157 12.4492
356 1 H 2.10903 16.0396 13.4432
367 1 H 2.09603 17.6227 11.4738
368 1 H 0.658796 17.9145 11.3036
1624 2 O 1.33087 18.0058 12.0037
2122 2 O 19.6247 16.4349 12.8318
1618 2 O 3.04416 16.1908 13.1495
373 1 H 5.75142 19.343 10.1211
375 1 H 3.35095 16.8849 9.96145
383 1 H 4.14294 18.6665 11.826
384 1 H 4.30782 17.1616 12.024
1632 2 O 4.4303 17.88 11.2925
1617 2 O 6.09943 -0.358667 13.0368
1699 2 O 9.63461 20.1267 9.15613
833 1 H 6.42661 19.7072 12.3079
836 1 H 9.58711 17.6121 12.2948
847 1 H 7.62285 17.7631 11.6095
848 1 H 7.62065 19.1488 10.9315
1864 2 O 8.00879 18.6236 11.6951
853 1 H 12.6524 19.1108 9.92624
855 1 H 10.3096 17.767 10.2214
863 1 H 11.2487 19.2635 11.7782
864 1 H 12.0753 17.8733 11.8917
1872 2 O 11.6118 18.4486 11.2354
2100 2 O 13.2319 16.7348 9.66819
1313 1 H 13.7742 19.1992 12.819
1316 1 H 16.0981 17.2352 12.5191
1327 1 H 14.2703 18.1912 11.0701
1328 1 H 15.7911 18.842 11.3298
2104 2 O 15.1268 18.1566 11.548
1333 1 H 19.6757 19.8085 10.4399
1335 1 H 17.461 16.6548 9.84268
1343 1 H 18.0511 19.461 11.9524
1344 1 H 18.4843 18.1039 11.8102
2112 2 O 17.9831 18.7254 11.3915
2121 2 O 16.5511 -0.17652 13.3784
2097 2 O -0.0859772 -0.234113 12.8935
66 1 H 0.237355 0.219189 13.7176
67 1 H 2.9502 2.92714 13.6454
73 1 H 1.21892 1.5692 15.0878
74 1 H 2.37286 0.799002 14.9074
1477 2 O 1.71202 1.20027 14.376
1483 2 O -0.171736 -0.0767387 16.1222
1475 2 O 3.15481 -0.395849 16.2997
81 1 H 3.16328 0.0831358 13.1245
84 1 H 5.32297 2.53272 13.5035
89 1 H 4.34599 1.87158 15.338
90 1 H 5.29565 0.909249 15.0174
1485 2 O 4.62577 1.49066 14.5519
1484 2 O 3.07568 2.9817 16.4202
546 1 H 6.9182 0.116302 13.2699
547 1 H 9.11783 2.55978 13.2859
553 1 H 7.23454 1.54779 14.8266
554 1 H 8.39457 0.483312 14.9914
1717 2 O 7.92023 1.08442 14.3439
1716 2 O 6.33588 2.86133 16.1501
1723 2 O 6.62075 -0.42606 16.2915
1724 2 O 9.95526 2.86693 16.0737
561 1 H 10.365 0.182432 13.4811
564 1 H 12.4457 2.2583 13.0425
569 1 H 10.9394 2.04112 14.7402
570 1 H 11.9768 0.922111 15.1511
1725 2 O 11.6591 1.39331 14.3739
1956 2 O 13.0121 2.99262 16.3977
1026 1 H 13.7785 -0.149137 13.2632
1027 1 H 15.8191 2.28724 13.5237
1033 1 H 13.8549 1.5017 14.8136
1034 1 H 15.2328 0.810983 15.2448
1957 2 O 14.7453 1.28993 14.4973
1963 2 O 13.4176 -0.341758 16.3746
1955 2 O 16.4077 -0.326163 16.4561
1041 1 H 17.1204 0.481422 13.8932
1044 1 H 19.3478 2.63453 13.5182
1049 1 H 17.6621 2.13103 15.1307