LAMMPS (27 Jun 2024)
KOKKOS mode with Kokkos version 4.3.1 is enabled (src/KOKKOS/kokkos.cpp:72)
  will use up to 1 GPU(s) per node
WARNING: When using a single thread, the Kokkos Serial backend (i.e. Makefile.kokkos_mpi_only) gives better performance than the OpenMP backend (src/KOKKOS/kokkos.cpp:202)
  using 1 OpenMP thread(s) per MPI task
Reading data file ...
  orthogonal box = (0 0 0) to (20.13213 20.132272 35.107669)
  1 by 1 by 1 MPI processor grid
  reading atoms ...
  2160 atoms
  read_data CPU = 0.009 seconds
ACE/AL version: 2023.11.25
Loading /pc2/users/a/acepdw01/work/phase_diagram/pot_dir/interim_potential_ladder_step_1.yaml
Total number of basis functions
	H: 23 (r=1) 664 (r>1)
	O: 23 (r=1) 664 (r>1)
Mapping LAMMPS atom type #1(H) -> ACE species type #0
Mapping LAMMPS atom type #2(O) -> ACE species type #1
Loading ASI /pc2/users/a/acepdw01/work/phase_diagram/pot_dir/interim_potential_ladder_step_1.asi
LINEAR ASI is loaded

CITE-CITE-CITE-CITE-CITE-CITE-CITE-CITE-CITE-CITE-CITE-CITE-CITE

Your simulation uses code contributions which should be cited:
- Type Label Framework: https://doi.org/10.1021/acs.jpcb.3c08419
The log file lists these citations in BibTeX format.

CITE-CITE-CITE-CITE-CITE-CITE-CITE-CITE-CITE-CITE-CITE-CITE-CITE

Switching to 'neigh_modify every 1 delay 0 check yes' setting during minimization
Neighbor list info ...
  update: every = 1 steps, delay = 0 steps, check = yes
  max neighbors/atom: 2000, page size: 100000
  master list distance cutoff = 6.5
  ghost atom cutoff = 6.5
  binsize = 6.5, bins = 4 4 6
  1 neighbor lists, perpetual/occasional/extra = 1 0 0
  (1) pair pace/extrapolation/kk, perpetual
      attributes: full, newton on, kokkos_device
      pair build: full/bin/kk/device
      stencil: full/bin/3d
      bin: kk/device
Setting up cg/kk style minimization ...
  Unit style    : metal
  Current step  : 0
WARNING: Fix with atom-based arrays not compatible with sending data in Kokkos communication, switching to classic exchange/border communication (src/KOKKOS/comm_kokkos.cpp:754)
WARNING: Fix with atom-based arrays not compatible with Kokkos sorting on device, switching to classic host sorting (src/KOKKOS/atom_kokkos.cpp:216)
Per MPI rank memory allocation (min/avg/max) = 1808 | 1808 | 1808 Mbytes
   Step         TotEng         PotEng         KinEng         Press           Temp          Volume        Density     c_max_pace_gamma
         0  -10394.812     -10394.812      0              10356.492      0              14229.332      1.513704       0.94301683   
       100  -10405.399     -10405.399      0              6153.7788      0              14229.332      1.513704       0.94301683   
       200  -10407.585     -10407.585      0              6517.8061      0              14229.332      1.513704       0.94301683   
       300  -10408.546     -10408.546      0              6308.0661      0              14229.332      1.513704       0.94301683   
       400  -10408.808     -10408.808      0              6400.9802      0              14229.332      1.513704       0.94301683   
       500  -10408.847     -10408.847      0              6348.6658      0              14229.332      1.513704       0.94301683   
       600  -10408.847     -10408.847      0              6348.5115      0              14229.332      1.513704       0.94301683   
       700  -10408.848     -10408.848      0              6350.1029      0              14229.332      1.513704       0.94301683   
       800  -10408.849     -10408.849      0              6350.5639      0              14229.332      1.513704       0.94301683   
       900  -10408.849     -10408.849      0              6350.8543      0              14229.332      1.513704       0.94301683   
       934  -10408.849     -10408.849      0              6350.8847      0              14229.332      1.513704       0.94301683   
Loop time of 9.08342 on 1 procs for 934 steps with 2160 atoms

99.7% CPU use with 1 MPI tasks x 1 OpenMP threads

Minimization stats:
  Stopping criterion = force tolerance
  Energy initial, next-to-last, final = 
     -10394.8116753497  -10408.8486802569   -10408.848680264
  Force two-norm initial, final = 17.431636 0.00046949092
  Force max component initial, final = 3.1552255 0.00017230165
  Final line search alpha, max atom move = 1 0.00017230165
  Iterations, force evaluations = 934 1864

MPI task timing breakdown:
Section |  min time  |  avg time  |  max time  |%varavg| %total
---------------------------------------------------------------
Pair    | 8.3755     | 8.3755     | 8.3755     |   0.0 | 92.21
Neigh   | 0.022688   | 0.022688   | 0.022688   |   0.0 |  0.25
Comm    | 0.058073   | 0.058073   | 0.058073   |   0.0 |  0.64
Output  | 0.0012399  | 0.0012399  | 0.0012399  |   0.0 |  0.01
Modify  | 0.38376    | 0.38376    | 0.38376    |   0.0 |  4.22
Other   |            | 0.2421     |            |       |  2.67

Nlocal:           2160 ave        2160 max        2160 min
Histogram: 1 0 0 0 0 0 0 0 0 0
Nghost:           5979 ave        5979 max        5979 min
Histogram: 1 0 0 0 0 0 0 0 0 0
Neighs:              0 ave           0 max           0 min
Histogram: 1 0 0 0 0 0 0 0 0 0
FullNghs:       373344 ave      373344 max      373344 min
Histogram: 1 0 0 0 0 0 0 0 0 0

Total # of neighbors = 373344
Ave neighs/atom = 172.84444
Neighbor list builds = 51
Dangerous builds = 0
Setting up Verlet run ...
  Unit style    : metal
  Current step  : 934
  Time step     : 0.0005
WARNING: Fix with atom-based arrays not compatible with Kokkos sorting on device, switching to classic host sorting (src/KOKKOS/atom_kokkos.cpp:216)
Per MPI rank memory allocation (min/avg/max) = 1810 | 1810 | 1810 Mbytes
   Step         TotEng         PotEng         KinEng         Press           Temp          Volume        Density     c_max_pace_gamma
       934  -10258.149     -10408.849      150.69923      17663.047      540            14229.332      1.513704       0.94301683   
      1000  -10237.565     -10316.036      78.471075      22762.609      281.18511      14206.116      1.5161778      0.80881948   
      1100  -10205.927     -10300.527      94.600848      27613.381      338.98287      14145.029      1.5227255      0.80881948   
      1200  -10184.973     -10294.665      109.69211      31511.828      393.05931      14081.918      1.5295499      0.80881948   
      1300  -10169.393     -10286.343      116.94949      34823.607      419.06467      14033.257      1.5348537      0.80881948   
      1400  -10152.977     -10278.088      125.11114      33015.96       448.31027      14021.223      1.536171       0.80881948   
      1500  -10141.589     -10270.844      129.25506      33193.751      463.15918      14057.03       1.532258       0.80881948   
      1600  -10133.195     -10269.47       136.27571      33927.956      488.31626      14143.525      1.5228874      0.80881948   
      1700  -10124.735     -10262.057      137.32264      33851.825      492.06771      14269.423      1.5094511      0.80881948   
      1800  -10119.64      -10258.426      138.78572      28624.348      497.31037      14416.242      1.4940784      0.80881948   
      1900  -10116.443     -10253.812      137.36901      32202.315      492.23388      14558.708      1.4794579      0.80881948   
      2000  -10114.057     -10252.88       138.82344      28965.158      497.44553      14675.922      1.4676418      0.76308907   
      2100  -10111.643     -10249.919      138.27605      28341.7        495.48406      14756.572      1.4596206      0.76308907   
      2200  -10109.122     -10249.179      140.05738      28327.829      501.86708      14801.572      1.455183       0.76308907   
      2300  -10104.611     -10246.436      141.8252       25952.321      508.2017       14816.777      1.4536897      0.76308907   
      2400  -10099.118     -10245.958      146.84067      28997.576      526.17362      14812.213      1.4541376      0.76308907   
      2500  -10094.913     -10239.944      145.03101      30405.619      519.68907      14796.771      1.4556552      0.76308907   
      2600  -10093.801     -10242.677      148.87582      30725.1        533.46616      14782.496      1.4570609      0.76308907   
      2700  -10090.786     -10243.28       152.49409      32586.228      546.43151      14775.777      1.4577234      0.76308907   
      2800  -10089.152     -10237.637      148.48532      32070.242      532.06689      14777.242      1.4575789      0.76308907   
      2900  -10086.228     -10237.346      151.11849      28929.046      541.50233      14791.268      1.4561967      0.76308907   
      3000  -10083.8       -10237.969      154.16933      32582.564      552.43439      14815.119      1.4538524      0.81283587   
      3100  -10085.384     -10233.198      147.81413      32969.781      529.66184      14847.248      1.4507063      0.81283587   
      3200  -10080.485     -10231.516      151.03045      34400.626      541.18683      14886.965      1.4468359      0.81283587   
      3300  -10082.8       -10230.147      147.34682      30618.715      527.9873       14933.939      1.442285       0.81283587   
      3400  -10081.933     -10230.071      148.13823      28225.072      530.82316      14981.663      1.4376906      0.81283587   
      3500  -10083.927     -10232.959      149.03207      27486.452      534.02607      15023.627      1.4336749      0.81283587   
      3600  -10083.426     -10232.97       149.54361      26446.512      535.85906      15052.611      1.4309143      0.81283587   
      3700  -10084.386     -10234.059      149.67239      28327.252      536.32052      15060.115      1.4302014      0.81283587   
      3800  -10085.304     -10229.812      144.50808      29643.429      517.81526      15046.801      1.4314668      0.81283587   
      3900  -10082.018     -10230.581      148.56272      27014.244      532.34423      15021.968      1.4338332      0.81283587   
      4000  -10080.929     -10230.859      149.9295       29095.974      537.24182      14993.854      1.4365217      0.70653924   
      4100  -10080.157     -10233.987      153.83024      32220.231      551.21932      14965.324      1.4392603      0.70653924   
      4200  -10086.117     -10235.016      148.89948      32487.921      533.55097      14939.001      1.4417963      0.70653924   
      4300  -10085.622     -10236.353      150.73051      28882.566      540.11207      14917.926      1.4438331      0.70653924   
      4400  -10087.837     -10233.771      145.93426      32748.974      522.9257       14908.937      1.4447037      0.70653924   
      4500  -10088.114     -10233.248      145.13385      32893.982      520.05759      14916.521      1.4439692      0.70653924   
      4600  -10081.347     -10233.827      152.47933      31818.49       546.3786       14940.269      1.4416739      0.70653924   
      4700  -10085.664     -10234.629      148.96539      32180.054      533.78713      14980.461      1.437806       0.70653924   
      4800  -10086.449     -10235.375      148.92605      33695.292      533.64614      15027.77       1.4332797      0.70653924   
      4900  -10082.71      -10230.165      147.45522      31897.836      528.37573      15076.31       1.428665       0.70653924   
      5000  -10086.721     -10232.867      146.14584      27938.705      523.68385      15123.634      1.4241945      0.79726142   
      5100  -10083.979     -10231.765      147.78617      25025.124      529.56165      15160.523      1.4207291      0.79726142   
      5200  -10085.037     -10229.422      144.38528      27607.494      517.37525      15181.955      1.4187235      0.79726142   
      5300  -10081.748     -10229.581      147.83228      27669.327      529.72685      15191.043      1.4178748      0.79726142   
      5400  -10079.951     -10227.342      147.39128      29912.813      528.14662      15189.68       1.418002       0.79726142   
      5500  -10078.313     -10228.115      149.80211      28225.785      536.78533      15185.624      1.4183807      0.79726142   
      5600  -10078.382     -10227.935      149.55249      27202.343      535.89089      15186.452      1.4183034      0.79726142   
      5700  -10081.165     -10226.569      145.40408      30472.725      521.02591      15188.193      1.4181408      0.79726142   
      5800  -10080.326     -10228.549      148.2232       29330.805      531.12764      15194.92       1.417513       0.79726142   
      5900  -10079.85      -10225.365      145.51418      31570.519      521.42041      15207.199      1.4163685      0.79726142   
      6000  -10081.732     -10225.44       143.70799      30345.74       514.94832      15224.578      1.4147516      0.70581378   
      6100  -10079.13      -10226.173      147.04303      30606.675      526.89875      15244.59       1.4128945      0.70581378   
      6200  -10079.091     -10229.509      150.41757      28760.569      538.99072      15269.058      1.4106303      0.70581378   
      6300  -10080.382     -10229.602      149.22011      29732.452      534.69987      15295.724      1.4081711      0.70581378   
      6400  -10076.536     -10225.007      148.47134      27477.505      532.01681      15318.436      1.4060833      0.70581378   
      6500  -10073.754     -10219.626      145.87242      28586.902      522.70409      15338.414      1.4042519      0.70581378   
      6600  -10072.138     -10218.584      146.4455       30904.887      524.75761      15358.134      1.4024488      0.70581378   
      6700  -10070.233     -10218.181      147.94794      29233.165      530.14129      15384.495      1.4000457      0.70581378   
      6800  -10065.253     -10214.612      149.35898      32772.233      535.19748      15413.919      1.3973732      0.70581378   
      6900  -10067.412     -10217.652      150.23987      26726.145      538.35398      15450.138      1.3940973      0.70581378   
      7000  -10069.647     -10218.326      148.67817      28667.873      532.75793      15488.045      1.3906853      0.71273902   
      7100  -10069.183     -10221.578      152.39486      27946.961      546.07593      15522.323      1.3876142      0.71273902   
      7200  -10070.542     -10215.61       145.06762      26707.919      519.82025      15548.335      1.3852928      0.71273902   
      7300  -10067.252     -10215.207      147.95451      31874.217      530.16486      15573.793      1.3830283      0.71273902   
      7400  -10069.481     -10218.57       149.0883       28183.421      534.22756      15595.567      1.3810974      0.71273902   
      7500  -10069.933     -10219.074      149.14078      25618.174      534.41559      15603.869      1.3803626      0.71273902   
      7600  -10067.905     -10215.862      147.95719      29752.862      530.17446      15599.565      1.3807434      0.71273902   
      7700  -10065.741     -10219.385      153.6435       28137.758      550.55018      15588.335      1.3817381      0.71273902   
      7800  -10066.065     -10217.125      151.0598       29453.118      541.29203      15572.903      1.3831073      0.71273902   
      7900  -10067.676     -10216.392      148.71543      30064.24       532.89144      15554.714      1.3847247      0.71273902   
      8000  -10070.704     -10219.276      148.57202      30972.759      532.37756      15543.93       1.3856854      0.77612341   
      8100  -10069.417     -10215.822      146.40498      27703.522      524.61242      15542.935      1.3857741      0.77612341   
      8200  -10070.001     -10216.238      146.2375       33028.091      524.01229      15552.646      1.3849088      0.77612341   
      8300  -10069.234     -10214.347      145.11301      29260.76       519.98291      15577.905      1.3826633      0.77612341   
      8400  -10070.615     -10216.441      145.8263       29388.9        522.53883      15617.039      1.3791985      0.77612341   
      8500  -10063.148     -10211.728      148.5798       31596.486      532.40545      15656.969      1.3756811      0.77612341   
      8600  -10066.545     -10213.213      146.6684       30773.75       525.55634      15707.19       1.3712826      0.77612341   
      8700  -10060.857     -10212.156      151.2994       31938.725      542.15056      15758.003      1.3668608      0.77612341   
      8800  -10059.024     -10207.693      148.66965      29977.364      532.72742      15805.385      1.3627631      0.77612341   
      8900  -10057.079     -10209.962      152.88271      30320.136      547.82406      15850.125      1.3589165      0.77612341   
      9000  -10056.6       -10206.672      150.07112      31835.258      537.7493       15892.012      1.3553348      0.75785429   
      9100  -10057.622     -10208.999      151.37667      28704.468      542.42745      15926.325      1.3524147      0.75785429   
      9200  -10057.657     -10210.26       152.60329      27926.705      546.82281      15951.007      1.350322       0.75785429   
      9300  -10054.685     -10204.369      149.68406      35878.198      536.36232      15966.936      1.3489749      0.75785429   
      9400  -10053.473     -10208.665      155.19118      33791.449      556.09598      15984.971      1.3474529      0.75785429   
      9500  -10055.401     -10201.521      146.12013      30807.602      523.5917       16000.059      1.3461823      0.75785429   
      9600  -10053.371     -10202.106      148.73527      28701.038      532.96254      16007.998      1.3455147      0.75785429   
      9700  -10051.269     -10205.024      153.75519      29244.2        550.95041      16008.181      1.3454993      0.75785429   
      9800  -10050.87      -10203.22       152.35047      29604.101      545.91688      16005.949      1.345687       0.75785429   
      9900  -10051.906     -10203.899      151.99298      34482.807      544.63588      16008.861      1.3454421      0.75785429   
     10000  -10052.611     -10204.206      151.5952       32741.366      543.21053      16029.126      1.3437412      0.67695178   
     10100  -10051.242     -10205.46       154.218        29089.319      552.60879      16058.022      1.3413231      0.67695178   
     10200  -10053.529     -10200.58       147.05079      26120.684      526.92656      16088.897      1.3387491      0.67695178   
     10300  -10055.48      -10204.796      149.31541      31379.373      535.04134      16114.118      1.3366538      0.67695178   
     10400  -10053.35      -10203.501      150.15062      26754.728      538.03417      16127.204      1.3355692      0.67695178   
     10500  -10055.468     -10204.918      149.4506       30974.845      535.52577      16126.917      1.335593       0.67695178   
     10600  -10058.729     -10207.248      148.51941      26200.78       532.18905      16117.337      1.3363868      0.67695178   
     10700  -10062.803     -10208.111      145.30792      28614.263      520.68133      16099.797      1.3378427      0.67695178   
     10800  -10061.284     -10211.471      150.18779      31888.563      538.16734      16081.269      1.3393841      0.67695178   
     10900  -10060.985     -10208.861      147.87624      28691.812      529.88438      16062.549      1.3409451      0.67695178   
     11000  -10056.871     -10204.792      147.92056      29435.486      530.04318      16047.273      1.3422216      0.7392423    
     11100  -10056.849     -10206.593      149.74385      30201.49       536.57658      16039.997      1.3428305      0.7392423    
     11200  -10056.806     -10202.312      145.50531      32081.479      521.38862      16047.301      1.3422193      0.7392423    
     11300  -10058.843     -10206.771      147.9284       32987.803      530.0713       16067.863      1.3405016      0.7392423    
     11400  -10059.779     -10207.534      147.75543      32125.819      529.45148      16095.429      1.3382058      0.7392423    
     11500  -10059.525     -10206.767      147.24276      30721.743      527.61444      16121.984      1.3360016      0.7392423    
     11600  -10054.669     -10201.774      147.10435      29771.216      527.11846      16149.02       1.333765       0.7392423    
     11700  -10052.621     -10205.768      153.14697      29174.17       548.77097      16174.707      1.3316467      0.7392423    
     11800  -10053.609     -10205.11       151.50142      29975.822      542.87449      16197.212      1.3297966      0.7392423    
     11900  -10050.342     -10206.192      155.84939      28867.236      558.45453      16217.782      1.3281099      0.7392423    
     12000  -10051.617     -10205.079      153.46162      34163.33       549.89846      16232.809      1.3268804      0.73658892   
     12100  -10053.276     -10205.011      151.73517      29869.434      543.71206      16245.976      1.325805       0.73658892   
     12200  -10054.383     -10204.208      149.82461      26762.226      536.86596      16253.401      1.3251993      0.73658892   
     12300  -10054.956     -10202.422      147.46597      29657.442      528.41428      16246.333      1.3257759      0.73658892   
     12400  -10055.347     -10207.607      152.25994      29409.711      545.59247      16229.571      1.3271451      0.73658892   
     12500  -10057.645     -10207.43       149.78498      28932.422      536.72396      16203.486      1.3292816      0.73658892   
     12600  -10059.067     -10206.298      147.23141      29600.917      527.57377      16174.464      1.3316668      0.73658892   
     12700  -10052.138     -10205.725      153.58705      29260.579      550.34791      16152.534      1.3334748      0.73658892   
     12800  -10048.644     -10203.099      154.45561      29506.079      553.4602       16141.97       1.3343474      0.73658892   
     12900  -10048.455     -10204.83       156.37455      31476.835      560.33635      16137.141      1.3347468      0.73658892   
     13000  -10051.737     -10204.46       152.72249      31390.741      547.24994      16139.431      1.3345574      0.77290038   
     13100  -10052.445     -10205.662      153.21691      27683.472      549.02157      16157.497      1.3330652      0.77290038   
     13200  -10056.26      -10204.672      148.41273      29306.971      531.80679      16184.441      1.3308458      0.77290038   
     13300  -10054.908     -10203.836      148.92709      29577.541      533.6499       16214.179      1.328405       0.77290038   
     13400  -10057.229     -10206.002      148.77219      29376.8        533.09485      16252.327      1.3252869      0.77290038   
     13500  -10062.144     -10209.151      147.00705      27237.322      526.76982      16286.907      1.3224731      0.77290038   
     13600  -10057.795     -10208.798      151.00346      28287.932      541.09012      16314.361      1.3202476      0.77290038   
     13700  -10057.427     -10207.203      149.77594      25658.406      536.69156      16336.453      1.3184622      0.77290038   
     13800  -10057.746     -10202.586      144.84007      31365.538      519.0049       16346.158      1.3176795      0.77290038   
     13900  -10061.436     -10209.12       147.68402      31172.185      529.19559      16342.863      1.3179452      0.77290038   
     14000  -10062.862     -10211.541      148.67907      28397.575      532.76116      16317.498      1.3199938      0.86268743   
     14100  -10058.081     -10207.627      149.54658      28595.088      535.86971      16274.626      1.323471       0.86268743   
     14200  -10055.059     -10205.015      149.95598      29028.411      537.33669      16228.095      1.3272659      0.86268743   
     14300  -10053.029     -10204.663      151.63408      31670.731      543.34983      16181.577      1.3310814      0.86268743   
     14400  -10052.458     -10199.691      147.23338      32767.719      527.58084      16142.838      1.3342757      0.86268743   
     14500  -10053.113     -10199.757      146.64361      34933.429      525.4675       16126.379      1.3356375      0.86268743   
     14600  -10053.992     -10202.571      148.57902      33080.217      532.40264      16131.061      1.3352499      0.86268743   
     14700  -10057.888     -10207.555      149.66622      30860.827      536.2984       16153.416      1.333402       0.86268743   
     14800  -10053.466     -10205.034      151.56755      27589.175      543.11143      16190.716      1.3303301      0.86268743   
     14900  -10058.144     -10209.012      150.86763      29695.265      540.60342      16240.743      1.3262322      0.86268743   
     15000  -10058.803     -10204.651      145.84753      29621.985      522.61492      16294.935      1.3218215      0.81315796   
     15100  -10059.236     -10205.496      146.2601       29288.171      524.09328      16344.568      1.3178076      0.81315796   
     15200  -10062.769     -10209.682      146.91327      29154.517      526.43376      16379.874      1.3149672      0.81315796   
     15300  -10063.262     -10208.377      145.11462      29744.455      519.9887       16398.479      1.3134752      0.81315796   
     15400  -10062.646     -10209.757      147.11107      30607.207      527.14254      16399.485      1.3133947      0.81315796   
     15500  -10064.088     -10210.246      146.15796      29366.961      523.72729      16379.752      1.3149769      0.81315796   
     15600  -10058.745     -10208.025      149.2798       26459.724      534.91374      16343.872      1.3178637      0.81315796   
     15700  -10057.448     -10207.234      149.78639      32841.803      536.72903      16292.331      1.3220328      0.81315796   
     15800  -10054.861     -10202.63       147.76964      31404.57       529.50241      16238.583      1.3264086      0.81315796   
     15900  -10057.255     -10208.681      151.42623      31044.83       542.60506      16192.216      1.3302069      0.81315796   
     16000  -10056.335     -10204.777      148.44205      31110.119      531.91184      16151.426      1.3335662      0.73113318   
     16100  -10055.079     -10203.179      148.09957      30623.503      530.68465      16127.567      1.3355391      0.73113318   
     16200  -10053.675     -10203.941      150.2659       32768.1        538.44723      16124.124      1.3358243      0.73113318   
     16300  -10052.474     -10204.547      152.07236      29507.176      544.92033      16139.615      1.3345421      0.73113318   
     16400  -10047.015     -10197.095      150.07975      31594.885      537.78021      16171.243      1.331932       0.73113318   
     16500  -10047.774     -10204.079      156.30522      27755.765      560.08793      16227.184      1.3273404      0.73113318   
     16600  -10049.25      -10201.984      152.73405      31270.56       547.29137      16293.776      1.3219156      0.73113318   
     16700  -10055.116     -10205.126      150.01048      27785.513      537.53198      16357.449      1.3167699      0.73113318   
     16800  -10057.012     -10201.824      144.81255      27924.764      518.90629      16401.378      1.3132431      0.73113318   
     16900  -10057.158     -10203.66       146.50172      26456.493      524.95908      16420.991      1.3116746      0.73113318   
     17000  -10060.171     -10207.344      147.17319      27296.283      527.36515      16408.807      1.3126485      0.75755753   
     17100  -10059.693     -10209.513      149.82013      27947.726      536.84992      16366.259      1.3160611      0.75755753   
     17200  -10058.758     -10209.281      150.52334      26374.995      539.36972      16301.465      1.3212921      0.75755753   
     17300  -10057.889     -10203.376      145.4871       30856.282      521.32337      16227.369      1.3273252      0.75755753   
     17400  -10053.257     -10197.925      144.66726      34156.014      518.38567      16162.27       1.3326715      0.75755753   
     17500  -10049.29      -10199.003      149.71214      35576.087      536.46295      16118.509      1.3362896      0.75755753   
     17600  -10049.047     -10200.776      151.72846      29723.852      543.68803      16107.652      1.3371903      0.75755753   
     17700  -10048.53      -10198.694      150.16387      30494.819      538.08163      16128.623      1.3354517      0.75755753   
     17800  -10045.545     -10197.256      151.71185      30273.832      543.62851      16185.727      1.3307401      0.75755753   
     17900  -10048.324     -10205.044      156.7203       30411.68       561.57529      16267.667      1.3240372      0.75755753   
     18000  -10053.735     -10202.07       148.33482      32023.17       531.52762      16358.767      1.3166638      0.77703734   
     18100  -10056.82      -10205.433      148.61295      28136.645      532.52425      16444.408      1.3098067      0.77703734   
     18200  -10059.135     -10208.967      149.83214      26233.207      536.89293      16504.952      1.3050021      0.77703734   
     18300  -10056.317     -10206.403      150.08625      28151.696      537.8035       16530.936      1.3029508      0.77703734   
     18400  -10054.056     -10204.887      150.83112      25826.937      540.47258      16521.123      1.3037247      0.77703734   
     18500  -10053.587     -10207.441      153.85422      27800.958      551.30525      16476.369      1.307266       0.77703734   
     18600  -10052.926     -10200.684      147.75791      30752.779      529.46036      16402.954      1.3131169      0.77703734   
     18700  -10051.709     -10205.919      154.21049      31095.959      552.58188      16321.1        1.3197025      0.77703734   
     18800  -10052.673     -10204.882      152.20929      32902.092      545.41099      16242.278      1.3261069      0.77703734   
     18900  -10052.872     -10201.06       148.18823      32881.288      531.00235      16176.615      1.3314897      0.77703734   
     19000  -10053.078     -10204.631      151.55287      30474.711      543.05884      16140.046      1.3345065      0.76884064   
     19100  -10054.783     -10204.587      149.80373      29673.092      536.79115      16126.967      1.3355888      0.76884064   
     19200  -10054.167     -10203.348      149.18041      31776.319      534.55762      16138.614      1.3346249      0.76884064   
     19300  -10054.082     -10203.963      149.88041      31042.264      537.0659       16171.773      1.3318884      0.76884064   
     19400  -10049.647     -10200.883      151.23658      28563.849      541.92548      16215.619      1.3282871      0.76884064   
     19500  -10051.896     -10204.536      152.63951      29110.742      546.9526       16269.344      1.3239007      0.76884064   
     19600  -10049.256     -10202.288      153.0316       29565.212      548.35757      16321.735      1.3196512      0.76884064   
     19700  -10051.347     -10203.887      152.53961      27563.082      546.59462      16369.355      1.3158121      0.76884064   
     19800  -10058.711     -10205.77       147.05822      27583.083      526.95316      16408.831      1.3126467      0.76884064   
     19900  -10058.901     -10207.128      148.227        29193.735      531.14126      16433.011      1.3107151      0.76884064   
     20000  -10057.108     -10205.232      148.12384      30525.748      530.7716       16438.934      1.3102429      0.72214476   
     20100  -10055.235     -10207.736      152.50091      30384.873      546.45594      16429.954      1.310959       0.72214476   
     20200  -10056.81      -10201.967      145.15698      29985.153      520.14048      16411.216      1.3124558      0.72214476   
     20300  -10053.666     -10200.689      147.02236      29467.992      526.82467      16387.657      1.3143427      0.72214476   
     20400  -10050.758     -10203.906      153.14765      28361.183      548.77342      16359.962      1.3165677      0.72214476   
     20500  -10051.383     -10199.686      148.3032       31622.961      531.41429      16328.296      1.3191209      0.72214476   
     20600  -10051.427     -10199.586      148.15926      28934.339      530.89853      16299.626      1.3214412      0.72214476   
     20700  -10052.221     -10200.38       148.15946      31619.673      530.89924      16277.555      1.3232329      0.72214476   
     20800  -10051.273     -10198.629      147.35598      31129.039      528.02012      16260.618      1.3246112      0.72214476   
     20900  -10050.028     -10201.618      151.59023      30860.072      543.1927       16249.976      1.3254786      0.72214476   
     21000  -10053.638     -10203.961      150.32268      30256.95       538.65069      16242.342      1.3261017      0.70109172   
     21100  -10050.577     -10204.801      154.22444      30723.348      552.63187      16242.976      1.3260499      0.70109172   
     21200  -10049.756     -10203.393      153.63687      31721.783      550.52641      16251.798      1.3253301      0.70109172   
     21300  -10052.151     -10207.228      155.07768      30936.141      555.68926      16264.453      1.3242988      0.70109172   
     21400  -10052.337     -10204.433      152.09572      29190.978      545.00404      16273.737      1.3235433      0.70109172   
     21500  -10053.306     -10204.346      151.04041      32616.726      541.22254      16281.489      1.3229132      0.70109172   
     21600  -10055.295     -10204.656      149.36086      29115.948      535.2042       16286.792      1.3224824      0.70109172   
     21700  -10056.445     -10205.713      149.26815      28109.106      534.872        16287.84       1.3223973      0.70109172   
     21800  -10054.319     -10203.196      148.87724      31667.337      533.47127      16276.252      1.3233389      0.70109172   
     21900  -10055.08      -10206.114      151.03434      28946.595      541.20079      16256.1        1.3249793      0.70109172   
     22000  -10056.824     -10203.869      147.04408      33121.049      526.90249      16232.593      1.3268981      0.79106659   
     22100  -10057.437     -10209.893      152.45589      30139.267      546.29462      16218.601      1.3280428      0.79106659   
     22200  -10057.346     -10206.292      148.94593      31592.61       533.71739      16208.905      1.3288373      0.79106659   
     22300  -10054.804     -10203.912      149.10809      28937.813      534.29845      16205.211      1.3291401      0.79106659   
     22400  -10056.572     -10202.998      146.42633      29167.086      524.68893      16212.127      1.3285732      0.79106659   
     22500  -10056.802     -10204.361      147.55939      29563.603      528.74903      16229.066      1.3271864      0.79106659   
     22600  -10056.888     -10206.263      149.37518      29899.693      535.25554      16251.751      1.3253339      0.79106659   
     22700  -10055.013     -10203.148      148.13524      30087.449      530.81247      16274.807      1.3234563      0.79106659   
     22800  -10053.872     -10200.83       146.95827      26565.585      526.59501      16293.289      1.3219551      0.79106659   
     22900  -10053.947     -10203.998      150.05057      30936.173      537.67567      16305.284      1.3209826      0.79106659   
     23000  -10049.555     -10199.623      150.06749      31014.625      537.73626      16310.72       1.3205424      0.68052856   
     23100  -10049.142     -10201.667      152.52458      32152.682      546.54075      16312.718      1.3203806      0.68052856   
     23200  -10047.542     -10201.147      153.60483      33520.467      550.4116       16314.295      1.3202529      0.68052856   
     23300  -10052.276     -10202.155      149.879        30128.127      537.06088      16318.245      1.3199334      0.68052856   
     23400  -10054.357     -10203.637      149.27933      31655.147      534.91207      16321.94       1.3196346      0.68052856   
     23500  -10054.092     -10205.886      151.79455      28653.301      543.92484      16319.724      1.3198137      0.68052856   
     23600  -10049.309     -10203.976      154.66722      28790.076      554.21848      16308.952      1.3206855      0.68052856   
     23700  -10049.658     -10202.142      152.48371      32625.523      546.39432      16291.706      1.3220835      0.68052856   
     23800  -10047.325     -10202.425      155.09957      30284.161      555.7677       16283.68       1.3227352      0.68052856   
     23900  -10047.947     -10202.349      154.40168      32992.622      553.26698      16285.212      1.3226108      0.68052856   
     24000  -10046.925     -10201.257      154.33236      31212.723      553.01858      16290.743      1.3221617      0.83082086   
     24100  -10051.382     -10203.556      152.17365      27658.484      545.28329      16297.401      1.3216215      0.83082086   
     24200  -10053.199     -10204.942      151.74339      31133.153      543.74154      16304.698      1.32103        0.83082086   
     24300  -10052.253     -10202.65       150.39723      29621.936      538.91782      16312.293      1.320415       0.83082086   
     24400  -10051.451     -10204.426      152.97503      34386.685      548.15484      16315.717      1.3201379      0.83082086   
     24500  -10051.946     -10200.117      148.17098      29683.372      530.94052      16309.44       1.320646       0.83082086   
     24600  -10053.666     -10204.114      150.44802      32944.382      539.09982      16302.44       1.3212131      0.83082086   
     24700  -10052.568     -10205.687      153.11883      33107.776      548.67012      16293.087      1.3219715      0.83082086   
     24800  -10049.013     -10198.829      149.81608      28274.296      536.8354       16282.452      1.322835       0.83082086   
     24900  -10050.061     -10199.992      149.93105      30426.732      537.24737      16279.09       1.3231082      0.83082086   
     25000  -10052.685     -10201.693      149.00773      34072.231      533.93884      16284.228      1.3226907      0.71687593   
     25100  -10053.081     -10203.493      150.4122       29185.198      538.97148      16294.029      1.3218951      0.71687593   
     25200  -10057.603     -10207.145      149.54247      31069.811      535.85496      16301.696      1.3212734      0.71687593   
     25300  -10059.404     -10207.48       148.07655      28384.261      530.60214      16303.491      1.3211279      0.71687593   
     25400  -10057.927     -10208.846      150.91952      29433.863      540.78937      16300.635      1.3213593      0.71687593   
     25500  -10057.7       -10209.012      151.31264      32937.693      542.19802      16295.951      1.3217391      0.71687593   
     25600  -10061.192     -10207.029      145.83697      25187.109      522.57707      16287.919      1.322391       0.71687593   
     25700  -10059.087     -10206.719      147.63147      32719.518      529.00731      16277.087      1.323271       0.71687593   
     25800  -10057.14      -10208.208      151.06869      31097.681      541.32388      16273.936      1.3235272      0.71687593   
     25900  -10055.766     -10206.704      150.93773      35616.608      540.85461      16282.003      1.3228714      0.71687593   
     26000  -10055.168     -10207.989      152.82044      31849.971      547.60092      16303.373      1.3211374      0.72276003   
     26100  -10058.75      -10209.455      150.70518      29937.784      540.0213       16327.393      1.3191938      0.72276003   
     26200  -10062.141     -10208.093      145.95118      28596.768      522.98631      16341.585      1.3180482      0.72276003   
     26300  -10056.351     -10205.401      149.04966      28751.815      534.08911      16347.657      1.3175586      0.72276003   
     26400  -10051.759     -10203.873      152.1134       26756.267      545.06738      16345.849      1.3177044      0.72276003   
     26500  -10050.986     -10200.548      149.56176      25271.022      535.92409      16336.46       1.3184617      0.72276003   
     26600  -10054.932     -10201.918      146.98622      33307.133      526.69519      16319.701      1.3198157      0.72276003   
     26700  -10056.919     -10203.993      147.07386      31533.395      527.00921      16298.491      1.3215331      0.72276003   
     26800  -10052.563     -10200.811      148.24832      29746.22       531.21764      16278.897      1.3231239      0.72276003   
     26900  -10052.808     -10202.538      149.73025      29809.051      536.52784      16265.488      1.3242146      0.72276003   
     27000  -10056.373     -10206.004      149.6309       31272.657      536.17186      16257.675      1.324851       0.71693644   
     27100  -10050.458     -10200.116      149.65817      31176.321      536.26955      16255.689      1.3250128      0.71693644   
     27200  -10053.584     -10203.566      149.98136      30662.419      537.42766      16266.813      1.3241067      0.71693644   
     27300  -10055.373     -10204.338      148.96583      30474.435      533.78872      16285.832      1.3225604      0.71693644   
     27400  -10053.796     -10204.372      150.57594      25735.148      539.55819      16302.999      1.3211678      0.71693644   
     27500  -10052.525     -10201.766      149.24075      30251.221      534.77383      16313.123      1.3203478      0.71693644   
     27600  -10050.196     -10203.775      153.57885      31087.444      550.31853      16318.686      1.3198977      0.71693644   
     27700  -10051.114     -10199.959      148.84531      28519.97       533.35684      16319.457      1.3198353      0.71693644   
     27800  -10049.895     -10200.764      150.86854      27563.223      540.60667      16319.853      1.3198034      0.71693644   
     27900  -10054.02      -10204.689      150.66858      25827.563      539.89016      16306.658      1.3208713      0.71693644   
     28000  -10052.527     -10204.934      152.40717      31561.327      546.12003      16284.278      1.3226866      0.73971955   
     28100  -10050.579     -10203.831      153.25183      29180.928      549.14671      16263.129      1.3244067      0.73971955   
     28200  -10048.506     -10202.733      154.22727      32504.6        552.64201      16242.478      1.3260906      0.73971955   
     28300  -10049.796     -10200.787      150.99093      28915.655      541.04524      16222.368      1.3277345      0.73971955   
     28400  -10050.114     -10202.944      152.82948      32747.905      547.6333       16211.26       1.3286442      0.73971955   
     28500  -10047.543     -10200.145      152.6016       29347.345      546.81675      16211.353      1.3286366      0.73971955   
     28600  -10044.198     -10197.058      152.85912      30981.69       547.7395       16225.026      1.3275169      0.73971955   
     28700  -10048.296     -10200.993      152.69697      31492.599      547.1585       16260.726      1.3246024      0.73971955   
     28800  -10056.792     -10206.299      149.50657      28719.167      535.72633      16311.051      1.3205156      0.73971955   
     28900  -10060.894     -10206.866      145.97117      28477.969      523.05796      16360.236      1.3165455      0.73971955   
     29000  -10064.245     -10213.622      149.37736      29294.39       535.26332      16393.509      1.3138735      0.74054341   
     29100  -10060.915     -10208.678      147.76283      27909.209      529.478        16409.613      1.3125841      0.74054341   
     29200  -10060.181     -10210.053      149.87172      27487.063      537.03479      16406.064      1.312868       0.74054341   
     29300  -10060.103     -10206.747      146.64372      31295.146      525.46789      16377.216      1.3151805      0.74054341   
     29400  -10058.698     -10206.204      147.50613      29418.816      528.55816      16330.22       1.3189655      0.74054341   
     29500  -10053.189     -10201.316      148.12707      30306.897      530.7832       16274.298      1.3234977      0.74054341   
     29600  -10051.889     -10203.161      151.27215      31708.715      542.05293      16221.915      1.3277715      0.74054341   
     29700  -10050.134     -10202.66       152.52645      29929.739      546.54747      16184.2        1.3308657      0.74054341   
     29800  -10053.913     -10205.861      151.94785      30005.012      544.47418      16171.372      1.3319214      0.74054341   
     29900  -10052.848     -10200.464      147.61601      30346.967      528.9519       16182.606      1.3309968      0.74054341   
     30000  -10053.594     -10200.811      147.21695      34924.348      527.52194      16215.811      1.3282713      0.75037757   
     30100  -10053.306     -10203.745      150.43903      29476.958      539.0676       16260.017      1.3246601      0.75037757   
     30200  -10053.438     -10203.972      150.53425      29060.247      539.40881      16300.192      1.3213952      0.75037757   
     30300  -10051.996     -10203.155      151.15945      29416.077      541.64908      16335.735      1.3185202      0.75037757   
     30400  -10055.008     -10206.094      151.08646      25301.022      541.38754      16361.289      1.3164609      0.75037757   
     30500  -10054.239     -10204.478      150.23901      32297.661      538.35087      16373.443      1.3154836      0.75037757   
     30600  -10053.187     -10203.698      150.51131      28243.334      539.32663      16372.507      1.3155588      0.75037757   
     30700  -10054.667     -10203.154      148.48716      31197.984      532.07348      16357.41       1.3167731      0.75037757   
     30800  -10055.007     -10204.855      149.84853      27036.534      536.95167      16331.41       1.3188693      0.75037757   
     30900  -10054.321     -10206.135      151.81477      33628.004      543.99729      16295.757      1.3217549      0.75037757   
     31000  -10055.828     -10202.833      147.005        32187.199      526.76248      16252.586      1.3252658      0.78380877   
     31100  -10054.545     -10204.062      149.51704      32980.256      535.76384      16211.306      1.3286404      0.78380877   
     31200  -10052.116     -10204.36       152.24349      31564.129      545.53354      16185.732      1.3307398      0.78380877   
     31300  -10052.995     -10204.454      151.45908      30869.87       542.72276      16184.042      1.3308786      0.78380877   
     31400  -10053.91      -10204.326      150.41635      31596.366      538.98635      16204.439      1.3292034      0.78380877   
     31500  -10054.286     -10205.395      151.10897      32256.817      541.46821      16242.178      1.326115       0.78380877   
     31600  -10052.596     -10200.993      148.39668      30206.033      531.74928      16282.335      1.3228444      0.78380877   
     31700  -10053.709     -10205.499      151.79046      28517.191      543.91019      16319.17       1.3198585      0.78380877   
     31800  -10052.984     -10204.628      151.64445      29486.574      543.38699      16353.481      1.3170894      0.78380877   
     31900  -10053.55      -10203.365      149.81476      27843.242      536.83066      16377.617      1.3151484      0.78380877   
     32000  -10050.356     -10201.116      150.75981      30488.794      540.21706      16388.61       1.3142662      0.76193008   
     32100  -10051.272     -10201.871      150.5986       30525.476      539.6394       16389.397      1.3142031      0.76193008   
     32200  -10054.289     -10202.019      147.7299       29283.796      529.36         16381.201      1.3148606      0.76193008   
     32300  -10053.438     -10202.471      149.03249      26679.094      534.02757      16360.921      1.3164904      0.76193008   
     32400  -10052.632     -10204.698      152.06598      30813.174      544.89746      16328.162      1.3191318      0.76193008   
     32500  -10054.937     -10202.748      147.81045      30601.981      529.64864      16284.369      1.3226792      0.76193008   
     32600  -10056.005     -10204.426      148.42061      30461.909      531.83502      16235.17       1.3266875      0.76193008   
     32700  -10053.967     -10202.572      148.60439      36431.286      532.49356      16197.236      1.3297945      0.76193008   
     32800  -10052.552     -10202.123      149.57029      29872.888      535.95467      16174.808      1.3316385      0.76193008   
     32900  -10051.849     -10204.06       152.2114       28795.383      545.41853      16171.458      1.3319143      0.76193008   
     33000  -10054.589     -10202.231      147.64207      31527.404      529.04527      16184.487      1.3308421      0.77738235   
     33100  -10059.413     -10204.657      145.24339      33855.987      520.4501       16214.227      1.3284011      0.77738235   
     33200  -10060.818     -10208.745      147.92786      27521.027      530.06937      16253.702      1.3251748      0.77738235   
     33300  -10062.736     -10210.073      147.33682      27991.219      527.95148      16293.194      1.3219628      0.77738235   
     33400  -10063.427     -10209.29       145.86293      29533.732      522.6701       16331.339      1.3188751      0.77738235   
     33500  -10062.435     -10210.317      147.88226      28726.335      529.90595      16357.575      1.3167598      0.77738235   
     33600  -10062.387     -10209.639      147.25211      27571.778      527.64795      16369.532      1.315798       0.77738235   
     33700  -10059.565     -10204.954      145.38882      30154.986      520.97122      16365.775      1.3161         0.77738235   
     33800  -10053.798     -10201.771      147.97375      26665.325      530.23378      16346.121      1.3176824      0.77738235   
     33900  -10053.088     -10205.592      152.5035       29542.017      546.46523      16310.197      1.3205847      0.77738235   
     34000  -10052.564     -10202.657      150.09293      32138.093      537.82745      16272.518      1.3236425      0.78823564   
     34100  -10049.714     -10202.877      153.16346      33424.321      548.83005      16243.28       1.326025       0.78823564   
     34200  -10049.651     -10203.861      154.2098       30471.068      552.57941      16230.863      1.3270395      0.78823564   
     34300  -10047.977     -10199.262      151.28515      32696.709      542.0995       16233.083      1.326858       0.78823564   
     34400  -10044.731     -10198.242      153.51084      30092.945      550.07482      16250.923      1.3254014      0.78823564   
     34500  -10047.928     -10204.721      156.79286      30062.064      561.83527      16282.757      1.3228102      0.78823564   
     34600  -10048.139     -10201.288      153.1494       31168.687      548.77967      16318.787      1.3198895      0.78823564   
     34700  -10051.143     -10203.359      152.21626      30290.052      545.43596      16359.435      1.3166101      0.78823564   
     34800  -10050.422     -10200.305      149.88311      27223.435      537.0756       16401.916      1.3132001      0.78823564   
     34900  -10050.34      -10200.469      150.1299       26828.059      537.9599       16436.972      1.3103993      0.78823564   
     35000  -10045.624     -10195.326      149.70282      25926.596      536.42954      16456.326      1.3088582      0.70663213   
     35100  -10047.781     -10200.811      153.02989      28684.547      548.35144      16458.25       1.3087052      0.70663213   
     35200  -10050.172     -10200.704      150.53227      30784.603      539.40172      16444.641      1.3097882      0.70663213   
     35300  -10048.83      -10198.177      149.34669      27295.872      535.15344      16413.729      1.3122549      0.70663213   
     35400  -10048.681     -10200.026      151.34531      26125.354      542.31509      16369.595      1.3157929      0.70663213   
     35500  -10044.024     -10197.592      153.56723      26157.713      550.27688      16315.093      1.3201884      0.70663213   
     35600  -10042.057     -10197.33       155.27288      30897.83       556.38874      16256.588      1.3249395      0.70663213   
     35700  -10045.045     -10201.6        156.55458      31999.959      560.98146      16208.104      1.3289029      0.70663213   
     35800  -10043.365     -10194.564      151.19947      33554.46       541.79249      16176.797      1.3314747      0.70663213   
     35900  -10046.914     -10204.139      157.2248       32642.138      563.38304      16166.73       1.3323039      0.70663213   
     36000  -10046.332     -10202.512      156.17948      29385.206      559.63734      16172.754      1.3318076      0.83910549   
     36100  -10048.715     -10198.241      149.52624      30799.291      535.7968       16192.285      1.3302012      0.83910549   
     36200  -10052.555     -10202.717      150.16283      31247.914      538.07792      16224.5        1.32756        0.83910549   
     36300  -10052.037     -10203.844      151.80715      27361.26       543.96998      16266.181      1.3241581      0.83910549   
     36400  -10050.326     -10199.72       149.39419      32824.061      535.32365      16311.965      1.3204416      0.83910549   
     36500  -10050.792     -10204.424      153.63196      33198.278      550.50883      16359.473      1.316607       0.83910549   
     36600  -10053.196     -10202.392      149.19569      28145.14       534.61236      16402.813      1.3131282      0.83910549   
     36700  -10051.669     -10204.382      152.71246      27578.742      547.21399      16435.402      1.3105244      0.83910549   
     36800  -10052.336     -10203.11       150.77358      30581.754      540.26642      16451.242      1.3092626      0.83910549   
     36900  -10052.507     -10203.34       150.83312      30783.907      540.47976      16442.135      1.3099878      0.83910549   
     37000  -10052.71      -10206.557      153.84633      30156.487      551.277        16418.312      1.3118886      0.73504211   
     37100  -10051.347     -10199.531      148.18454      31098.853      530.98911      16384.137      1.314625       0.73504211   
     37200  -10048.73      -10202.331      153.60136      30702.85       550.39919      16346.742      1.3176324      0.73504211   
     37300  -10050.102     -10200.347      150.24504      31363.895      538.37248      16306.832      1.3208572      0.73504211   
     37400  -10047.999     -10200.818      152.81959      32590.857      547.59787      16271.923      1.3236909      0.73504211   
     37500  -10051.564     -10201.642      150.0784       28770.868      537.77538      16240.857      1.3262229      0.73504211   
     37600  -10053.097     -10201.801      148.70432      31773.189      532.85165      16216.626      1.3282046      0.73504211   
     37700  -10056.393     -10203.553      147.15978      29387.438      527.31708      16202.796      1.3293382      0.73504211   
     37800  -10057.465     -10204.256      146.79061      32522.403      525.99424      16201.094      1.3294779      0.73504211   
     37900  -10057.714     -10205.513      147.79911      32325.713      529.60799      16212.508      1.3285419      0.73504211   
     38000  -10058.509     -10207.675      149.1657       32688.497      534.50489      16240.475      1.3262541      0.79830513   
     38100  -10054.046     -10202.827      148.78056      31314.914      533.12482      16281.626      1.3229021      0.79830513   
     38200  -10055.558     -10206.304      150.74537      29757.225      540.16533      16323.996      1.3194684      0.79830513   
     38300  -10052.926     -10202.634      149.70826      30596.46       536.44904      16357.868      1.3167362      0.79830513   
     38400  -10051.123     -10204.863      153.73954      30366.343      550.89431      16387.181      1.3143808      0.79830513   
     38500  -10051.88      -10205.062      153.18217      28119.605      548.89711      16413.567      1.3122679      0.79830513   
     38600  -10053.586     -10206.902      153.31695      27855.403      549.38006      16432.147      1.3107841      0.79830513   
     38700  -10057.719     -10202.699      144.97927      27406.71       519.50366      16435.447      1.3105209      0.79830513   
     38800  -10052.175     -10204.481      152.30651      31237.077      545.75934      16423.666      1.311461       0.79830513   
     38900  -10053.61      -10202.481      148.87107      28993.196      533.44916      16395.383      1.3137233      0.79830513   
     39000  -10055.69      -10202.473      146.78282      29204.215      525.96635      16355.59       1.3169196      0.90373357   
     39100  -10053.966     -10207.289      153.32349      30807.005      549.40349      16312.186      1.3204237      0.90373357   
     39200  -10051.036     -10203.813      152.77696      28706.334      547.4451       16274.758      1.3234603      0.90373357   
     39300  -10047.718     -10197.651      149.9334       30161.728      537.25578      16245.294      1.3258607      0.90373357   
     39400  -10051.931     -10204.785      152.85437      33614.525      547.72251      16227.851      1.3272858      0.90373357   
     39500  -10049.467     -10202.802      153.33419      33053.812      549.44184      16225.67       1.3274642      0.90373357   
     39600  -10048.657     -10202.282      153.62517      28983.652      550.48449      16241.363      1.3261816      0.90373357   
     39700  -10051.362     -10208.153      156.79132      27667.828      561.82974      16266.244      1.324153       0.90373357   
     39800  -10050.769     -10201.588      150.81814      29256.467      540.42609      16287.887      1.3223936      0.90373357   
     39900  -10048.669     -10208.427      159.75817      29661.129      572.46087      16311.951      1.3204427      0.90373357   
     40000  -10050.039     -10201.816      151.77633      29314.232      543.85955      16331.177      1.3188882      0.7455532    
     40100  -10047.115     -10202.743      155.62755      26911.995      557.65963      16348.832      1.3174639      0.7455532    
     40200  -10053.977     -10203.38       149.40226      30917.058      535.35256      16366.511      1.3160408      0.7455532    
     40300  -10056.204     -10206.971      150.76659      27653.878      540.24136      16381.549      1.3148327      0.7455532    
     40400  -10049.886     -10201.502      151.61663      30911.539      543.2873       16377.696      1.3151421      0.7455532    
     40500  -10048.804     -10202.382      153.57806      29306.594      550.31569      16356.023      1.3168847      0.7455532    
     40600  -10050.961     -10206.017      155.05508      27770.662      555.60831      16324.798      1.3194035      0.7455532    
     40700  -10048.769     -10200.148      151.37922      28413.213      542.43661      16285.857      1.3225584      0.7455532    
     40800  -10052.143     -10201.794      149.65163      31211.392      536.24613      16246.091      1.3257956      0.7455532    
     40900  -10052.314     -10203.432      151.11754      28415.537      541.49893      16206.512      1.3290335      0.7455532    
     41000  -10049.348     -10202.883      153.5345       28407.154      550.15961      16176.673      1.3314849      0.68009429   
     41100  -10048.117     -10204.613      156.49635      34835.836      560.7728       16168.136      1.332188       0.68009429   
     41200  -10050.935     -10203.472      152.53659      31240.955      546.58379      16181.106      1.3311202      0.68009429   
     41300  -10050.105     -10202.807      152.70243      34359.176      547.17804      16217.369      1.3281437      0.68009429   
     41400  -10051.728     -10199.271      147.5429       27915.237      528.68992      16267.988      1.3240111      0.68009429   
     41500  -10053.106     -10204.453      151.34658      31815.886      542.31965      16329.079      1.3190577      0.68009429   
     41600  -10050.638     -10202.919      152.28076      30613.595      545.6671       16391.575      1.3140285      0.68009429   
     41700  -10052.175     -10205.869      153.69485      28888.444      550.73417      16442.081      1.3099921      0.68009429   
     41800  -10053.405     -10203.203      149.79838      31905.118      536.77199      16474.634      1.3074036      0.68009429   
     41900  -10052.981     -10201.124      148.14274      27447.373      530.83933      16492.257      1.3060066      0.68009429   
     42000  -10052.043     -10201.873      149.83011      31513.895      536.88568      16493.918      1.3058751      0.72923073   
     42100  -10046.463     -10200.309      153.8459       28268.468      551.27544      16473.861      1.307465       0.72923073   
     42200  -10048.682     -10199.616      150.93485      27277.589      540.84428      16432.279      1.3107735      0.72923073   
     42300  -10048.537     -10201.249      152.71201      31136.625      547.21238      16374.909      1.3153658      0.72923073   
     42400  -10043.245     -10198.26       155.01487      30462.857      555.4642       16315.989      1.3201159      0.72923073   
     42500  -10045.969     -10201.021      155.05184      33279.324      555.59667      16273.906      1.3235296      0.72923073   
     42600  -10047.379     -10203.928      156.54944      29115.328      560.96303      16245.445      1.3258484      0.72923073   
     42700  -10048.734     -10197.899      149.16473      29680.8        534.50143      16227.217      1.3273377      0.72923073   
     42800  -10052.266     -10204.016      151.75003      30742.16       543.76533      16223.091      1.3276753      0.72923073   
     42900  -10052.116     -10202.007      149.89091      32611.151      537.10353      16231.022      1.3270265      0.72923073   
     43000  -10052.595     -10202.802      150.20647      29791.775      538.2343       16242.949      1.3260521      0.7517707    
     43100  -10053.199     -10203.125      149.9257       29017.287      537.22821      16253.623      1.3251813      0.7517707    
     43200  -10049.008     -10198.958      149.94984      31703.615      537.31472      16272.173      1.3236706      0.7517707    
     43300  -10046.557     -10199.055      152.49795      30172.81       546.44535      16297.231      1.3216353      0.7517707    
     43400  -10051.059     -10205.274      154.21517      28866.934      552.59863      16326.026      1.3193043      0.7517707    
     43500  -10053.352     -10201.426      148.07459      30848.707      530.59515      16351.855      1.3172204      0.7517707    
     43600  -10055.65      -10210.075      154.4247       29995.56       553.34945      16370.042      1.315757       0.7517707    
     43700  -10055.816     -10208.069      152.25268      29706.018      545.56646      16375.603      1.3153101      0.7517707    
     43800  -10060.68      -10209.239      148.5592       28102.121      532.33162      16367.401      1.3159692      0.7517707    
     43900  -10065.29      -10207.814      142.52419      30087.566      510.70641      16336.597      1.3184506      0.7517707    
     44000  -10062.869     -10210.375      147.50631      33262.067      528.5588       16291.763      1.3220789      0.81673205   
     44100  -10057.837     -10205.042      147.20589      32492.309      527.48233      16247.023      1.3257195      0.81673205   
     44200  -10059.06      -10208.571      149.51087      33872.997      535.74173      16220.48       1.3278889      0.81673205   
     44300  -10058.583     -10205.982      147.39927      32293.746      528.17527      16209.465      1.3287913      0.81673205   
     44400  -10056.517     -10205.31       148.79298      32529.394      533.16934      16214.976      1.3283397      0.81673205   
     44500  -10056.583     -10204.936      148.35278      28357.298      531.59196      16234.221      1.326765       0.81673205   
     44600  -10059.956     -10205.835      145.87881      31353.912      522.72699      16260.61       1.3246118      0.81673205   
     44700  -10061.106     -10211.809      150.70315      27572.592      540.01402      16282.21       1.3228546      0.81673205   
     44800  -10060.155     -10208.473      148.31841      29217.405      531.46882      16286.425      1.3225122      0.81673205   
     44900  -10057.201     -10204.43       147.22899      31813.62       527.56508      16276.416      1.3233255      0.81673205   
     45000  -10052.714     -10202.342      149.62869      30422.151      536.16394      16257.287      1.3248826      0.77277858   
     45100  -10051.337     -10203.525      152.18755      30200.056      545.33308      16235.001      1.3267012      0.77277858   
     45200  -10049.328     -10203.662      154.33385      28949.989      553.0239       16215.049      1.3283337      0.77277858   
     45300  -10047.4       -10200.819      153.41903      31028.7        549.74583      16203.199      1.3293052      0.77277858   
     45400  -10053.388     -10202.299      148.911        29869.823      533.59224      16203.408      1.329288       0.77277858   
     45500  -10053.447     -10203.007      149.56047      32398.24       535.91948      16214.525      1.3283767      0.77277858   
     45600  -10052.891     -10204.884      151.993        29711.184      544.63594      16235.86       1.326631       0.77277858   
     45700  -10051.186     -10201.653      150.46665      33925.019      539.16659      16264.414      1.324302       0.77277858   
     45800  -10051.52      -10199.117      147.5966       29899.305      528.88235      16299.009      1.3214912      0.77277858   
     45900  -10053.845     -10201.668      147.82351      30630.604      529.69543      16331.134      1.3188917      0.77277858   
     46000  -10053.206     -10201.793      148.58777      27229.717      532.43399      16358.682      1.3166707      0.78039351   
     46100  -10058.899     -10203.942      145.0432       31624.955      519.73277      16372.972      1.3155215      0.78039351   
     46200  -10060.293     -10205.065      144.77165      29439.835      518.75971      16366.217      1.3160645      0.78039351   
     46300  -10059.195     -10208.329      149.13446      27248.799      534.39296      16340.129      1.3181656      0.78039351   
     46400  -10056.221     -10207.805      151.58409      30170.036      543.17071      16296.382      1.3217042      0.78039351   
     46500  -10054.588     -10203.783      149.19455      33225.971      534.60827      16246.167      1.3257894      0.78039351   
     46600  -10054.703     -10204.198      149.49489      32817.224      535.68448      16204.516      1.3291971      0.78039351   
     46700  -10053.475     -10200.998      147.52251      33501.592      528.61685      16179.474      1.3312544      0.78039351   
     46800  -10053.871     -10203.761      149.88978      33148.748      537.09951      16174.382      1.3316735      0.78039351   
     46900  -10051.72      -10202.143      150.42314      31893.194      539.01068      16189.489      1.3304309      0.78039351   
     47000  -10051.816     -10205.243      153.4276       28985.859      549.77656      16225.123      1.327509       0.76869548   
     47100  -10051.215     -10200.777      149.56207      29635.672      535.9252       16273.061      1.3235983      0.76869548   
     47200  -10047.108     -10197.916      150.80814      31385.073      540.39025      16327.913      1.3191518      0.76869548   
     47300  -10046.948     -10202.992      156.04487      27551.964      559.15501      16376.542      1.3152347      0.76869548   
     47400  -10047.088     -10198.683      151.59489      26845.612      543.20941      16406.353      1.3128448      0.76869548   
     47500  -10050.127     -10203.447      153.32018      26557.167      549.39162      16413.494      1.3122737      0.76869548   
     47600  -10053.439     -10205.339      151.89966      26776.015      544.30147      16398.666      1.3134603      0.76869548   
     47700  -10057.63      -10202.993      145.36215      26301.285      520.87565      16361.743      1.3164243      0.76869548   
     47800  -10057.739     -10208.695      150.95563      28462.216      540.91875      16310.296      1.3205766      0.76869548   
     47900  -10051.883     -10202.715      150.83246      29407.296      540.47739      16253.546      1.3251875      0.76869548   
     48000  -10053.099     -10201.386      148.28737      28176.241      531.3576       16205.188      1.329142       0.74921498   
     48100  -10053.854     -10201.849      147.9953       35933.222      530.31099      16173.975      1.331707       0.74921498   
     48200  -10054.174     -10205.982      151.80822      31391.408      543.97384      16171.295      1.3319278      0.74921498   
     48300  -10050.943     -10202.72       151.77631      33922.639      543.8595       16187.718      1.3305765      0.74921498   
     48400  -10053.23      -10205.167      151.93766      29125.159      544.43767      16222.542      1.3277202      0.74921498   
     48500  -10057.192     -10206.446      149.25364      28426.664      534.82001      16270.306      1.3238225      0.74921498   
     48600  -10056.171     -10202.346      146.17552      29575.073      523.79021      16320.699      1.3197349      0.74921498   
     48700  -10057.708     -10208.888      151.18017      30078.242      541.72334      16360.309      1.3165397      0.74921498   
     48800  -10053.109     -10204.49       151.38079      29685.718      542.44222      16379.875      1.3149671      0.74921498   
     48900  -10054.644     -10203.396      148.75248      30135.455      533.02419      16385.521      1.314514       0.74921498   
     49000  -10053.224     -10200.716      147.49123      28909.701      528.50476      16379.029      1.315035       0.77103924   
     49100  -10051.018     -10196.832      145.8141       30021.079      522.49513      16357.665      1.3167525      0.77103924   
     49200  -10048.093     -10198.751      150.65752      30501.182      539.85054      16329.404      1.3190314      0.77103924   
     49300  -10047.832     -10200.596      152.76461      29259.512      547.40085      16301.327      1.3213033      0.77103924   
     49400  -10049.827     -10199.75       149.92291      27236.072      537.21819      16273.959      1.3235253      0.77103924   
     49500  -10051.892     -10202.323      150.43082      29249.852      539.03818      16250.426      1.325442       0.77103924   
     49600  -10051.461     -10204.479      153.01845      29226.819      548.31046      16232.822      1.3268794      0.77103924   
     49700  -10052.098     -10201.469      149.37052      30139.828      535.23884      16223.584      1.3276349      0.77103924   
     49800  -10049.214     -10201.406      152.19199      29835.973      545.34898      16221.212      1.327829       0.77103924   
     49900  -10050.378     -10206.258      155.88038      26917.187      558.56557      16227.323      1.327329       0.77103924   
     50000  -10053.445     -10207.255      153.81005      32033.526      551.14696      16238.597      1.3264074      0.77528524   
     50100  -10057.691     -10205.647      147.9565       31881.027      530.17198      16252.113      1.3253044      0.77528524   
     50200  -10058.144     -10203.641      145.49783      27517.328      521.36184      16270.637      1.3237956      0.77528524   
     50300  -10055.954     -10204.867      148.91326      29489.77       533.60031      16286.167      1.3225332      0.77528524   
     50400  -10051.767     -10201.648      149.88072      31459.373      537.06702      16296.396      1.3217031      0.77528524   
     50500  -10053.176     -10205.402      152.22664      30160.896      545.47314      16303.832      1.3211002      0.77528524   
     50600  -10050.851     -10201.36       150.50928      31735.09       539.31936      16310.001      1.3206005      0.77528524   
     50700  -10054.497     -10204.528      150.03064      29743.123      537.60425      16312.713      1.320381       0.77528524   
     50800  -10052.136     -10201.832      149.69682      31821.983      536.40806      16306.3        1.3209003      0.77528524   
     50900  -10051.977     -10200.531      148.55343      31945.98       532.31097      16296.857      1.3216657      0.77528524   
     51000  -10048.957     -10203.371      154.41437      29993.894      553.31245      16293.793      1.3219142      0.70786964   
     51100  -10050.205     -10202.601      152.39573      29160.519      546.07904      16291.447      1.3221046      0.70786964   
     51200  -10053.368     -10206.26       152.89252      30437.639      547.8592       16290.452      1.3221853      0.70786964   
     51300  -10053.495     -10201.681      148.18565      30025.844      530.99307      16293.354      1.3219498      0.70786964   
     51400  -10055.85      -10202.68       146.82984      29439.659      526.13481      16298.383      1.3215419      0.70786964   
     51500  -10056.447     -10206.929      150.48179      29578.668      539.22085      16298.009      1.3215723      0.70786964   
     51600  -10055.639     -10204.956      149.31628      28548.198      535.04449      16290.563      1.3221763      0.70786964   
     51700  -10051.779     -10204.37       152.59089      30745.023      546.77838      16284.06       1.3227043      0.70786964   
     51800  -10052.714     -10205.915      153.20069      28433.751      548.96347      16283.157      1.3227776      0.70786964   
     51900  -10053.275     -10203.545      150.2704       28714.354      538.46337      16290.024      1.3222201      0.70786964   
     52000  -10053.726     -10201.645      147.91874      31819.868      530.03667      16305.81       1.32094        0.78357769   
     52100  -10054.409     -10205.354      150.94442      28617.086      540.87857      16328.711      1.3190874      0.78357769   
     52200  -10056.126     -10206.283      150.15695      30079.698      538.05684      16347.319      1.3175859      0.78357769   
     52300  -10055.919     -10206.625      150.70626      28801.081      540.02517      16360.479      1.316526       0.78357769   
     52400  -10054.497     -10203.235      148.73876      28962.246      532.97504      16366.319      1.3160563      0.78357769   
     52500  -10053.744     -10206.232      152.48844      33521.396      546.41127      16372.133      1.3155889      0.78357769   
     52600  -10051.612     -10203.707      152.09456      27570.718      544.99988      16370.404      1.3157278      0.78357769   
     52700  -10050.397     -10204.496      154.09843      29136.904      552.18033      16365.477      1.3161239      0.78357769   
     52800  -10053.449     -10205.287      151.83825      28923.303      544.08145      16358.105      1.3167171      0.78357769   
     52900  -10048.652     -10197.737      149.08481      26938.02       534.21503      16342.62       1.3179647      0.78357769   
     53000  -10042.68      -10197.626      154.94658      29483.755      555.21951      16327.724      1.3191671      0.74701743   
     53100  -10044.984     -10198.128      153.14395      32415.902      548.76016      16313.334      1.3203308      0.74701743   
     53200  -10047.184     -10198.511      151.3268       30248.15       542.24875      16305.435      1.3209704      0.74701743   
     53300  -10052.121     -10204.018      151.89694      29530.42       544.29175      16311.631      1.3204686      0.74701743   
     53400  -10051.659     -10203.675      152.01631      28400.836      544.71948      16327.232      1.3192068      0.74701743   
     53500  -10055.317     -10204.233      148.91628      34350.389      533.61115      16339.294      1.318233       0.74701743   
     53600  -10054.061     -10205.796      151.73489      29847.903      543.71108      16346.034      1.3176894      0.74701743   
     53700  -10055.873     -10205.682      149.80881      31129.317      536.80934      16348.888      1.3174595      0.74701743   
     53800  -10056.395     -10205.263      148.86804      32115.785      533.43828      16347.531      1.3175688      0.74701743   
     53900  -10054.665     -10203.107      148.44201      29387.194      531.91169      16345.173      1.3177589      0.74701743   
     54000  -10053.669     -10205.372      151.70343      30140.787      543.59835      16341.96       1.318018       0.73814306   
     54100  -10051.948     -10204.845      152.89657      31353.311      547.87371      16339.912      1.3181831      0.73814306   
     54200  -10053.286     -10202.452      149.16635      31863.011      534.50722      16346.447      1.3176562      0.73814306   
     54300  -10057.747     -10206.027      148.2806       33260.022      531.33331      16362.765      1.3163421      0.73814306   
     54400  -10054.636     -10204.966      150.33023      28847.236      538.67777      16379.953      1.3149608      0.73814306   
     54500  -10050.843     -10204.397      153.55339      32172.288      550.2273       16395.976      1.3136757      0.73814306   
     54600  -10050.838     -10205.304      154.4666       28002.698      553.4996       16410.801      1.312489       0.73814306   
     54700  -10050.497     -10202.168      151.67164      27233.535      543.48443      16417.298      1.3119696      0.73814306   
     54800  -10050.604     -10202.042      151.43762      28856.614      542.64587      16412.109      1.3123845      0.73814306   
     54900  -10049.954     -10201.639      151.68501      30698.474      543.53234      16397.19       1.3135785      0.73814306   
     55000  -10051.32      -10198.885      147.56502      29853.113      528.76918      16370.414      1.315727       0.80099536   
     55100  -10048.366     -10200.065      151.69848      31940.613      543.58058      16337.52       1.3183761      0.80099536   
     55200  -10048.366     -10201.138      152.77188      33306.343      547.4269       16305.553      1.3209608      0.80099536   
     55300  -10048.773     -10198.831      150.05778      30976.678      537.70149      16278.739      1.3231367      0.80099536   
     55400  -10048.543     -10197.821      149.2774       28375.946      534.90517      16261.463      1.3245423      0.80099536   
     55500  -10050.733     -10202.767      152.03486      30810.25       544.78597      16256.026      1.3249854      0.80099536   
     55600  -10053.326     -10202.806      149.47993      32511.279      535.63089      16261.006      1.3245796      0.80099536   
     55700  -10052.366     -10203.881      151.51534      32933.854      542.92437      16276.698      1.3233026      0.80099536   
     55800  -10057.966     -10204.719      146.75326      30540.338      525.86042      16298.199      1.3215569      0.80099536   
     55900  -10054.733     -10205.087      150.35378      32227.331      538.76214      16319.954      1.3197952      0.80099536   
     56000  -10053.447     -10201.291      147.84399      29072.272      529.76882      16343.915      1.3178603      0.74573009   
     56100  -10054.979     -10205.258      150.27918      29037.415      538.49482      16366.976      1.3160034      0.74573009   
     56200  -10055.919     -10206.935      151.01585      27694.566      541.13453      16380.329      1.3149306      0.74573009   
     56300  -10055.89      -10208.318      152.42767      26255.181      546.1935       16381.438      1.3148416      0.74573009   
     56400  -10053.423     -10205.537      152.11386      29570.132      545.06904      16366.188      1.3160668      0.74573009   
     56500  -10054.711     -10205.488      150.77724      28391.29       540.27952      16339.755      1.3181958      0.74573009   
     56600  -10056.793     -10205.663      148.87011      30312.681      533.44572      16304.398      1.3210544      0.74573009   
     56700  -10053.79      -10206.191      152.40101      32907.425      546.09799      16266.088      1.3241657      0.74573009   
     56800  -10052.221     -10202.552      150.33151      32937.126      538.68235      16237.245      1.3265179      0.74573009   
     56900  -10053.226     -10203.007      149.78037      30760.71       536.70742      16222.41       1.327731       0.74573009   
[...]
   2186900  -10049.825     -10202.387      152.56206      28360.848      546.67506      16255.14       1.3250576      0.72337047   
   2187000  -10048.778     -10200.256      151.47785      27726.469      542.79         16282.765      1.3228095      0.68222075   
   2187100  -10049.211     -10205.92       156.70852      28925.301      561.53305      16319.56       1.319827       0.68222075   
   2187200  -10049.708     -10201.288      151.57954      30585.988      543.15441      16350.19       1.3173545      0.68222075   
   2187300  -10049.449     -10200.935      151.48568      30380.095      542.81809      16373.505      1.3154787      0.68222075   
   2187400  -10054.706     -10207.674      152.96862      27248.788      548.1319       16391.871      1.3140048      0.68222075   
   2187500  -10051.151     -10203.334      152.18355      26796.442      545.31876      16392.475      1.3139563      0.68222075   
   2187600  -10053.276     -10202.687      149.41144      28804.573      535.38546      16373.533      1.3154764      0.68222075   
   2187700  -10052.025     -10201.504      149.47939      27340.236      535.62894      16341.097      1.3180875      0.68222075   
   2187800  -10052.937     -10206.251      153.31325      32083.327      549.36682      16301.333      1.3213028      0.68222075   
   2187900  -10052.029     -10204.567      152.53772      31857.312      546.58784      16261.409      1.3245468      0.68222075   
   2188000  -10054.32      -10208.303      153.98309      30945.117      551.76703      16232.879      1.3268747      0.77676395   
   2188100  -10051.084     -10203.874      152.78953      29296.327      547.49017      16217.563      1.3281278      0.77676395   
   2188200  -10050.828     -10202.367      151.53985      27250.355      543.01218      16219.259      1.3279889      0.77676395   
   2188300  -10055.718     -10203.555      147.83674      32172.038      529.74284      16235.669      1.3266467      0.77676395   
   2188400  -10054.313     -10203.363      149.04974      29292.523      534.08937      16260.994      1.3245805      0.77676395   
   2188500  -10057.315     -10203.912      146.59715      31954.637      525.30101      16296.547      1.3216908      0.77676395   
   2188600  -10056.688     -10206.172      149.4847       30831.713      535.64796      16336.695      1.3184427      0.77676395   
   2188700  -10060.44      -10210.061      149.62148      30992.236      536.1381       16375.554      1.3153141      0.77676395   
   2188800  -10054.993     -10205.195      150.20175      25984.948      538.21738      16400.085      1.3133467      0.77676395   
   2188900  -10056.752     -10203.722      146.96989      27523.857      526.63667      16400.678      1.3132992      0.77676395   
   2189000  -10063.626     -10209.19       145.56384      26648.679      521.59836      16374.078      1.3154326      0.73261292   
   2189100  -10058.098     -10207.509      149.41055      33092.884      535.38225      16314.088      1.3202698      0.73261292   
   2189200  -10056.814     -10206.347      149.53252      31606.694      535.81932      16234.124      1.3267729      0.73261292   
   2189300  -10052.172     -10201.767      149.59535      31948.863      536.04444      16154.272      1.3333313      0.73261292   
   2189400  -10051.335     -10207.069      155.73432      28514.768      558.04222      16086.442      1.3389534      0.73261292   
   2189500  -10052.738     -10202.022      149.28408      32051.51       534.92911      16042.338      1.3426345      0.73261292   
   2189600  -10053.325     -10207.819      154.49399      29913.401      553.59773      16030.666      1.343612       0.73261292   
   2189700  -10053.246     -10204.727      151.48158      35112.186      542.80338      16048.835      1.3420909      0.73261292   
   2189800  -10052.674     -10205.138      152.4641       32512.031      546.32403      16098.202      1.3379753      0.73261292   
   2189900  -10055.135     -10206.57       151.43474      33483.149      542.63553      16170.996      1.3319524      0.73261292   
   2190000  -10053.458     -10205.151      151.69258      28195.541      543.55944      16255.079      1.3250625      0.77276096   
   2190100  -10060.692     -10210.298      149.60613      25749.509      536.08308      16337.179      1.3184036      0.77276096   
   2190200  -10057.093     -10206.175      149.0824       31367.707      534.2064       16393.697      1.3138584      0.77276096   
   2190300  -10054.405     -10205.682      151.27676      27728.11       542.06944      16423.715      1.3114571      0.77276096   
   2190400  -10056.419     -10205.164      148.74537      28194.68       532.99872      16428.345      1.3110874      0.77276096   
   2190500  -10054.777     -10205.015      150.23772      27716.825      538.34626      16408.466      1.3126758      0.77276096   
   2190600  -10056.23      -10206.084      149.85395      28727.973      536.97111      16374.245      1.3154192      0.77276096   
   2190700  -10056.823     -10205.371      148.54779      31223.448      532.29076      16335.23       1.318561       0.77276096   
   2190800  -10056.563     -10204.573      148.01033      30925.21       530.36486      16298.103      1.3215646      0.77276096   
   2190900  -10053.918     -10206.661      152.74352      30886.832      547.32528      16269.324      1.3239024      0.77276096   
   2191000  -10053.949     -10203.779      149.83053      28886.94       536.88717      16251.307      1.3253701      0.98439887   
   2191100  -10052.969     -10202.426      149.45775      33746.755      535.5514       16244.091      1.3259588      0.98439887   
   2191200  -10049.456     -10199.48       150.02477      30819.317      537.58322      16253.396      1.3251997      0.98439887   
   2191300  -10048.874     -10201.137      152.26269      30422.839      545.60235      16285.331      1.3226011      0.98439887   
   2191400  -10051.386     -10203.086      151.7001       33282.529      543.58641      16334.603      1.3186115      0.98439887   
   2191500  -10054.858     -10207.124      152.26532      30059.224      545.61176      16381.828      1.3148103      0.98439887   
   2191600  -10053.503     -10203.255      149.75196      27973.806      536.60563      16411.536      1.3124303      0.98439887   
   2191700  -10053.046     -10201.401      148.3549       29985.748      531.59957      16423.268      1.3114927      0.98439887   
   2191800  -10048.345     -10201.679      153.33391      31312.701      549.44084      16422.833      1.3115274      0.98439887   
   2191900  -10049.784     -10200.579      150.79572      26309.286      540.34575      16415.824      1.3120874      0.98439887   
   2192000  -10049.156     -10203.053      153.8972       30543.622      551.45926      16396.461      1.3136369      0.70016973   
   2192100  -10052.868     -10199.399      146.53037      27370.221      525.06173      16366.682      1.3160271      0.70016973   
   2192200  -10050.573     -10199.828      149.25481      28451.349      534.82419      16328.174      1.3191308      0.70016973   
   2192300  -10053.097     -10204.165      151.06802      26509.776      541.32148      16281.02       1.3229513      0.70016973   
   2192400  -10050.744     -10201.276      150.53225      31379.674      539.40163      16232.697      1.3268896      0.70016973   
   2192500  -10050.541     -10198.16       147.61904      33745.648      528.96275      16193.577      1.330095       0.70016973   
   2192600  -10046.921     -10201.565      154.64413      28528.372      554.13572      16173.152      1.3317748      0.70016973   
   2192700  -10046.95      -10196.567      149.6175       29432.179      536.12383      16172.057      1.3318649      0.70016973   
   2192800  -10050.616     -10200.881      150.2653       27002.513      538.44509      16191.586      1.3302586      0.70016973   
   2192900  -10050.842     -10204.198      153.35522      27458.37       549.51718      16220.752      1.3278667      0.70016973   
   2193000  -10052.943     -10203.167      150.22478      26725.508      538.29988      16255.774      1.3250059      0.7144811    
   2193100  -10053.671     -10201.327      147.65597      30478.651      529.0951       16293.361      1.3219492      0.7144811    
   2193200  -10057.456     -10206.044      148.58835      32194.758      532.43609      16335.715      1.3185218      0.7144811    
   2193300  -10057.797     -10206.158      148.36155      25501.658      531.62338      16369.255      1.3158202      0.7144811    
   2193400  -10059.205     -10207.735      148.53027      27773.775      532.22796      16384.045      1.3146324      0.7144811    
   2193500  -10057.447     -10208.03       150.5827       27630.094      539.58243      16375.798      1.3152945      0.7144811    
   2193600  -10054.702     -10205.492      150.78997      27723.119      540.32513      16343.706      1.3178772      0.7144811    
   2193700  -10053.493     -10201.288      147.79494      29678.73       529.59306      16294.379      1.3218667      0.7144811    
   2193800  -10049.532     -10200.945      151.41277      32077.487      542.5568       16229.116      1.3271824      0.7144811    
   2193900  -10047.505     -10201.805      154.30018      32181.928      552.90326      16167.629      1.3322298      0.7144811    
   2194000  -10048.394     -10200.766      152.37169      37506.075      545.99291      16126.154      1.3356561      0.69821985   
   2194100  -10053.207     -10205.577      152.37085      31452.417      545.98989      16109.479      1.3370386      0.69821985   
   2194200  -10050.788     -10200.132      149.34422      30843.886      535.1446       16114.148      1.3366513      0.69821985   
   2194300  -10051.888     -10201.393      149.50512      29812.838      535.72113      16147.776      1.3338677      0.69821985   
   2194400  -10051.227     -10201.87       150.64209      30852.683      539.79525      16202.163      1.3293902      0.69821985   
   2194500  -10051.02      -10204.383      153.36327      28997.424      549.54602      16269.194      1.3239129      0.69821985   
   2194600  -10051.046     -10200.872      149.82605      29626.019      536.87113      16339.921      1.3181824      0.69821985   
   2194700  -10051.463     -10202.143      150.67976      27756.111      539.93022      16400.823      1.3132875      0.69821985   
   2194800  -10050.711     -10198.981      148.26987      31025.541      531.29487      16440.447      1.3101223      0.69821985   
   2194900  -10053.009     -10203.111      150.10172      25553.163      537.85894      16454.467      1.309006       0.69821985   
   2195000  -10050.251     -10200.806      150.55506      29018.676      539.48339      16439.282      1.3102151      0.76007316   
   2195100  -10051.274     -10204.255      152.98131      30174.993      548.17736      16402.455      1.3131569      0.76007316   
   2195200  -10053.52      -10204.299      150.77915      32323.636      540.28635      16345.553      1.3177282      0.76007316   
   2195300  -10050.867     -10204.297      153.42966      27372.947      549.78394      16280.214      1.3230168      0.76007316   
   2195400  -10051.704     -10201.801      150.09707      28523.541      537.84228      16220.03       1.3279258      0.76007316   
   2195500  -10051.407     -10203.953      152.54587      31037.347      546.61705      16179.696      1.3312361      0.76007316   
   2195600  -10053.32      -10206.619      153.29962      33744.454      549.31797      16159.422      1.3329064      0.76007316   
   2195700  -10054.394     -10203.684      149.29017      31018.319      534.95091      16153.324      1.3334095      0.76007316   
   2195800  -10054.271     -10205.22       150.94834      32326.312      540.89263      16161.172      1.332762       0.76007316   
   2195900  -10053.595     -10205.032      151.43696      28084.347      542.64351      16184.713      1.3308235      0.76007316   
   2196000  -10054.859     -10207.365      152.50537      27706.342      546.47193      16214.88       1.3283476      0.78181841   
   2196100  -10053.559     -10205.984      152.42519      28296.969      546.1846       16242.735      1.3260695      0.78181841   
   2196200  -10051.33      -10202.216      150.88647      29665.357      540.67094      16262.683      1.324443       0.78181841   
   2196300  -10053.327     -10203.574      150.24671      32717.695      538.37846      16271.841      1.3236976      0.78181841   
   2196400  -10054.012     -10208.599      154.58789      30215.957      553.93422      16275.565      1.3233947      0.78181841   
   2196500  -10054.052     -10204.079      150.027        26316.283      537.59121      16268.169      1.3239964      0.78181841   
   2196600  -10054.575     -10202.534      147.95857      30824.403      530.1794       16249.501      1.3255174      0.78181841   
   2196700  -10053.924     -10203.865      149.94087      31857.827      537.28256      16226.112      1.3274281      0.78181841   
   2196800  -10051.148     -10201.287      150.13916      35426.486      537.99311      16203.98       1.3292411      0.78181841   
   2196900  -10049.329     -10199.375      150.04588      29711.999      537.65884      16189.863      1.3304002      0.78181841   
   2197000  -10052.084     -10202.709      150.62504      31452.86       539.73413      16184.176      1.3308677      0.80808242   
   2197100  -10053.29      -10201.278      147.98766      29118.27       530.28363      16183.401      1.3309314      0.80808242   
   2197200  -10052.754     -10204.454      151.70007      32280.678      543.58629      16195.903      1.329904       0.80808242   
   2197300  -10051.011     -10199.865      148.85447      29692.842      533.38969      16222.963      1.3276857      0.80808242   
   2197400  -10051.147     -10200.208      149.06121      30582.899      534.13049      16258.438      1.3247888      0.80808242   
   2197500  -10053.334     -10203.24       149.90565      27564.98       537.15635      16293.601      1.3219298      0.80808242   
   2197600  -10052.259     -10201.435      149.17603      28418.129      534.54192      16319.162      1.3198592      0.80808242   
   2197700  -10052.059     -10201.25       149.19128      24081.026      534.59656      16336.66       1.3184455      0.80808242   
   2197800  -10049.103     -10196.941      147.83787      25638.407      529.74689      16339.539      1.3182132      0.80808242   
   2197900  -10046.91      -10198.854      151.94358      33326.853      544.45887      16329.457      1.3190271      0.80808242   
   2198000  -10051.213     -10204.789      153.57673      28571.915      550.31094      16310.888      1.3205288      0.73629655   
   2198100  -10049.357     -10201.709      152.35209      27779.799      545.92268      16285.568      1.3225818      0.73629655   
   2198200  -10050.013     -10200.625      150.61229      32099.653      539.68846      16261.973      1.3245008      0.73629655   
   2198300  -10050.776     -10203.195      152.4187       30091          546.16134      16245.144      1.3258729      0.73629655   
   2198400  -10053.299     -10201.271      147.97168      29447.744      530.22637      16235.681      1.3266457      0.73629655   
   2198500  -10056.948     -10207.024      150.0766       29625.927      537.7689       16237.823      1.3264707      0.73629655   
   2198600  -10056.217     -10205.221      149.00355      29821.679      533.92386      16246.948      1.3257257      0.73629655   
   2198700  -10052.007     -10204.792      152.78503      27235.762      547.47404      16259.145      1.3247312      0.73629655   
   2198800  -10049.67      -10201.801      152.13064      31055.097      545.12917      16273.235      1.3235842      0.73629655   
   2198900  -10056.728     -10205.906      149.17863      30957.394      534.55122      16292.048      1.3220558      0.73629655   
   2199000  -10056.969     -10207.695      150.72599      27018.975      540.09588      16308.949      1.3206858      0.76869521   
   2199100  -10055.708     -10203.054      147.34593      28690.846      527.98413      16317.244      1.3200143      0.76869521   
   2199200  -10062.617     -10206.951      144.33389      28649.77       517.1911       16315.681      1.3201408      0.76869521   
   2199300  -10058.804     -10204.296      145.49242      31574.747      521.34244      16299.394      1.32146        0.76869521   
   2199400  -10058.603     -10207.741      149.13772      29232.734      534.40465      16274.324      1.3234956      0.76869521   
   2199500  -10053.429     -10205.396      151.96657      30596.655      544.54123      16243.29       1.3260243      0.76869521   
   2199600  -10056.74      -10205.894      149.15425      28838.075      534.46386      16219.757      1.3279481      0.76869521   
   2199700  -10057.07      -10206.426      149.3558       29560.637      535.18609      16204.933      1.329163       0.76869521   
   2199800  -10056.113     -10205.042      148.92944      30119.482      533.6583       16198.604      1.3296823      0.76869521   
   2199900  -10062.141     -10208.232      146.09146      30434.631      523.48897      16206.176      1.329061       0.76869521   
   2200000  -10061.839     -10212.099      150.25988      30550.345      538.42567      16220.387      1.3278966      0.83782861   
   2200100  -10063.779     -10208.552      144.77262      28501.765      518.76319      16232.848      1.3268772      0.83782861   
   2200200  -10065.932     -10212.406      146.47419      29635.544      524.86041      16245.628      1.3258334      0.83782861   
   2200300  -10064.324     -10208.074      143.74983      29955.098      515.09822      16248.359      1.3256106      0.83782861   
   2200400  -10059.05      -10206.59       147.53966      29615.668      528.6783       16245.763      1.3258224      0.83782861   
   2200500  -10061.867     -10207.678      145.81147      28855.722      522.48571      16243.821      1.3259809      0.83782861   
   2200600  -10058.731     -10209.106      150.37456      29948.665      538.83658      16241.363      1.3261816      0.83782861   
   2200700  -10058.334     -10206.842      148.50836      30021.674      532.14945      16239.237      1.3263552      0.83782861   
   2200800  -10057.14      -10208.657      151.51696      32437.504      542.93017      16245.384      1.3258533      0.83782861   
   2200900  -10061.431     -10207.381      145.94973      28441.69       522.98113      16257.829      1.3248384      0.83782861   
   2200934  -10060.566     -10210.733      150.16715      30366.393      538.09339      16263.783      1.3243534      0.83782861   
Loop time of 10920 on 1 procs for 2000000 steps with 2160 atoms

Performance: 7.912 ns/day, 3.033 hours/ns, 183.149 timesteps/s, 395.603 katom-step/s
99.8% CPU use with 1 MPI tasks x 1 OpenMP threads

MPI task timing breakdown:
Section |  min time  |  avg time  |  max time  |%varavg| %total
---------------------------------------------------------------
Pair    | 8872.8     | 8872.8     | 8872.8     |   0.0 | 81.25
Neigh   | 89.515     | 89.515     | 89.515     |   0.0 |  0.82
Comm    | 96.685     | 96.685     | 96.685     |   0.0 |  0.89
Output  | 7.1436     | 7.1436     | 7.1436     |   0.0 |  0.07
Modify  | 1808.7     | 1808.7     | 1808.7     |   0.0 | 16.56
Other   |            | 45.17      |            |       |  0.41

Nlocal:           2160 ave        2160 max        2160 min
Histogram: 1 0 0 0 0 0 0 0 0 0
Nghost:           6032 ave        6032 max        6032 min
Histogram: 1 0 0 0 0 0 0 0 0 0
Neighs:              0 ave           0 max           0 min
Histogram: 1 0 0 0 0 0 0 0 0 0
FullNghs:       331360 ave      331360 max      331360 min
Histogram: 1 0 0 0 0 0 0 0 0 0

Total # of neighbors = 331360
Ave neighs/atom = 153.40741
Neighbor list builds = 200000
Dangerous builds = 200000
Total wall time: 3:20:23
