LAMMPS (7 Feb 2024 - Update 1)
KOKKOS mode with Kokkos version 4.2.0 is enabled (src/KOKKOS/kokkos.cpp:72)
  will use up to 2 GPU(s) per node
  using 1 OpenMP thread(s) per MPI task
package kokkos
package kokkos newton on neigh half

units		metal						## E in [eV], t in [ps], P in [10000 Pa], l in [A]
atom_style	atomic						## mass x y z vx vy vz

neighbor	0.5 bin						## neighbor list, skin = 0.5 Angstrom
neigh_modify	every 2 delay 10 check yes			## update of neighbor list

############################## main variables
variable        seed equal 8010

variable	temperature equal 290
variable	tempDamp equal 0.1

variable        pressure equal 0
variable        pressureDamp equal 1.0 				# This is 1 ps

##############################

read_data water.dat
Reading data file ...
  orthogonal box = (0 0 0) to (18.207572 23.629178 22.213196)
  1 by 2 by 1 MPI processor grid
  reading atoms ...
  864 atoms
  read_data CPU = 0.010 seconds

mass		1 1.008    # H
mass		2 15.9994  # O


pair_style	pace/extrapolation
ACE/AL version: 2023.11.25
pair_coeff	* * /home/cicn/cicn607503/pd/pot_dir/interim_potential_ladder_step_5.yaml /home/cicn/cicn607503/pd/pot_dir/interim_potential_ladder_step_5.asi H O
Loading /home/cicn/cicn607503/pd/pot_dir/interim_potential_ladder_step_5.yaml
Total number of basis functions
	H: 24 (r=1) 863 (r>1)
	O: 24 (r=1) 863 (r>1)
Mapping LAMMPS atom type #1(H) -> ACE species type #0
Mapping LAMMPS atom type #2(O) -> ACE species type #1
Loading ASI /home/cicn/cicn607503/pd/pot_dir/interim_potential_ladder_step_5.asi
LINEAR ASI is loaded

fix pace_gamma all pair 1000 pace/extrapolation gamma 1
compute max_pace_gamma all reduce max f_pace_gamma
variable dump_skip equal "c_max_pace_gamma < 10"

dump pace_dump all custom 1000 extrapolative_structures.dump id type x y z f_pace_gamma
dump_modify pace_dump skip v_dump_skip
dump_modify pace_dump element H O

variable max_pace_gamma equal c_max_pace_gamma

timestep	0.0005						## timestep = 0.0005*ps = 0.5 fs

thermo		100
thermo_style custom step etotal pe ke press temp vol density c_max_pace_gamma


min_style cg/kk
minimize 0.0 5.0e-4 10000 100000
Switching to 'neigh_modify every 1 delay 0 check yes' setting during minimization
Neighbor list info ...
  update: every = 1 steps, delay = 0 steps, check = yes
  max neighbors/atom: 2000, page size: 100000
  master list distance cutoff = 6.5
  ghost atom cutoff = 6.5
  binsize = 6.5, bins = 3 4 4
  1 neighbor lists, perpetual/occasional/extra = 1 0 0
  (1) pair pace/extrapolation/kk, perpetual
      attributes: full, newton on, kokkos_device
      pair build: full/bin/kk/device
      stencil: full/bin/3d
      bin: kk/device
WARNING: Fix with atom-based arrays not compatible with sending data in Kokkos communication, switching to classic exchange/border communication (src/KOKKOS/comm_kokkos.cpp:666)
WARNING: Fix with atom-based arrays not compatible with Kokkos sorting on device, switching to classic host sorting (src/KOKKOS/atom_kokkos.cpp:218)
Per MPI rank memory allocation (min/avg/max) = 449.3 | 453 | 456.7 Mbytes
   Step         TotEng         PotEng         KinEng         Press           Temp          Volume        Density     c_max_pace_gamma
         0  -4180.7249     -4180.7249      0              931.57303      0              9556.7825      0.90151666     0.51848278   
       100  -4182.8568     -4182.8568      0             -5818.1351      0              9556.7825      0.90151666     0.51848278   
       191  -4182.8571     -4182.8571      0             -5809.5218      0              9556.7825      0.90151666     0.51848278   
Loop time of 0.666514 on 2 procs for 191 steps with 864 atoms

99.6% CPU use with 2 MPI tasks x 1 OpenMP threads

Minimization stats:
  Stopping criterion = force tolerance
  Energy initial, next-to-last, final = 
      -4180.7249004513  -4182.85708343912  -4182.85708344366
  Force two-norm initial, final = 6.5563152 0.00040677855
  Force max component initial, final = 0.28078875 3.622429e-05
  Final line search alpha, max atom move = 1 3.622429e-05
  Iterations, force evaluations = 191 382

MPI task timing breakdown:
Section |  min time  |  avg time  |  max time  |%varavg| %total
---------------------------------------------------------------
Pair    | 0.46122    | 0.46228    | 0.46334    |   0.2 | 69.36
Neigh   | 0          | 0          | 0          |   0.0 |  0.00
Comm    | 0.066571   | 0.067552   | 0.068534   |   0.4 | 10.14
Output  | 0.00015187 | 0.00015259 | 0.00015331 |   0.0 |  0.02
Modify  | 0.089025   | 0.089404   | 0.089783   |   0.1 | 13.41
Other   |            | 0.04713    |            |       |  7.07

Nlocal:            432 ave         436 max         428 min
Histogram: 1 0 0 0 0 0 0 0 0 1
Nghost:           2169 ave        2174 max        2164 min
Histogram: 1 0 0 0 0 0 0 0 0 1
Neighs:              0 ave           0 max           0 min
Histogram: 2 0 0 0 0 0 0 0 0 0
FullNghs:        45636 ave       46083 max       45189 min
Histogram: 1 0 0 0 0 0 0 0 0 1

Total # of neighbors = 91272
Ave neighs/atom = 105.63889
Neighbor list builds = 0
Dangerous builds = 0

################## equilibration of main calculation
# Equilibrate to specified number of ice

fix             3 all nph aniso ${pressure} ${pressure} ${pressureDamp}
fix             3 all nph aniso 0 ${pressure} ${pressureDamp}
fix             3 all nph aniso 0 0 ${pressureDamp}
fix             3 all nph aniso 0 0 1
fix             4 all temp/csvr ${temperature} ${temperature} ${tempDamp} ${seed}
fix             4 all temp/csvr 290 ${temperature} ${tempDamp} ${seed}
fix             4 all temp/csvr 290 290 ${tempDamp} ${seed}
fix             4 all temp/csvr 290 290 0.1 ${seed}
fix             4 all temp/csvr 290 290 0.1 8010
velocity 	all create ${temperature} ${seed} dist gaussian
velocity 	all create 290 ${seed} dist gaussian
velocity 	all create 290 8010 dist gaussian

run 200000
WARNING: Fix with atom-based arrays not compatible with sending data in Kokkos communication, switching to classic exchange/border communication (src/KOKKOS/comm_kokkos.cpp:666)
WARNING: Fix with atom-based arrays not compatible with Kokkos sorting on device, switching to classic host sorting (src/KOKKOS/atom_kokkos.cpp:218)
Per MPI rank memory allocation (min/avg/max) = 453.3 | 454.9 | 456.4 Mbytes
   Step         TotEng         PotEng         KinEng         Press           Temp          Volume        Density     c_max_pace_gamma
       191  -4150.5071     -4182.8571      32.349936     -2193.9181      290            9556.7825      0.90151666     0.51848278   
       200  -4150.0813     -4172.972       22.890664     -8809.2081      205.20264      9556.5848      0.9015353      0.51848278   
       300  -4143.4229     -4162.6851      19.262193     -2525.079       172.67533      9533.1652      0.90375006     0.51848278   
       400  -4137.1758     -4157.8955      20.719765     -2528.0239      185.74169      9482.3547      0.90859274     0.51848278   
       500  -4131.7322     -4155.3396      23.607406      1225.0055      211.62785      9407.6075      0.91581187     0.51848278   
       600  -4128.5664     -4154.4615      25.895133      2082.1248      232.13612      9335.1554      0.92291967     0.51848278   
       700  -4126.2383     -4153.9037      27.665413     -50.531262      248.00574      9292.3422      0.9271719      0.51848278   
       800  -4123.9685     -4153.1363      29.167797      420.29738      261.47381      9295.2331      0.92688354     0.51848278   
       900  -4123.2514     -4151.7632      28.511804      1652.0102      255.59318      9344.0767      0.92203851     0.51848278   
      1000  -4121.3999     -4150.4247      29.024832      1853.8522      260.1922       9434.1674      0.91323359     0.69270109   
      1100  -4119.9657     -4151.3123      31.346583      1714.7479      281.00547      9543.3635      0.90278428     0.69270109   
      1200  -4119.1703     -4149.0933      29.923078     -1644.8387      268.2445       9648.6048      0.89293725     0.69270109   
      1300  -4119.4777     -4148.8565      29.37885      -243.28131      263.36579      9731.6113      0.88532087     0.69270109   
      1400  -4117.9601     -4148.5506      30.590489      268.30848      274.22749      9779.342       0.88099983     0.69270109   
      1500  -4117.8852     -4147.928       30.042777     -943.68086      269.31754      9787.945       0.88022548     0.69270109   
      1600  -4118.3502     -4149.5609      31.210781     -3800.3175      279.78807      9766.0979      0.88219458     0.69270109   
      1700  -4117.4276     -4149.4421      32.014522     -546.39998      286.99318      9717.1441      0.88663897     0.69270109   
      1800  -4117.3001     -4148.7282      31.428124      1249.643       281.73644      9652.7528      0.89255353     0.69270109   
      1900  -4115.856      -4147.3989      31.542802     -932.00499      282.76447      9586.3212      0.89873878     0.69270109   
      2000  -4116.1268     -4148.2628      32.135952      530.90872      288.08174      9533.6149      0.90370743     0.65893491   
      2100  -4115.011      -4147.0088      31.997771      481.45462      286.84302      9503.1226      0.90660711     0.65893491   
      2200  -4115.7811     -4147.2137      31.43261       1605.9602      281.77666      9499.1357      0.90698763     0.65893491   
      2300  -4116.0562     -4147.5464      31.49024       238.92712      282.29328      9517.3461      0.90525221     0.65893491   
      2400  -4115.3391     -4147.2946      31.955572     -624.80224      286.46473      9550.9567      0.90206655     0.65893491   
      2500  -4115.9547     -4147.2869      31.332194      2054.6376      280.87648      9597.7933      0.89766453     0.65893491   
      2600  -4115.9839     -4148.349       32.365105     -2095.4637      290.13598      9646.3099      0.89314968     0.65893491   
      2700  -4115.9999     -4147.9362      31.936308     -1444.3475      286.29204      9690.7664      0.88905234     0.65893491   
      2800  -4115.5097     -4147.0084      31.498689      1518.0457      282.36901      9722.4936      0.88615112     0.65893491   
      2900  -4114.3836     -4147.1771      32.793513     -1379.7036      293.97643      9736.2369      0.88490026     0.65893491   
      3000  -4113.8508     -4145.8262      31.97533      -3161.1235      286.64185      9729.7419      0.88549097     0.83132587   
      3100  -4113.9178     -4146.4325      32.514676     -1307.455       291.4768       9707.6901      0.88750244     0.83132587   
      3200  -4114.828      -4147.5028      32.674751     -262.85351      292.91179      9676.0397      0.89040547     0.83132587   
      3300  -4114.0427     -4146.7346      32.691939      1381.881       293.06587      9638.6256      0.89386174     0.83132587   
      3400  -4113.1577     -4146.3827      33.224995      1817.667       297.84443      9601.9811      0.89727302     0.83132587   
      3500  -4113.7455     -4146.4696      32.724046     -287.1543       293.35369      9572.9366      0.89999536     0.83132587   
      3600  -4114.9033     -4147.5358      32.632446      1667.9685      292.53255      9556.0852      0.90158243     0.83132587   
      3700  -4114.2452     -4146.4967      32.251516      464.77124      289.11771      9553.7137      0.90180624     0.83132587   
      3800  -4114.8145     -4147.0891      32.274586      196.64549      289.32452      9566.3538      0.90061467     0.83132587   
      3900  -4115.7491     -4148.4396      32.690518     -972.86923      293.05313      9591.241       0.89827777     0.83132587   
      4000  -4116.6362     -4147.1453      30.509161     -2184.5806      273.49842      9618.3975      0.89574158     0.75462662   
      4100  -4117.1788     -4148.4985      31.319678     -318.91967      280.76428      9642.762       0.89347829     0.75462662   
      4200  -4116.1161     -4148.4772      32.361152      1788.4121      290.10054      9656.0894      0.89224511     0.75462662   
      4300  -4116.7893     -4149.5452      32.755938      40.3648        293.63959      9660.7426      0.89181535     0.75462662   
      4400  -4115.9739     -4147.5356      31.561697     -1880.3933      282.93386      9653.0877      0.89252257     0.75462662   
      4500  -4116.3972     -4147.5246      31.127345      867.91755      279.04012      9637.6887      0.89394863     0.75462662   
      4600  -4116.2614     -4147.6726      31.411255      412.35841      281.58522      9615.3712      0.8960235      0.75462662   
      4700  -4115.8913     -4147.7656      31.874302      1306.817       285.73619      9586.2378      0.89874659     0.75462662   
      4800  -4115.1816     -4147.8597      32.67805      -545.80668      292.94136      9557.8384      0.90141706     0.75462662   
      4900  -4114.4694     -4146.7106      32.24121      -452.27747      289.02532      9539.2326      0.90317523     0.75462662   
      5000  -4114.8264     -4147.3971      32.570763      2794.1696      291.97959      9537.9832      0.90329354     0.78738944   
      5100  -4114.5524     -4146.5235      31.971036     -2076.3979      286.60336      9551.8185      0.90198516     0.78738944   
      5200  -4115.4257     -4147.7503      32.324598      0.93795059     289.77285      9580.8086      0.89925589     0.78738944   
      5300  -4116.3434     -4147.9261      31.582751      343.73487      283.12259      9623.5741      0.89525975     0.78738944   
      5400  -4115.1041     -4146.3899      31.285761     -1173.5358      280.46023      9670.6995      0.89089715     0.78738944   
      5500  -4115.5953     -4146.9012      31.305938     -1720.5459      280.64111      9707.1602      0.88755088     0.78738944   
      5600  -4115.6126     -4147.8241      32.211477      147.80765      288.75878      9723.0603      0.88609947     0.78738944   
      5700  -4115.8147     -4147.8245      32.009838     -291.86632      286.9512       9714.2798      0.8869004      0.78738944   
      5800  -4115.2228     -4148.244       33.021186      1073.092       296.01739      9686.789       0.88941739     0.78738944   
      5900  -4114.7198     -4147.0819      32.362094     -1574.5854      290.10899      9643.5657      0.89340384     0.78738944   
      6000  -4115.1382     -4148.3913      33.253179      246.60997      298.09709      9594.1863      0.89800201     0.72489581   
      6100  -4114.7593     -4148.4703      33.711019     -399.33789      302.20138      9544.5689      0.90267027     0.72489581   
      6200  -4114.2828     -4147.0577      32.774932      142.33934      293.80986      9506.0755      0.90632549     0.72489581   
      6300  -4115.046      -4148.0328      32.986877      421.58319      295.70983      9488.9729      0.90795902     0.72489581   
      6400  -4115.4932     -4147.3418      31.84865       2341.789       285.50623      9495.6003      0.90732532     0.72489581   
      6500  -4114.9665     -4147.3413      32.374774      2203.6235      290.22265      9528.5922      0.90418379     0.72489581   
      6600  -4114.1174     -4146.1755      32.05819      -560.0224       287.38464      9583.8892      0.89896684     0.72489581   
      6700  -4114.689      -4148.5432      33.854168      144.99045      303.48463      9652.0655      0.89261709     0.72489581   
      6800  -4114.3825     -4146.9998      32.617324     -367.26484      292.39698      9724.0086      0.88601306     0.72489581   
      6900  -4114.2505     -4145.7522      31.50174      -112.90181      282.39637      9783.3711      0.880637       0.72489581   
      7000  -4113.7752     -4146.5971      32.821878     -431.07159      294.23071      9813.9807      0.87789031     0.66968708   
      7100  -4113.814      -4145.6606      31.84657      -2265.6853      285.48759      9812.0781      0.87806054     0.66968708   
      7200  -4113.1647     -4146.3475      33.182809     -1710.9026      297.46626      9779.1164      0.88102015     0.66968708   
      7300  -4112.6833     -4145.2583      32.574905     -1380.8977      292.01672      9719.7755      0.88639893     0.66968708   
      7400  -4112.9412     -4145.3388      32.397611     -1580.4695      290.42738      9644.4058      0.89332601     0.66968708   
      7500  -4114.0285     -4147.6593      33.630799      1689.0996      301.48226      9567.3117      0.9005245      0.66968708   
      7600  -4114.6449     -4147.5706      32.925701      3079.5162      295.16142      9505.4135      0.90638862     0.66968708   
      7700  -4114.0903     -4147.4575      33.36729       233.98185      299.12003      9472.9877      0.90949116     0.66968708   
      7800  -4114.3821     -4146.7217      32.339621      3412.059       289.90753      9475.1103      0.90928742     0.66968708   
      7900  -4114.4953     -4146.7884      32.293082     -2134.6434      289.49033      9514.3605      0.90553628     0.66968708   
      8000  -4113.7011     -4146.3553      32.654202      1478.6631      292.72758      9581.9316      0.8991505      0.72594773   
      8100  -4113.2304     -4146.79        33.559598     -275.5428       300.84397      9662.6816      0.8916364      0.72594773   
      8200  -4112.8378     -4146.2119      33.37412      -1920.3048      299.18126      9737.6233      0.88477427     0.72594773   
      8300  -4113.7836     -4145.5117      31.728151      318.77919      284.42602      9791.6153      0.87989554     0.72594773   
      8400  -4114.4666     -4146.1336      31.666968     -624.70177      283.87755      9815.5096      0.87775357     0.72594773   
      8500  -4114.278      -4146.6784      32.400446     -2603.4476      290.45279      9814.6411      0.87783124     0.72594773   
      8600  -4114.0394     -4146.2149      32.175513     -1545.1094      288.43638      9791.4278      0.87991238     0.72594773   
      8700  -4113.9988     -4146.8262      32.827363      1244.1846      294.27988      9747.5233      0.88387566     0.72594773   
      8800  -4112.979      -4146.5292      33.550228      195.75458      300.75998      9688.0183      0.88930453     0.72594773   
      8900  -4112.5674     -4145.8076      33.240271      1740.5149      297.98138      9628.1091      0.89483807     0.72594773   
      9000  -4112.6162     -4145.646       33.029849      1666.9575      296.09505      9576.6538      0.89964603     0.77614598   
      9100  -4113.4988     -4145.4926      31.993828      4014.2936      286.80767      9537.4653      0.90334259     0.77614598   
      9200  -4114.3146     -4148.5053      34.190679     -600.66166      306.50128      9522.2795      0.90478321     0.77614598   
      9300  -4116.0556     -4148.5468      32.491203      2085.1925      291.26638      9527.9375      0.90424592     0.77614598   
      9400  -4116.6955     -4148.7475      32.05201       1724.9631      287.32925      9551.4005      0.90202464     0.77614598   
      9500  -4115.8673     -4148.3533      32.486015      1026.9693      291.21987      9590.4434      0.89835247     0.77614598   
      9600  -4116.3968     -4147.3203      30.923549     -1117.4017      277.21319      9637.5449      0.89396196     0.77614598   
      9700  -4115.5581     -4146.764       31.205918     -1727.4999      279.74448      9682.8838      0.8897761      0.77614598   
      9800  -4115.1644     -4146.2949      31.130501     -1594.4233      279.06841      9710.2671      0.8872669      0.77614598   
      9900  -4113.9158     -4146.0379      32.122117     -907.9052       287.95772      9717.3787      0.88661756     0.77614598   
     10000  -4113.7671     -4147.9205      34.15343       1535.9682      306.16736      9708.2622      0.88745013     0.78440242   
     10100  -4113.2645     -4146.5553      33.290813     -939.27748      298.43446      9689.4864      0.88916979     0.78440242   
     10200  -4113.5789     -4146.0211      32.442121     -814.50156      290.82639      9664.841       0.89143718     0.78440242   
     10300  -4114.2808     -4147.1104      32.829559      636.91666      294.29956      9631.6119      0.89451264     0.78440242   
     10400  -4114.6241     -4147.5664      32.942359      916.63238      295.31075      9596.1058      0.89782238     0.78440242   
     10500  -4113.7797     -4146.8782      33.09856       1064.9507      296.71101      9566.0733      0.90064108     0.78440242   
     10600  -4113.3435     -4145.8871      32.54356      -399.41293      291.73573      9548.0448      0.90234166     0.78440242   
     10700  -4113.7069     -4146.0697      32.362851      922.04526      290.11577      9546.1975      0.90251627     0.78440242   
     10800  -4112.3555     -4145.8364      33.480882      96.990593      300.13832      9560.1228      0.90120167     0.78440242   
     10900  -4115.2269     -4147.4975      32.270658     -529.57927      289.28931      9590.5435      0.89834311     0.78440242   
     11000  -4114.9085     -4146.3101      31.401543     -1366.6895      281.49816      9628.2629      0.89482378     0.66287581   
     11100  -4115.1842     -4147.3564      32.172268     -1252.5452      288.4073       9670.9094      0.89087781     0.66287581   
     11200  -4114.6472     -4147.0654      32.418152     -520.10616      290.61152      9711.5215      0.88715229     0.66287581   
     11300  -4113.4497     -4146.1748      32.725043     -2286.6023      293.36263      9742.752       0.88430852     0.66287581   
     11400  -4114.127      -4146.7089      32.581892     -1273.7639      292.07936      9756.249       0.88308514     0.66287581   
     11500  -4114.4914     -4146.0777      31.586288     -2353.2767      283.1543       9748.3307      0.88380245     0.66287581   
     11600  -4115.7742     -4147.9144      32.140171     -2407.8155      288.11956      9714.2369      0.88690431     0.66287581   
     11700  -4116.5866     -4148.266       31.679453      416.07311      283.98947      9656.3449      0.89222151     0.66287581   
     11800  -4115.5083     -4147.5556      32.047248      1507.5344      287.28656      9584.9988      0.89886277     0.66287581   
     11900  -4114          -4148.8014      34.801416      410.22876      311.97621      9517.9344      0.90519626     0.66287581   
     12000  -4112.9942     -4145.8304      32.836201      1808.967       294.3591       9469.9937      0.90977871     0.76992723   
     12100  -4113.3462     -4147.2594      33.913263     -836.99359      304.01439      9454.3242      0.91128656     0.76992723   
     12200  -4112.8509     -4146.2046      33.353684     -1461.4069      298.99806      9472.6626      0.90952238     0.76992723   
     12300  -4113.5892     -4147.0122      33.422996      34.523949      299.61941      9522.4178      0.90477006     0.76992723   
     12400  -4114.0499     -4147.1502      33.100309      1272.6809      296.72669      9593.5458      0.89806196     0.76992723   
     12500  -4113.6916     -4146.6015      32.909878      2496.2178      295.01958      9670.3363      0.89093061     0.76992723   
     12600  -4113.6246     -4146.9331      33.308466     -2024.4917      298.5927       9741.5755      0.88441532     0.76992723   
     12700  -4113.6235     -4146.7629      33.139384     -1374.5211      297.07697      9791.1589      0.87993655     0.76992723   
     12800  -4112.3547     -4145.3743      33.019547     -2641.7605      296.0027       9811.1016      0.87814793     0.76992723   
     12900  -4112.5856     -4145.1641      32.578514     -2147.0919      292.04908      9798.2339      0.87930117     0.76992723   
     13000  -4113.5152     -4145.4422      31.926937     -746.47302      286.20804      9751.9591      0.88347361     0.65210358   
     13100  -4113.0112     -4146.0881      33.07694      -36.286719      296.5172       9675.3756      0.89046657     0.65210358   
     13200  -4114.2522     -4146.577       32.324872     -1330.4567      289.77531      9581.9908      0.89914494     0.65210358   
     13300  -4114.0577     -4147.6597      33.601996      2256.0256      301.22405      9492.2042      0.90764994     0.65210358   
     13400  -4114.4157     -4147.308       32.892347      595.8476       294.86242      9425.1561      0.91410673     0.65210358   
     13500  -4113.9487     -4148.3441      34.395452      3776.5117      308.33696      9395.4646      0.91699548     0.65210358   
     13600  -4114.5148     -4147.8261      33.311291      1435.8968      298.61803      9407.4692      0.91582533     0.65210358   
     13700  -4114.999      -4147.493       32.493997      4600.9311      291.29142      9457.5217      0.91097846     0.65210358   
     13800  -4115.5206     -4147.6136      32.092993      3464.6122      287.69664      9534.9075      0.90358491     0.65210358   
     13900  -4114.8448     -4147.5343      32.689529     -2131.1594      293.04426      9620.4514      0.89555034     0.65210358   
     14000  -4113.5852     -4145.9885      32.403271     -1937.0617      290.47812      9694.5485      0.8887055      0.70483985   
     14100  -4113.0458     -4144.9084      31.862602     -2477.8876      285.63131      9744.3336      0.88416499     0.70483985   
     14200  -4114.1258     -4146.6525      32.52674      -4007.6382      291.58495      9770.2816      0.88181681     0.70483985   
     14300  -4116.4499     -4147.292       30.842109      150.36691      276.48313      9766.2859      0.8821776      0.70483985   
     14400  -4116.8214     -4148.2947      31.47337      -1453.0857      282.14205      9733.1665      0.88517941     0.70483985   
     14500  -4116.537      -4147.4376      30.900662     -719.27172      277.00803      9681.408       0.88991173     0.70483985   
     14600  -4116.5389     -4148.4593      31.920433     -1982.3054      286.14973      9624.2009      0.89520145     0.70483985   
     14700  -4117.1679     -4149.1798      32.011879     -1862.1735      286.9695       9571.0365      0.90017404     0.70483985   
     14800  -4116.8515     -4149.0619      32.210357      313.64122      288.74875      9527.8355      0.90425559     0.70483985   
     14900  -4115.923      -4147.033       31.109939      2496.8897      278.88408      9499.2618      0.90697559     0.70483985   
     15000  -4115.4771     -4147.3528      31.875637      1861.9054      285.74816      9490.19        0.90784259     0.78106924   
     15100  -4116.5202     -4148.9283      32.408143      913.27519      290.52179      9503.6763      0.9065543      0.78106924   
     15200  -4118.2928     -4149.4864      31.193567      479.14138      279.63376      9533.8331      0.90368675     0.78106924   
     15300  -4117.038      -4148.7931      31.755141      497.86867      284.66798      9569.272       0.90034002     0.78106924   
     15400  -4116.1564     -4147.7223      31.565866      290.42264      282.97123      9604.3972      0.8970473      0.78106924   
     15500  -4116.0723     -4148.7358      32.663511     -1308.2635      292.81103      9637.7521      0.89394274     0.78106924   
     15600  -4115.4012     -4145.8483      30.447115      456.85913      272.94221      9661.1459      0.89177813     0.78106924   
     15700  -4114.9549     -4146.4182      31.463254      1711.6334      282.05137      9672.7019      0.89071271     0.78106924   
     15800  -4115.5068     -4146.7992      31.292447      2314.6895      280.52017      9668.6057      0.89109008     0.78106924   
     15900  -4117.1882     -4148.9927      31.804527     -2017.2464      285.11069      9649.0119      0.89289957     0.78106924   
     16000  -4116.492      -4147.5381      31.046059     -1155.5176      278.31143      9617.8004      0.89579719     0.76414734   
     16100  -4116.3713     -4147.2637      30.89236      -1787.8749      276.9336       9579.8635      0.8993446      0.76414734   
     16200  -4116.3265     -4149.2005      32.873933      578.91029      294.69735      9542.6361      0.9028531      0.76414734   
     16300  -4115.6445     -4148.5367      32.892148     -782.39598      294.86064      9517.2846      0.90525806     0.76414734   
     16400  -4115.574      -4148.749       33.175015      1637.4219      297.39639      9508.0998      0.90613254     0.76414734   
     16500  -4115.6319     -4148.0092      32.3773       -487.08346      290.2453       9514.7639      0.90549789     0.76414734   
     16600  -4115.842      -4146.2646      30.42263       1642.5265      272.72272      9532.8557      0.9037794      0.76414734   
     16700  -4114.7866     -4147.4907      32.704142     -993.76131      293.17526      9557.4292      0.90145565     0.76414734   
     16800  -4113.2732     -4145.7732      32.499993      3533.298       291.34518      9583.6534      0.89898896     0.76414734   
     16900  -4114.0284     -4147.6723      33.643856      803.60853      301.5993       9615.7504      0.89598817     0.76414734   
     17000  -4113.9221     -4147.742       33.819878      876.71051      303.17725      9642.6201      0.89349145     0.69512528   
     17100  -4114.164      -4147.0788      32.914732      1272.0621      295.06309      9659.5014      0.89192995     0.69512528   
     17200  -4113.0071     -4145.8804      32.873368      159.09088      294.69229      9664.2837      0.89148858     0.69512528   
     17300  -4114.5105     -4147.3625      32.85191      -1874.8405      294.49992      9660.9749      0.89179391     0.69512528   
     17400  -4116.4177     -4148.0729      31.655215     -1920.5767      283.77219      9646.3162      0.8931491      0.69512528   
     17500  -4115.5296     -4148.2478      32.718221      726.10535      293.30148      9618.9329      0.89569172     0.69512528   
     17600  -4116.4937     -4147.6072      31.113573     -2440.5043      278.91666      9585.6975      0.89879725     0.69512528   
     17700  -4117.3808     -4148.0351      30.654316      1638.2831      274.79967      9554.8802      0.90169614     0.69512528   
     17800  -4117.143      -4149.3939      32.250976      1350.9661      289.11287      9529.3464      0.90411223     0.69512528   
     17900  -4117.9514     -4149.6883      31.736923      118.09269      284.50466      9510.5439      0.90589967     0.69512528   
     18000  -4117.4534     -4148.8589      31.405519      1686.0385      281.5338       9505.8702      0.90634507     0.69126951   
     18100  -4117.954      -4149.1889      31.234891      1230.5247      280.00421      9519.479       0.90504938     0.69126951   
     18200  -4117.4767     -4147.8337      30.357065      1875.7335      272.13497      9550.3223      0.90212647     0.69126951   
     18300  -4117.7823     -4149.6977      31.915437     -862.04267      286.10495      9590.0786      0.89838665     0.69126951   
     18400  -4117.1056     -4149.2475      32.141925     -2550.7602      288.13529      9630.4563      0.89461998     0.69126951   
     18500  -4117.5858     -4148.2826      30.696727     -850.38884      275.17985      9659.1918      0.89195853     0.69126951   
     18600  -4117.4425     -4148.6195      31.176989      1385.4172      279.48515      9672.9858      0.89068657     0.69126951   
     18700  -4117.8937     -4148.6625      30.76882       2.2729635      275.82613      9670.6218      0.8909043      0.69126951   
     18800  -4118.1171     -4149.2278      31.110756      905.54157      278.8914       9658.2088      0.89204932     0.69126951   
     18900  -4117.6566     -4148.2049      30.548272     -750.16781      273.84904      9631.7264      0.89450201     0.69126951   
     19000  -4116.9353     -4149.2184      32.283099      1890.2158      289.40084      9595.9976      0.89783251     0.67608563   
     19100  -4115.8193     -4147.6005      31.781159      937.32047      284.90121      9560.6356      0.90115333     0.67608563   
     19200  -4115.6245     -4148.5512      32.926669      114.50584      295.1701       9535.9642      0.90348479     0.67608563   
     19300  -4116.2688     -4147.9601      31.691297      879.34306      284.09565      9526.6847      0.90436483     0.67608563   
     19400  -4116.7137     -4148.3522      31.638547      1229.227       283.62277      9529.7545      0.90407351     0.67608563   
     19500  -4116.0244     -4147.9096      31.885139      1367.2567      285.83334      9546.23        0.9025132      0.67608563   
     19600  -4115.7658     -4147.3126      31.546846     -244.54775      282.80072      9574.0973      0.89988626     0.67608563   
     19700  -4115.1762     -4147.1038      31.927599      227.90802      286.21397      9606.1827      0.89688057     0.67608563   
     19800  -4114.3158     -4146.9146      32.598828      228.2146       292.23118      9638.3106      0.89389095     0.67608563   
     19900  -4113.7508     -4148.4746      34.723759      209.30608      311.28006      9666.2362      0.89130851     0.67608563   
     20000  -4114.2799     -4146.9437      32.663769     -1476.2475      292.81334      9686.7366      0.8894222      0.88248745   
     20100  -4114.0523     -4145.994       31.941747     -1964.9423      286.3408       9690.9135      0.88903885     0.88248745   
     20200  -4113.8839     -4145.9403      32.056392     -1248.9962      287.36853      9674.1282      0.8905814      0.88248745   
     20300  -4113.9124     -4146.3559      32.443461     -15.746185      290.8384       9638.76        0.89384927     0.88248745   
     20400  -4113.1249     -4147.4632      34.338299      1212.0199      307.82462      9593.2487      0.89808977     0.88248745   
     20500  -4115.3065     -4147.9431      32.636604      443.06393      292.56983      9556.1405      0.90157722     0.88248745   
     20600  -4115.5708     -4149.7218      34.150949      1319.88        306.14512      9531.4741      0.9039104      0.88248745   
     20700  -4115.5425     -4147.2281      31.685592      193.46348      284.04451      9519.4096      0.90505598     0.88248745   
     20800  -4115.0802     -4147.7956      32.71544       1303.8355      293.27654      9520.5876      0.90494399     0.88248745   
     20900  -4115.328      -4148.2978      32.969773      1606.6911      295.55651      9533.7768      0.90369208     0.88248745   
     21000  -4114.9753     -4146.2274      31.252165      234.51449      280.15906      9553.647       0.90181253     0.66104019   
     21100  -4115.9651     -4146.9446      30.979544     -202.13075      277.71516      9581.2888      0.89921082     0.66104019   
     21200  -4116.0696     -4147.8136      31.743954     -643.26796      284.56769      9611.5983      0.89637523     0.66104019   
     21300  -4114.9739     -4148.3644      33.390534     -1882.6069      299.32841      9639.7375      0.89375863     0.66104019   
     21400  -4113.7642     -4148.2216      34.457414     -3165.8902      308.89242      9661.2141      0.89177183     0.66104019   
     21500  -4113.8793     -4146.7779      32.898639      872.36709      294.91883      9673.8635      0.89060577     0.66104019   
     21600  -4115.1686     -4146.942       31.773329      2550.3997      284.83102      9677.6658      0.89025585     0.66104019   
     21700  -4115.2705     -4147.2945      32.024031      2847.9266      287.07843      9666.2758      0.89130486     0.66104019   
     21800  -4114.122      -4146.9679      32.845923      1683.8582      294.44625      9638.7462      0.89385055     0.66104019   
     21900  -4113.0875     -4145.4953      32.407855     -927.32125      290.51921      9601.8981      0.89728078     0.66104019   
     22000  -4112.7824     -4146.3896      33.607175     -643.62937      301.27048      9567.5628      0.90050087     0.7032421    
     22100  -4112.6434     -4146.342       33.698541      2906.7016      302.08952      9542.8778      0.90283023     0.7032421    
     22200  -4112.9829     -4146.2696      33.286683     -1606.3364      298.39743      9533.5689      0.90371179     0.7032421    
     22300  -4111.2852     -4145.7402      34.454975      456.41577      308.87055      9539.6827      0.90313261     0.7032421    
     22400  -4111.5788     -4145.1436      33.564794      1219.5345      300.89055      9566.2937      0.90062033     0.7032421    
     22500  -4113.4185     -4145.629       32.210513      108.54596      288.75014      9604.1901      0.89706665     0.7032421    
     22600  -4113.6698     -4146.811       33.141169      588.05615      297.09298      9643.3083      0.89342768     0.7032421    
     22700  -4114.6842     -4146.895       32.210833     -3901.0094      288.75301      9674.9748      0.89050347     0.7032421    
     22800  -4114.2062     -4147.7031      33.496835     -970.25759      300.28133      9690.6134      0.88906638     0.7032421    
     22900  -4115.3022     -4146.6035      31.301315     -1265.8506      280.59967      9685.9816      0.88949153     0.7032421    
     23000  -4114.2615     -4147.1182      32.856699     -1399.9985      294.54285      9665.1529      0.89140841     0.74469799   
     23100  -4115.8291     -4146.2996      30.470464     -1546.0407      273.15153      9633.097       0.89437474     0.74469799   
     23200  -4114.4387     -4147.8671      33.428343      737.23134      299.66734      9594.2916      0.89799216     0.74469799   
     23300  -4114.2447     -4147.3525      33.10783       1319.9687      296.79411      9559.9413      0.90121878     0.74469799   
     23400  -4114.7291     -4148.0309      33.301843     -331.78161      298.53334      9532.0556      0.90385526     0.74469799   
     23500  -4114.7095     -4147.517       32.807513     -1190.659       294.10193      9513.0615      0.90565993     0.74469799   
     23600  -4117.0261     -4149.282       32.255812      800.12357      289.15622      9506.295       0.90630457     0.74469799   
     23700  -4116.7846     -4148.9667      32.182105      1722.3574      288.49548      9511.7979      0.90578024     0.74469799   
     23800  -4115.557      -4148.6308      33.07382       3412.8767      296.48923      9528.974       0.90414756     0.74469799   
     23900  -4115.942      -4148.6716      32.729564      2077.2521      293.40316      9553.5805      0.90181881     0.74469799   
     24000  -4116.1999     -4148.0192      31.819241     -1046.8435      285.24259      9581.3217      0.89920773     0.68324883   
     24100  -4117.2913     -4148.808       31.516727      361.02897      282.53072      9606.1321      0.89688529     0.68324883   
     24200  -4117.807      -4147.6389      29.831979     -214.81373      267.42784      9621.7427      0.89543016     0.68324883   
     24300  -4116.1117     -4148.1573      32.0456       -65.233727      287.27179      9630.9098      0.89457785     0.68324883   
     24400  -4116.5636     -4146.8717      30.308072      941.78281      271.69577      9631.8438      0.89449111     0.68324883   
     24500  -4115.7279     -4147.1314      31.40354       609.8127       281.51606      9627.0954      0.89493229     0.68324883   
     24600  -4115.3231     -4146.3882      31.065116      2943.4997      278.48226      9613.7394      0.89617559     0.68324883   
     24700  -4114.8541     -4147.6351      32.781005      393.78536      293.8643       9602.2428      0.89724856     0.68324883   
     24800  -4115.1247     -4147.7579      32.633262     -1162.8986      292.53986      9595.0505      0.89792113     0.68324883   
     24900  -4115.5047     -4147.5962      32.091525      846.14319      287.68348      9589.9724      0.8983966      0.68324883   
     25000  -4117.1268     -4149.488       32.3612        1162.0494      290.10097      9585.3         0.89883453     0.70557162   
     25100  -4115.4573     -4147.1946      31.737376     -1255.6309      284.50872      9576.5662      0.89965426     0.70557162   
     25200  -4115.0785     -4148.5813      33.502795      3671.4203      300.33476      9572.9447      0.89999461     0.70557162   
     25300  -4114.9546     -4147.6072      32.652625     -472.56752      292.71344      9574.8936      0.89981141     0.70557162   
     25400  -4114.7904     -4146.3796      31.589189     -1146.9915      283.1803       9582.3017      0.89911577     0.70557162   
     25500  -4115.1082     -4146.4535      31.345322      1522.489       280.99416      9594.4003      0.89798198     0.70557162   
     25600  -4114.6746     -4146.281       31.606429     -1407.5385      283.33485      9607.3482      0.89677177     0.70557162   
     25700  -4115.126      -4148.7116      33.585666     -2570.9002      301.07766      9619.8872      0.89560287     0.70557162   
     25800  -4114.3839     -4147.2494      32.865481     -1260.7744      294.62158      9625.5694      0.89507418     0.70557162   
     25900  -4114.0583     -4145.9345      31.876181     -956.24465      285.75303      9627.6335      0.89488227     0.70557162   
     26000  -4113.0274     -4144.6532      31.625854     -2437.5085      283.50898      9623.9323      0.89522643     0.67276704   
     26100  -4113.7997     -4147.3728      33.573143     -1494.2649      300.96539      9615.2269      0.89603695     0.67276704   
     26200  -4112.9811     -4146.9545      33.973403      2048.3019      304.55351      9608.0916      0.89670238     0.67276704   
     26300  -4113.2169     -4146.8562      33.639327      4563.9478      301.5587       9609.6258      0.89655922     0.67276704   
     26400  -4114.2884     -4146.9828      32.694351     -3027.6204      293.08749      9614.36        0.89611774     0.67276704   
     26500  -4115.1197     -4147.559       32.439303     -2091.3801      290.80112      9616.6672      0.89590275     0.67276704   
     26600  -4115.8142     -4148.6255      32.811339      1232.1147      294.13623      9615.3691      0.8960237      0.67276704   
     26700  -4115.2194     -4146.9986      31.779223     -462.84036      284.88386      9612.199       0.89631921     0.67276704   
     26800  -4114.5901     -4148.0509      33.460721      924.89081      299.9576       9608.8491      0.89663169     0.67276704   
     26900  -4114.5824     -4146.0393      31.456861     -1894.7935      281.99405      9601.7335      0.89729616     0.67276704   
     27000  -4114.0394     -4147.3177      33.278305      844.80573      298.32233      9591.1433      0.89828693     0.67172071   
     27100  -4114.6334     -4147.3674      32.734033      982.38479      293.44322      9581.0196      0.89923609     0.67172071   
     27200  -4114.72       -4147.9244      33.204396      955.1445       297.65977      9575.9795      0.89970938     0.67172071   
     27300  -4114.1395     -4147.1658      33.026282      1689.3959      296.06308      9576.7158      0.89964021     0.67172071   
     27400  -4114.3086     -4146.5129      32.204219      1264.3183      288.69372      9587.8375      0.89859664     0.67172071   
     27500  -4114.5059     -4146.8542      32.348277     -4.372268       289.98512      9604.8483      0.89700517     0.67172071   
     27600  -4113.6946     -4145.8694      32.174766     -1893.4083      288.42969      9622.3547      0.89537321     0.67172071   
     27700  -4115.0054     -4146.4261      31.420638     -3076.1437      281.66933      9634.5528      0.89423959     0.67172071   
     27800  -4115.0315     -4147.9725      32.940983      1176.8492      295.29842      9640.7336      0.89366629     0.67172071   
     27900  -4116.5691     -4149.2902      32.721093     -18.808746      293.32722      9643.2461      0.89343345     0.67172071   
     28000  -4117.1603     -4149.748       32.58768      -772.02534      292.13125      9639.1152      0.89381633     0.69860323   
     28100  -4115.9981     -4147.8406      31.842451      1397.339       285.45066      9627.1299      0.89492909     0.69860323   
     28200  -4115.6819     -4148.3849      32.702998      585.05526      293.16501      9610.2344      0.89650244     0.69860323   
     28300  -4115.2672     -4147.0647      31.797491     -1074.4646      285.04762      9586.6177      0.89871098     0.69860323   
     28400  -4114.9854     -4147.1129      32.127487      80.379085      288.00586      9560.671       0.90114999     0.69860323   
     28500  -4115.6908     -4149.1327      33.441906     -1277.0475      299.78893      9539.7482      0.90312641     0.69860323   
     28600  -4115.9897     -4147.7368      31.747079      922.25744      284.5957       9525.4695      0.90448021     0.69860323   
     28700  -4115.2322     -4148.3227      33.090511      1179.6816      296.63886      9519.6094      0.90503699     0.69860323   
     28800  -4116.4454     -4149.3402      32.894849      1640.0589      294.88485      9525.5921      0.90446856     0.69860323   
     28900  -4115.7649     -4148.1749      32.409989      1809.481       290.53834      9540.12        0.90309121     0.69860323   
     29000  -4115.3662     -4148.259       32.892809     -2607.4028      294.86657      9559.3099      0.9012783      0.7855143    
     29100  -4114.534      -4146.4142      31.880217     -1333.885       285.78922      9580.6905      0.89926698     0.7855143    
     29200  -4115.3671     -4147.8196      32.452473      489.39339      290.91918      9605.22        0.89697046     0.7855143    
     29300  -4115.0308     -4147.4979      32.467084      22.358774      291.05017      9627.892       0.89485825     0.7855143    
     29400  -4115.7542     -4148.409       32.654805     -1389.3724      292.73298      9645.021       0.89326903     0.7855143    
     29500  -4114.7521     -4147.2908      32.538715     -590.00153      291.69229      9646.8508      0.8930996      0.7855143    
     29600  -4116.1147     -4148.6206      32.505962     -2510.193       291.39869      9638.3703      0.89388541     0.7855143    
     29700  -4116.9072     -4149.4084      32.501184     -225.13883      291.35585      9619.673       0.89562281     0.7855143    
     29800  -4117.0819     -4148.2903      31.208399      212.00173      279.76673      9590.9233      0.89830753     0.7855143    
     29900  -4116.1806     -4147.639       31.45847      -927.2672       282.00848      9561.5775      0.90106455     0.7855143    
     30000  -4115.5536     -4148.2577      32.70404       962.06624      293.17435      9537.6275      0.90332723     0.69174637   
     30100  -4113.1301     -4146.3606      33.230503      1569.9515      297.89381      9524.2836      0.90459283     0.69174637   
     30200  -4114.4217     -4146.7583      32.336631      3368.9498      289.88072      9526.0783      0.9044224      0.69174637   
     30300  -4114.6946     -4146.7357      32.041131      2632.0165      287.23173      9537.723       0.90331818     0.69174637   
     30400  -4113.4267     -4147.6362      34.209478      1433.7905      306.66981      9559.1807      0.90129048     0.69174637   
     30500  -4114.0436     -4147.6522      33.608569      1124.2772      301.28297      9587.4463      0.89863331     0.69174637   
     30600  -4114.5189     -4146.9821      32.463225     -215.15031      291.01557      9618.9095      0.8956939      0.69174637   
     30700  -4113.3811     -4145.6827      32.3016       -1698.2749      289.56669      9645.219       0.8932507      0.69174637   
     30800  -4113.9424     -4146.448       32.505596      559.68298      291.3954       9662.9114      0.89161519     0.69174637   
     30900  -4113.1306     -4147.41        34.279395      321.2543       307.29657      9669.4558      0.89101174     0.69174637   
     31000  -4113.0048     -4145.5124      32.507624      1476.8561      291.41358      9664.1473      0.89150117     0.81920675   
     31100  -4112.8788     -4146.2677      33.38891      -3678.6846      299.31385      9652.5863      0.89256892     0.81920675   
     31200  -4112.7089     -4146.8444      34.135482      1752.891       306.00647      9634.856       0.89421146     0.81920675   
     31300  -4113.1768     -4147.0694      33.892601     -1835.1908      303.82917      9615.9813      0.89596666     0.81920675   
     31400  -4115.1534     -4146.7971      31.643779     -3213.2995      283.66968      9596.9022      0.89774788     0.81920675   
     31500  -4114.7746     -4147.3152      32.540652      1904.1627      291.70967      9575.8143      0.8997249      0.81920675   
     31600  -4116.019      -4149.4238      33.404787     -84.486112      299.45617      9558.1498      0.90138769     0.81920675   
     31700  -4115.9943     -4148.4273      32.433011      867.21177      290.74472      9547.2024      0.90242128     0.81920675   
     31800  -4116.0981     -4148.7741      32.675991     -1201.8845      292.92291      9546.3723      0.90249975     0.81920675   
     31900  -4115.1718     -4146.5902      31.418423     -803.39141      281.64948      9550.9238      0.90206966     0.81920675   
     32000  -4114.4463     -4147.3489      32.902593     -604.60703      294.95427      9562.4096      0.90098615     0.72126103   
     32100  -4113.9197     -4147.704       33.784265      1380.7792      302.85799      9577.446       0.89957162     0.72126103   
     32200  -4113.0312     -4146.1036      33.072402     -1224.9297      296.47652      9596.3607      0.89779853     0.72126103   
     32300  -4113.3482     -4145.644       32.295724      833.15398      289.51402      9619.441       0.89564441     0.72126103   
     32400  -4113.1633     -4146.6229      33.459647     -403.79744      299.94797      9640.1428      0.89372106     0.72126103   
     32500  -4114.255      -4146.7386      32.483607     -686.09562      291.19829      9656.6977      0.89218891     0.72126103   
     32600  -4115.339      -4147.5339      32.194902     -2418.9795      288.6102       9663.2433      0.89158457     0.72126103   
     32700  -4114.3868     -4147.4889      33.102133     -1433.4812      296.74304      9655.4017      0.89230866     0.72126103   
     32800  -4115.0255     -4147.6961      32.670617      9.7332508      292.87473      9634.4906      0.89424536     0.72126103   
     32900  -4114.6943     -4148.0132      33.318921     -642.21626      298.68644      9600.4514      0.89741599     0.72126103   
     33000  -4114.0582     -4147.087       33.028802     -134.72923      296.08567      9560.2685      0.90118793     0.70353579   
     33100  -4114.9212     -4146.928       32.006846      2446.2849      286.92438      9528.4902      0.90419347     0.70353579   
     33200  -4113.2459     -4146.5572      33.311356      350.17519      298.61861      9509.2168      0.9060261      0.70353579   
     33300  -4114.4252     -4146.6731      32.247912      3753.2585      289.0854       9503.1985      0.90659988     0.70353579   
     33400  -4113.4438     -4146.7037      33.259844      3499.8242      298.15683      9510.7302      0.90588193     0.70353579   
     33500  -4113.6907     -4147.2837      33.592916     -78.299133      301.14266      9537.0161      0.90338514     0.70353579   
     33600  -4115.248      -4148.5258      33.277785     -2331.0518      298.31767      9579.3026      0.89939726     0.70353579   
     33700  -4113.4789     -4146.6743      33.19544      -2735.715       297.57949      9624.5301      0.89517083     0.70353579   
     33800  -4114.3736     -4146.4887      32.115111      1110.3662      287.89492      9664.2143      0.89149498     0.70353579   
     33900  -4114.3876     -4146.6652      32.277633     -4860.5106      289.35184      9692.4109      0.8889015      0.70353579   
     34000  -4115.1198     -4148.1275      33.007747     -375.2998       295.89692      9702.2967      0.88799578     0.66043212   
     34100  -4113.5075     -4147.5849      34.077413      2363.1518      305.48591      9686.5523      0.88943912     0.66043212   
     34200  -4114.4631     -4146.7675      32.304378     -777.31049      289.59159      9651.3202      0.89268602     0.66043212   
     34300  -4115.1885     -4147.7464      32.557889      850.48045      291.86419      9600.3276      0.89742756     0.66043212   
     34400  -4114.6877     -4147.1687      32.481031     -367.66625      291.17519      9531.0648      0.90394922     0.66043212   
     34500  -4113.4904     -4147.3293      33.83885      -938.14369      303.34732      9461.2398      0.91062047     0.66043212   
     34600  -4114.8685     -4148.6672      33.798692      88.166022      302.98733      9408.9856      0.91567773     0.66043212   
     34700  -4115.7685     -4147.3788      31.610278     -115.56012      283.36936      9384.4485      0.91807191     0.66043212   
     34800  -4116.7554     -4148.3262      31.570856      2754.3552      283.01596      9393.294       0.91720738     0.66043212   
     34900  -4117.9443     -4149.3655      31.42116       511.03171      281.67401      9435.55        0.91309978     0.66043212   
     35000  -4117.7104     -4149.4782      31.767858      890.4346       284.78198      9502.2271      0.90669255     0.67766803   
     35100  -4116.4354     -4147.7381      31.302722      2624.9803      280.61228      9581.1571      0.89922318     0.67766803   
     35200  -4115.2445     -4148.262       33.017526     -163.32122      295.98459      9657.6598      0.89210003     0.67766803   
     35300  -4114.4091     -4148.4136      34.004515     -550.9227       304.83242      9717.7778      0.88658115     0.67766803   
     35400  -4113.8231     -4145.0696      31.246463     -2002.5799      280.10795      9752.4786      0.88342655     0.67766803   
     35500  -4113.968      -4145.9491      31.981117     -843.63847      286.69373      9756.8519      0.88303058     0.67766803   
     35600  -4113.6815     -4146.8459      33.164327     -670.36597      297.30058      9731.5388      0.88532747     0.67766803   
     35700  -4114.5294     -4146.8227      32.293274      1780.699       289.49205      9676.4266      0.89036986     0.67766803   
     35800  -4113.4867     -4147.6017      34.114949      300.33581      305.8224       9605.3163      0.89696147     0.67766803   
     35900  -4114.6538     -4147.4107      32.756886     -1201.5065      293.64809      9534.7173      0.90360294     0.67766803   
     36000  -4114.0667     -4146.366       32.299333      385.36141      289.54637      9478.8404      0.9089296      0.70472486   
     36100  -4113.0293     -4146.388       33.358716      1661.4725      299.04317      9448.9317      0.91180663     0.70472486   
     36200  -4113.2208     -4145.669       32.448262      4721.7739      290.88143      9449.0413      0.91179605     0.70472486   
     36300  -4114.9712     -4148.2995      33.328356      754.18729      298.77101      9477.5161      0.9090566      0.70472486   
     36400  -4113.9558     -4146.5959      32.640052     -885.40081      292.60073      9520.2587      0.90497526     0.70472486   
     36500  -4114.687      -4148.2414      33.554352      3987.6082      300.79695      9574.5532      0.89984341     0.70472486   
     36600  -4114.0559     -4146.3203      32.264349      591.63723      289.23275      9633.0128      0.89438255     0.70472486   
     36700  -4115.065      -4147.6804      32.615376     -2101.3493      292.37952      9685.5546      0.88953074     0.70472486   
     36800  -4115.239      -4148.1563      32.917242     -1212.7646      295.08559      9723.7791      0.88603397     0.70472486   
     36900  -4115.2345     -4146.8813      31.646816     -765.03866      283.6969       9740.6055      0.88450339     0.70472486   
     37000  -4115.9598     -4146.3851      30.42527      -423.44681      272.74638      9730.5962      0.88541323     0.70579223   
     37100  -4115.4915     -4146.8866      31.395123      17.065358      281.4406       9696.0563      0.8885673      0.70579223   
     37200  -4115.1608     -4148.0785      32.917706      584.88144      295.08975      9646.8696      0.89309786     0.70579223   
     37300  -4114.577      -4148.4312      33.854263     -960.58076      303.48549      9599.0794      0.89754426     0.70579223   
     37400  -4114.7267     -4146.4583      31.731533      2509.3075      284.45635      9559.9328      0.90121957     0.70579223   
     37500  -4115.3707     -4148.1203      32.74952       2412.8998      293.58205      9530.633       0.90399017     0.70579223   
     37600  -4115.9055     -4147.9579      32.052367      2434.3215      287.33244      9511.5979      0.90579928     0.70579223   
     37700  -4116.6539     -4148.0114      31.357446      1562.4733      281.10285      9504.8469      0.90644265     0.70579223   
     37800  -4116.5874     -4149.5639      32.976461      2731.8799      295.61646      9514.6378      0.90550988     0.70579223   
     37900  -4117.7535     -4149.2007      31.447208      3591.2986      281.90752      9538.5688      0.90323808     0.70579223   
     38000  -4118.234      -4149.4116      31.177616     -1021.0553      279.49077      9572.4947      0.90003691     0.6984354    
     38100  -4118.2576     -4150.2419      31.984299     -441.46263      286.72225      9606.7583      0.89682683     0.6984354    
     38200  -4118.1449     -4149.8247      31.679868      244.08245      283.99319      9634.8994      0.89420742     0.6984354    
     38300  -4118.9303     -4150.0199      31.089556     -958.32818      278.70136      9651.1709      0.89269983     0.6984354    
     38400  -4119.7638     -4150.3846      30.620779     -972.35192      274.49902      9649.0583      0.89289527     0.6984354    
     38500  -4119.1926     -4148.3578      29.16515      -1368.7129      261.45008      9630.3422      0.89463057     0.6984354    
     38600  -4118.8815     -4148.6076      29.726076     -2105.1065      266.47849      9598.8745      0.89756342     0.6984354    
     38700  -4118.9309     -4149.3807      30.449764      1509.4177      272.96596      9562.9407      0.90093611     0.6984354    
     38800  -4118.2256     -4149.1076      30.88198       1615.7575      276.84055      9529.7574      0.90407323     0.6984354    
     38900  -4119.2931     -4150.5719      31.278787      254.62278      280.39771      9509.149       0.90603256     0.6984354    
     39000  -4118.9616     -4149.879       30.917307      624.70359      277.15723      9499.2637      0.90697541     0.63840653   
     39100  -4117.0838     -4149.0949      32.011184      996.56547      286.96326      9503.6678      0.90655511     0.63840653   
     39200  -4116.6984     -4147.6234      30.925051      2000.4272      277.22666      9522.1935      0.90479138     0.63840653   
     39300  -4115.2562     -4147.7634      32.507178     -2108.5047      291.40958      9556.7907      0.90151588     0.63840653   
     39400  -4114.6933     -4147.504       32.810673      1267.5129      294.13026      9600.4191      0.89741901     0.63840653   
     39500  -4114.8391     -4147.147       32.307881     -1279.4709      289.62299      9644.493       0.89331794     0.63840653   
     39600  -4115.1696     -4148.5677      33.398142     -360.20591      299.39661      9685.5592      0.88953033     0.63840653   
     39700  -4115.8864     -4147.4634      31.577023     -2274.6733      283.07124      9715.7149      0.88676939     0.63840653   
     39800  -4115.8659     -4146.9341      31.068193     -1831.6242      278.50985      9724.2282      0.88599305     0.63840653   
     39900  -4115.1582     -4146.7639      31.605701      1852.4374      283.32832      9708.6807      0.88741188     0.63840653   
     40000  -4116.9951     -4148.4301      31.434989     -136.62487      281.79798      9675.6006      0.89044587     0.67373702   
     40100  -4117.9844     -4148.8155      30.831116     -1344.662       276.38458      9624.5572      0.89516831     0.67373702   
     40200  -4118.9976     -4148.7958      29.798249     -1905.6273      267.12547      9564.4336      0.90079549     0.67373702   
     40300  -4118.5679     -4150.0734      31.505517     -1518.5605      282.43022      9506.2531      0.90630856     0.67373702   
     40400  -4117.8049     -4149.4199      31.615008      1576.7118      283.41176      9457.811       0.9109506      0.67373702   
     40500  -4118.0084     -4149.0433      31.03494       3508.151       278.21176      9435.7349      0.91308188     0.67373702   
     40600  -4117.5064     -4148.4842      30.977784      1467.8003      277.69939      9444.9581      0.91219024     0.67373702   
     40700  -4116.3488     -4148.9379      32.589104     -1326.5556      292.14401      9483.958       0.90843913     0.67373702   
     40800  -4116.6617     -4148.6146      31.952835     -194.31047      286.4402       9542.5715      0.90285921     0.67373702   
     40900  -4117.0778     -4148.2628      31.185015      4021.7814      279.5571       9613.7867      0.89617118     0.67373702   
     41000  -4117.0516     -4148.6716      31.619992     -1746.3347      283.45644      9687.9871      0.8893074      0.75939322   
     41100  -4115.8491     -4147.6573      31.808192     -199.78831      285.14355      9749.4151      0.88370415     0.75939322   
     41200  -4115.4373     -4147.1522      31.714884     -880.85553      284.30709      9786.8948      0.88031994     0.75939322   
     41300  -4114.8051     -4147.2433      32.438169     -3181.8874      290.79095      9794.504       0.87963603     0.75939322   
     41400  -4115.0813     -4146.1805      31.099229     -393.11139      278.78808      9769.8728      0.88185372     0.75939322   
     41500  -4115.5726     -4146.9389      31.366237      369.66206      281.18165      9714.0192      0.88692419     0.75939322   
     41600  -4114.238      -4146.7986      32.560649      607.94468      291.88893      9637.7841      0.89393978     0.75939322   
     41700  -4113.3427     -4147.1912      33.848538      832.03293      303.43416      9557.407       0.90145775     0.75939322   
     41800  -4114.0866     -4147.7466      33.660054      1616.2157      301.74451      9489.2218      0.90793521     0.75939322   
     41900  -4113.9236     -4147.5242      33.600631      1125.9166      301.21181      9441.5896      0.91251568     0.75939322   
     42000  -4113.172      -4146.9608      33.788834     -637.74633      302.89896      9419.9138      0.91461544     0.77498172   
     42100  -4113.4457     -4148.5817      35.135997      1426.009       314.97555      9437.2039      0.91293975     0.77498172   
     42200  -4114.3277     -4146.3671      32.039391      2514.1402      287.21612      9489.5653      0.90790235     0.77498172   
     42300  -4114.619      -4147.1623      32.543375      1958.114       291.73407      9564.1548      0.90082174     0.77498172   
     42400  -4115.3641     -4147.2682      31.904141      1533.8682      286.00368      9642.9329      0.89346246     0.77498172   
     42500  -4115.287      -4147.6495      32.362512      408.75824      290.11273      9714.6388      0.88686762     0.77498172   
     42600  -4115.1581     -4148.5206      33.362498      110.78251      299.07707      9765.8955      0.88221286     0.77498172   
     42700  -4114.8152     -4146.3131      31.497869     -2789.929       282.36167      9788.7536      0.88015277     0.77498172   
     42800  -4115.2528     -4146.795       31.542211     -2963.7965      282.75917      9778.894       0.88104018     0.77498172   
     42900  -4115.6498     -4147.0767      31.426836     -986.44443      281.7249       9738.8103      0.88466644     0.77498172   
     43000  -4115.1746     -4146.7681      31.593482     -25.026678      283.21879      9675.4006      0.89046427     0.68701651   
     43100  -4115.7193     -4147.8076      32.088254     -1082.0015      287.65415      9603.8129      0.89710188     0.68701651   
     43200  -4116.2197     -4147.9389      31.719212      3023.6277      284.34589      9533.1599      0.90375055     0.68701651   
     43300  -4115.6341     -4147.6495      32.015459      1248.5788      287.00159      9479.6517      0.90885181     0.68701651   
     43400  -4116.5554     -4148.8483      32.292858      3263.4613      289.48832      9454.6556      0.91125462     0.68701651   
     43500  -4115.7013     -4148.2691      32.567798      2597.2659      291.95301      9456.2243      0.91110345     0.68701651   
     43600  -4116.1059     -4148.3209      32.214922     -34.23694       288.78966      9480.5418      0.90876648     0.68701651   
     43700  -4114.9992     -4147.0063      32.007152     -122.37653      286.92712      9520.0073      0.90499916     0.68701651   
     43800  -4116.2637     -4148.2216      31.957951      1561.1166      286.48606      9568.1202      0.90044841     0.68701651   
     43900  -4115.0471     -4146.9911      31.943972     -3254.7077      286.36074      9614.1138      0.89614069     0.68701651   
     44000  -4114.0147     -4147.3328      33.318112      734.31536      298.67918      9655.0225      0.89234371     0.66716291   
     44100  -4115.0804     -4147.3464      32.266035     -2676.5763      289.24787      9682.5045      0.88981095     0.66716291   
     44200  -4113.0844     -4145.6911      32.606723      1102.1625      292.30195      9691.0916      0.88902251     0.66716291   
     44300  -4113.0376     -4144.8153      31.777712      90.035768      284.87031      9685.0679      0.88957544     0.66716291   
     44400  -4114.4376     -4147.1684      32.730813      1070.5454      293.41436      9669.4747      0.89100999     0.66716291   
     44500  -4114.3351     -4147.431       33.095891      1050.3024      296.68708      9645.7043      0.89320575     0.66716291   
     44600  -4113.8191     -4146.8323      33.013172      48.063404      295.94555      9621.2433      0.89547663     0.66716291   
     44700  -4113.749      -4146.9847      33.235649      1863.5463      297.93995      9598.9367      0.8975576      0.66716291   
     44800  -4114.2816     -4146.1855      31.903926     -2484.0663      286.00176      9582.3741      0.89910898     0.66716291   
     44900  -4114.0252     -4147.1974      33.172195     -14.358936      297.37111      9573.1163      0.89997848     0.66716291   
     45000  -4114.1119     -4147.5436      33.431723      1922.985       299.69764      9571.7863      0.90010352     0.64251124   
     45100  -4113.7584     -4147.6282      33.869752     -1036.598       303.62434      9581.3465      0.89920541     0.64251124   
     45200  -4115.7151     -4147.4744      31.759326      705.131        284.70549      9598.7747      0.89757275     0.64251124   
     45300  -4116.1315     -4147.6721      31.540577     -2640.6509      282.74452      9611.7396      0.89636205     0.64251124   
     45400  -4115.7566     -4147.0456      31.288995     -562.30618      280.48922      9617.6335      0.89581274     0.64251124   
     45500  -4116.3038     -4147.9225      31.618643      1897.0101      283.44435      9617.447       0.8958301      0.64251124   
     45600  -4117.4542     -4148.4418      30.987625      1198.6137      277.7876       9614.1512      0.8961372      0.64251124   
     45700  -4116.666      -4148.1463      31.480281      292.52574      282.204        9605.5235      0.89694211     0.64251124   
     45800  -4117.8736     -4149.4857      31.612058     -1360.0571      283.38531      9592.4099      0.89816831     0.64251124   
     45900  -4117.0163     -4148.1599      31.143619     -2309.3192      279.186        9576.3693      0.89967276     0.64251124   
     46000  -4115.797      -4148.3938      32.596839      1256.1402      292.21335      9563.4224      0.90089073     0.87011896   
     46100  -4115.8025     -4147.1789      31.37638       469.58049      281.27258      9553.9797      0.90178113     0.87011896   
     46200  -4116.3957     -4147.1909      30.795139      446.24526      276.06206      9547.8797      0.90235726     0.87011896   
     46300  -4115.8369     -4147.378       31.541057     -753.75843      282.74883      9543.916       0.90273202     0.87011896   
     46400  -4114.8669     -4148.1626      33.295715     -112.79807      298.4784       9548.9386      0.9022572      0.87011896   
     46500  -4115.6418     -4148.3484      32.706613      1391.3093      293.19741      9564.4334      0.9007955      0.87011896   
     46600  -4116.5578     -4148.9626      32.404856     -710.03202      290.49232      9585.7455      0.89879276     0.87011896   
     46700  -4116.6743     -4148.501       31.826708     -174.74238      285.30954      9610.6196      0.89646651     0.87011896   
     46800  -4115.4076     -4146.9955      31.587933      2128.57        283.16905      9632.4351      0.8944362      0.87011896   
     46900  -4115.4182     -4147.243       31.824764     -631.39961      285.29211      9646.1386      0.89316554     0.87011896   
     47000  -4116.0322     -4148.1792      32.147042     -536.50693      288.18116      9646.9976      0.89308601     0.83079824   
     47100  -4116.5389     -4149.2091      32.670239      339.23073      292.87134      9634.1807      0.89427413     0.83079824   
     47200  -4114.9372     -4148.1392      33.201981      1689.646       297.63813      9614.1557      0.89613678     0.83079824   
     47300  -4115.1216     -4146.0796      30.958006      609.93513      277.52208      9589.2199      0.8984671      0.83079824   
     47400  -4114.4163     -4147.1009      32.68465      -1153.112       293.00053      9559.7779      0.90123418     0.83079824   
     47500  -4113.9961     -4146.1535      32.157441     -1786.17        288.27438      9528.9027      0.90415433     0.83079824   
     47600  -4115.0274     -4147.5856      32.558255      1305.066       291.86747      9507.3712      0.90620198     0.83079824   
     47700  -4115.6265     -4149.2677      33.641142      2265.0763      301.57497      9506.259       0.906308       0.83079824   
     47800  -4116.367      -4148.2894      31.922428      1010.6356      286.16762      9524.0791      0.90461225     0.83079824   
     47900  -4116.1203     -4147.682       31.561665     -125.00975      282.93357      9552.6017      0.90191121     0.83079824   
     48000  -4115.0397     -4146.6837      31.644033      158.56475      283.67195      9579.9911      0.89933263     0.66032349   
     48100  -4114.5851     -4148.1351      33.549949      1279.0348      300.75747      9601.6688      0.8973022      0.66032349   
     48200  -4114.914      -4147.1697      32.255767      844.84107      289.15582      9619.34        0.89565381     0.66032349   
     48300  -4114.7483     -4147.541       32.792627     -323.04643      293.96848      9629.1835      0.89473823     0.66032349   
     48400  -4114.6701     -4146.4525      31.782406     -3713.0959      284.91239      9625.3368      0.8950958      0.66032349   
     48500  -4114.5227     -4146.419       31.896228      864.05486      285.93274      9609.6436      0.89655756     0.66032349   
     48600  -4116.2465     -4147.9444      31.697992     -514.2768       284.15567      9584.952       0.89886716     0.66032349   
     48700  -4115.7321     -4148.1258      32.39367       135.33017      290.39205      9549.8949      0.90216685     0.66032349   
     48800  -4116.0844     -4147.8436      31.759173     -1012.4932      284.70412      9512.1866      0.90574322     0.66032349   
     48900  -4114.5258     -4147.0829      32.557087      1040.0957      291.85699      9486.114       0.90823266     0.66032349   
     49000  -4115.5178     -4148.2152      32.697386      1133.0195      293.1147       9479.7976      0.90883782     0.66668165   
     49100  -4113.89       -4146.3353      32.445307      1940.5617      290.85494      9494.4296      0.9074372      0.66668165   
     49200  -4113.5039     -4146.716       33.212057     -1441.2101      297.72845      9529.4835      0.90409922     0.66668165   
     49300  -4113.1891     -4146.4559      33.26675       1709.7791      298.21874      9574.3305      0.89986434     0.66668165   
     49400  -4113.6773     -4147.637       33.959674     -2427.8184      304.43044      9618.5232      0.89572987     0.66668165   
     49500  -4114.6299     -4147.237       32.607034     -192.43764      292.30474      9652.0745      0.89261626     0.66668165   
     49600  -4114.4531     -4147.1944      32.741286     -99.345925      293.50824      9670.1624      0.89094663     0.66668165   
     49700  -4114.8754     -4147.7983      32.922926     -25.938873      295.13655      9670.9179      0.89087703     0.66668165   
     49800  -4116.4181     -4149.1157      32.697626     -398.57732      293.11685      9655.4102      0.89230788     0.66668165   
     49900  -4116.1745     -4147.4894      31.314921     -1704.9743      280.72164      9624.6948      0.89515551     0.66668165   
     50000  -4116.6163     -4148.1407      31.524464      1324.3841      282.60008      9577.4557      0.8995707      0.76424003   
     50100  -4115.4798     -4148.3032      32.823394      1787.9616      294.24429      9526.2803      0.90440322     0.76424003   
     50200  -4115.8341     -4148.2376      32.403532     -1395.3662      290.48045      9482.1054      0.90861662     0.76424003   
     50300  -4115.3889     -4148.3232      32.934311     -449.31235      295.23861      9452.5032      0.91146211     0.76424003   
     50400  -4116.0922     -4148.6766      32.584406      1247.5283      292.1019       9445.3403      0.91215333     0.76424003   
     50500  -4115.2276     -4148.1978      32.970135      1178.9744      295.55975      9465.7116      0.91019026     0.76424003   
     50600  -4115.9226     -4147.8213      31.898751     -266.80015      285.95536      9508.0773      0.90613468     0.76424003   
     50700  -4116.1538     -4146.5082      30.354433     -1144.0074      272.11137      9557.6166      0.90143798     0.76424003   
     50800  -4116.4849     -4148.583       32.098093      954.28642      287.74236      9600.6696      0.89739559     0.76424003   
     50900  -4117.0258     -4148.883       31.857213      203.00666      285.583        9627.7562      0.89487087     0.76424003   
     51000  -4115.9351     -4148.2728      32.337778      1714.4874      289.891        9636.0801      0.89409786     0.73365202   
     51100  -4114.5854     -4145.9419      31.356497     -640.12193      281.09434      9631.1642      0.89455422     0.73365202   
     51200  -4114.8364     -4146.6222      31.785764      271.84689      284.9425       9617.1215      0.89586043     0.73365202   
     51300  -4114.7617     -4147.703       32.941325      1683.348       295.30148      9596.0746      0.89782531     0.73365202   
     51400  -4114.5043     -4148.3888      33.884467     -2732.9411      303.75625      9574.7752      0.89982255     0.73365202   
     51500  -4114.9175     -4148.1194      33.201857      854.06228      297.63702      9555.2925      0.90165723     0.73365202   
     51600  -4115.9446     -4147.9026      31.957991      3654.8136      286.48642      9540.9713      0.90301064     0.73365202   
     51700  -4115.586      -4147.556       31.970078     -854.16126      286.59477      9534.4738      0.90362602     0.73365202   
     51800  -4115.7219     -4148.0256      32.303708      1898.4178      289.58559      9536.2974      0.90345322     0.73365202   
     51900  -4115.6303     -4148.1091      32.478824      688.42037      291.15541      9541.1568      0.90299308     0.73365202   
     52000  -4115.5739     -4147.4857      31.911786      1996.1035      286.07222      9552.0524      0.90196308     0.75566495   
     52100  -4114.7457     -4147.0802      32.334535      366.58232      289.86193      9569.6002      0.90030914     0.75566495   
     52200  -4115.7082     -4148.2761      32.567936     -127.28847      291.95425      9594.1423      0.89800613     0.75566495   
     52300  -4115.498      -4147.7782      32.280179     -1746.8481      289.37466      9618.3555      0.89574549     0.75566495   
     52400  -4115.8729     -4147.8928      32.019908     -2539.9141      287.04147      9632.932       0.89439005     0.75566495   
     52500  -4116.1169     -4147.4848      31.367931      2343.2978      281.19684      9634.6234      0.89423305     0.75566495   
     52600  -4115.8813     -4148.4949      32.613618     -131.08317      292.36376      9626.1335      0.89502173     0.75566495   
     52700  -4116.5611     -4147.2154      30.654255     -600.24672      274.79912      9609.7004      0.89655226     0.75566495   
     52800  -4116.7322     -4148.3312      31.598963     -1686.2386      283.26792      9582.833       0.89906592     0.75566495   
     52900  -4115.8338     -4147.2289      31.395094     -438.96344      281.44034      9545.3308      0.90259822     0.75566495   
     53000  -4114.4264     -4147.1885      32.762077      1565.9001      293.69462      9511.9536      0.90576541     0.76147894   
     53100  -4114.2652     -4147.435       33.169712      2000.586       297.34885      9491.0889      0.9077566      0.76147894   
     53200  -4113.4546     -4147.5072      34.052589     -1713.7769      305.26338      9486.0263      0.90824106     0.76147894   
     53300  -4114.0216     -4147.1679      33.14638       649.59452      297.13969      9499.4795      0.90695481     0.76147894   
     53400  -4113.9148     -4147.0555      33.140677     -1590.4184      297.08857      9532.0171      0.90385891     0.76147894   
     53500  -4113.9419     -4146.9506      33.008692      3459.2769      295.9054       9578.348       0.8994869      0.76147894   
     53600  -4114.6458     -4147.3582      32.71241      -1260.2048      293.24938      9627.3314      0.89491036     0.76147894   
     53700  -4114.5428     -4146.1347      31.59193      -2207.1504      283.20487      9669.456       0.89101172     0.76147894   
     53800  -4113.6305     -4145.1808      31.550311     -3816.572       282.83178      9699.1954      0.88827972     0.76147894   
     53900  -4113.8072     -4145.0142      31.207044     -1969.9903      279.75458      9711.405       0.88716294     0.76147894   
     54000  -4114.8483     -4146.7291      31.880814      843.66733      285.79456      9700.9263      0.88812123     0.7623325    
     54100  -4114.1836     -4145.9354      31.751817      2500.4829      284.63818      9668.003       0.89114563     0.7623325    
     54200  -4114.2835     -4147.3724      33.088874      886.8081       296.62418      9622.7271      0.89533855     0.7623325    
     54300  -4115.1553     -4148.1145      32.959205     -1558.301       295.46177      9568.3988      0.90042219     0.7623325    
     54400  -4117.3988     -4148.2223      30.823495      751.99361      276.31626      9511.9271      0.90576794     0.7623325    
     54500  -4117.2846     -4150.446       33.161378      1112.2283      297.27414      9465.1542      0.91024387     0.7623325    
     54600  -4116.3526     -4148.7559      32.40326       2960.2587      290.47801      9439.9838      0.9126709      0.7623325    
     54700  -4116.1905     -4147.8655      31.675017      1778.6135      283.94971      9445.9967      0.91208994     0.7623325    
     54800  -4116.0647     -4148.4054      32.340688      1208.552       289.9171       9481.0367      0.90871904     0.7623325    
     54900  -4116.9615     -4148.7842      31.822633     -1535.5085      285.273        9535.0606      0.9035704      0.7623325    
     55000  -4116.6917     -4148.7323      32.040663     -1335.2591      287.22752      9598.3423      0.89761318     0.71667573   
     55100  -4118.5348     -4148.7044      30.169671     -404.86196      270.45508      9653.5076      0.89248374     0.71667573   
     55200  -4117.6232     -4148.6824      31.059182     -4575.4247      278.42907      9690.4881      0.88907787     0.71667573   
     55300  -4114.8443     -4147.39        32.545632     -180.16304      291.7543       9705.884       0.88766758     0.71667573   
     55400  -4114.9701     -4147.1534      32.183276     -1545.9414      288.50598      9706.2051      0.88763822     0.71667573   
     55500  -4115.6254     -4147.8357      32.210224     -2261.0872      288.74755      9692.3174      0.88891007     0.71667573   
     55600  -4114.3437     -4146.2096      31.865991      609.07429      285.66169      9665.0795      0.89141518     0.71667573   
     55700  -4114.222      -4146.4477      32.225663     -18.087752      288.88595      9633.0999      0.89437447     0.71667573   
[...]
    386100  -4114.4265     -4147.3724      32.945884     -284.58185      295.34235      9620.7988      0.89551801     0.68910985   
    386200  -4114.5647     -4146.4544      31.889672      484.85809      285.87397      9607.5416      0.89675371     0.68910985   
    386300  -4114.237      -4146.4501      32.213074     -1048.9898      288.7731       9601.7839      0.89729144     0.68910985   
    386400  -4114.2393     -4145.9466      31.707351      1270.4139      284.23956      9603.4299      0.89713765     0.68910985   
    386500  -4112.8051     -4146.0431      33.23797       987.85648      297.96074      9611.8405      0.89635264     0.68910985   
    386600  -4114.2212     -4146.7536      32.532437      224.93453      291.63602      9629.2753      0.8947297      0.68910985   
    386700  -4114.4891     -4146.8447      32.355557     -362.24731      290.05039      9655.4715      0.89230222     0.68910985   
    386800  -4115.3181     -4148.6564      33.338269     -41.81361       298.85988      9678.7138      0.89015945     0.68910985   
    386900  -4115.8254     -4147.2431      31.417757     -1849.8953      281.6435       9694.6851      0.88869298     0.68910985   
    387000  -4115.3269     -4147.7837      32.456778     -178.24165      290.95777      9699.4866      0.88825305     0.61349808   
    387100  -4115.1344     -4147.0207      31.886335      749.91547      285.84406      9691.4346      0.88899104     0.61349808   
    387200  -4115.0912     -4147.0495      31.958302     -205.25655      286.4892       9672.3453      0.89074555     0.61349808   
    387300  -4115.6114     -4147.6326      32.021164     -67.29568       287.05273      9645.5415      0.89322083     0.61349808   
    387400  -4116.6922     -4148.711       32.018847      2901.712       287.03196      9615.0825      0.89605041     0.61349808   
    387500  -4116.0037     -4147.2522      31.248557      1196.4212      280.12672      9588.6082      0.89852442     0.61349808   
    387600  -4115.9799     -4147.5451      31.565187      2111.8101      282.96513      9566.4948      0.9006014      0.61349808   
    387700  -4114.0501     -4147.0125      32.962442      423.39387      295.49079      9556.2755      0.90156448     0.61349808   
    387800  -4113.306      -4145.7795      32.473471      2082.795       291.10742      9558.2055      0.90138244     0.61349808   
    387900  -4113.9682     -4147.3881      33.419857      810.15674      299.59127      9574.8038      0.89981985     0.61349808   
    388000  -4113.5977     -4145.9966      32.398978      389.03256      290.43963      9599.6595      0.89749002     0.89216108   
    388100  -4113.915      -4145.339       31.423923     -1352.0545      281.69878      9628.1585      0.89483348     0.89216108   
    388200  -4116.6669     -4148.4939      31.827068     -1898.2695      285.31276      9651.2766      0.89269005     0.89216108   
    388300  -4115.2689     -4147.8232      32.5543        906.90974      291.83201      9661.8108      0.89171676     0.89216108   
    388400  -4115.5564     -4147.7545      32.198105      3503.4147      288.63891      9661.3016      0.89176375     0.89216108   
    388500  -4116.1458     -4148.3201      32.174265     -753.86426      288.4252       9649.9397      0.89281372     0.89216108   
    388600  -4116.7641     -4147.7026      30.938483     -1192.4621      277.34707      9629.0255      0.89475291     0.89216108   
    388700  -4116.7573     -4148.9333      32.175982      2171.7813      288.44059      9604.7485      0.89701449     0.89216108   
    388800  -4117.1649     -4147.9633      30.798353      1967.9613      276.09088      9579.0048      0.89942523     0.89216108   
    388900  -4116.3701     -4148.8722      32.502164      68.263418      291.36464      9562.7776      0.90095148     0.89216108   
    389000  -4116.6266     -4147.4222      30.795582     -2233.3976      276.06604      9552.9932      0.90187425     0.66758606   
    389100  -4115.0934     -4146.5508      31.457432     -43.227177      281.99917      9547.2311      0.90241856     0.66758606   
    389200  -4115.8336     -4146.1975      30.363949     -150.40384      272.19667      9550.5884      0.90210134     0.66758606   
    389300  -4115.2834     -4147.6442      32.360797     -750.06532      290.09735      9562.7574      0.90095338     0.66758606   
    389400  -4116.7553     -4147.9345      31.17919       528.81367      279.50488      9583.4806      0.89900517     0.66758606   
    389500  -4115.9019     -4148.3548      32.452926     -825.81029      290.92324      9608.069       0.89670449     0.66758606   
    389600  -4116.3738     -4148.3995      32.025763     -1523.3763      287.09395      9629.2569      0.89473141     0.66758606   
    389700  -4117.0577     -4148.5658      31.508096      754.55429      282.45335      9639.3595      0.89379368     0.66758606   
    389800  -4117.0783     -4147.6845      30.606249     -151.9331       274.36876      9635.0879      0.89418993     0.66758606   
    389900  -4117.1595     -4149.1116      31.952093     -1087.8933      286.43354      9623.7406      0.89524427     0.66758606   
    390000  -4115.9132     -4148.1069      32.193648      535.04267      288.59896      9607.5827      0.89674988     0.72354728   
    390100  -4115.0538     -4147.616       32.562246      437.52591      291.90324      9590.879       0.89831168     0.72354728   
    390200  -4114.5173     -4147.3884      32.871097      5.9240392      294.67193      9578.3721      0.89948465     0.72354728   
    390300  -4115.2541     -4148.5411      33.286993      1988.7146      298.40022      9575.9863      0.89970875     0.72354728   
    390400  -4115.9085     -4147.7769      31.868393      3604.9461      285.68322      9579.3269      0.89939499     0.72354728   
    390500  -4115.4198     -4147.9696      32.549781     -798.28517      291.7915       9589.8215      0.89841074     0.72354728   
    390600  -4116.1126     -4147.6751      31.562482      1247.5263      282.94089      9607.8957      0.89672066     0.72354728   
    390700  -4116.9569     -4147.6151      30.658201      89.699294      274.83449      9626.3014      0.89500611     0.72354728   
    390800  -4116.1345     -4148.9042      32.769735     -1899.1148      293.76327      9639.3932      0.89379055     0.72354728   
    390900  -4115.9634     -4147.6818      31.718378     -594.71021      284.33841      9646.9343      0.89309187     0.72354728   
    391000  -4116.5185     -4147.5167      30.998228     -1365.8515      277.88265      9646.4372      0.89313789     0.69948017   
    391100  -4116.5118     -4146.9075      30.395644      450.75664      272.48081      9633.0035      0.89438342     0.69948017   
    391200  -4115.9234     -4148.8869      32.963466      919.19956      295.49996      9614.3614      0.89611762     0.69948017   
    391300  -4117.0185     -4148.9925      31.97393       1730.5855      286.6293       9594.4037      0.89798166     0.69948017   
    391400  -4116.7769     -4147.619       30.842011      1266.0624      276.48225      9577.4189      0.89957416     0.69948017   
    391500  -4115.9091     -4146.9845      31.075381     -89.99205       278.57429      9569.1475      0.90035173     0.69948017   
    391600  -4116.0084     -4148.5712      32.562732      1217.4056      291.9076       9573.1549      0.89997485     0.69948017   
    391700  -4115.954      -4148.869       32.91497      -2742.1365      295.06522      9587.3711      0.89864036     0.69948017   
    391800  -4116.8022     -4147.4437      30.641566     -252.4782       274.68537      9607.6309      0.89674538     0.69948017   
    391900  -4115.4801     -4147.4178      31.937709     -1724.0416      286.3046       9631.2812      0.89454336     0.69948017   
    392000  -4116.4655     -4145.9173      29.451895      317.88491      264.0206       9651.4321      0.89267567     0.75800392   
    392100  -4115.5948     -4148.1685      32.573781      1025.6465      292.00665      9668.3756      0.89111128     0.75800392   
    392200  -4115.7907     -4148.4334      32.642632     -1813.6519      292.62386      9677.2389      0.89029512     0.75800392   
    392300  -4115.5741     -4147.928       32.353928     -2533.6254      290.03578      9674.2507      0.89057012     0.75800392   
    392400  -4114.7202     -4147.0611      32.340851     -512.79838      289.91855      9660.9513      0.89179609     0.75800392   
    392500  -4115.1151     -4146.7295      31.614433     -10.135372      283.4066       9643.6121      0.89339954     0.75800392   
    392600  -4113.9856     -4145.7378      31.752184     -1006.0128      284.64147      9622.5423      0.89535575     0.75800392   
    392700  -4113.6958     -4145.8966      32.200877      670.05902      288.66376      9602.1506      0.89725718     0.75800392   
    392800  -4114.2076     -4147.2354      33.027838      277.73978      296.07703      9589.9487      0.89839882     0.75800392   
    392900  -4113.1742     -4147.4159      34.241697      545.03993      306.95862      9589.1267      0.89847583     0.75800392   
    393000  -4114.0122     -4147.0052      32.993034     -104.11743      295.76502      9600.9803      0.89736656     0.72855832   
    393100  -4113.6809     -4146.9499      33.268981     -2328.9591      298.23875      9625.2817      0.89510093     0.72855832   
    393200  -4114.5375     -4147.3985      32.861022      2197.8903      294.58161      9655.9924      0.89225407     0.72855832   
    393300  -4115.67       -4146.6007      30.930689     -263.4953       277.2772       9683.9517      0.88967798     0.72855832   
    393400  -4115.3256     -4146.5941      31.268509     -1977.423       280.30557      9705.5779      0.88769558     0.72855832   
    393500  -4116.0974     -4147.7907      31.693305     -797.53494      284.11365      9712.9489      0.88702192     0.72855832   
    393600  -4115.0754     -4148.4388      33.363414     -1186.8065      299.08529      9703.2856      0.88790529     0.72855832   
    393700  -4115.1675     -4147.6624      32.494973     -937.47823      291.30018      9678.4282      0.89018572     0.72855832   
    393800  -4115.3876     -4147.7805      32.392874      62.142858      290.38491      9641.0889      0.89363335     0.72855832   
    393900  -4114.1507     -4146.3861      32.235386      45.638356      288.97311      9595.7237      0.89785813     0.72855832   
    394000  -4114.2276     -4145.5959      31.368312      127.93249      281.20025      9549.5095      0.90220325     0.69148553   
    394100  -4114.8191     -4148.4088      33.589652     -457.50762      301.11339      9507.4         0.90619924     0.69148553   
    394200  -4114.9177     -4146.9987      32.081021      998.69217      287.58931      9476.0336      0.90919883     0.69148553   
    394300  -4114.7176     -4146.8731      32.15556       1314.8767      288.25752      9470.9047      0.90969119     0.69148553   
    394400  -4116.5221     -4148.3895      31.867414      80.711839      285.67444      9495.0511      0.9073778      0.69148553   
    394500  -4117.7392     -4149.0508      31.311557      438.03035      280.69148      9547.7811      0.90236658     0.69148553   
    394600  -4117.8978     -4148.9656      31.067839     -178.97197      278.50667      9615.3771      0.89602295     0.69148553   
    394700  -4117.3754     -4148.4673      31.091885     -2225.3755      278.72224      9686.6543      0.88942975     0.69148553   
    394800  -4117.0691     -4148.3193      31.250176      63.140142      280.14123      9748.2106      0.88381334     0.69148553   
    394900  -4116.545      -4148.2814      31.736371     -2844.4062      284.49971      9789.2954      0.88010406     0.69148553   
    395000  -4113.4973     -4145.4989      32.001623     -1801.1849      286.87755      9796.2567      0.87947865     0.74925309   
    395100  -4112.2753     -4144.5901      32.314775      717.28597      289.6848       9770.0299      0.88183953     0.74925309   
    395200  -4112.4331     -4146.1186      33.685475      2921.9567      301.97239      9716.7046      0.88667907     0.74925309   
    395300  -4113.2664     -4145.6442      32.377807     -521.07952      290.24985      9649.4688      0.89285729     0.74925309   
    395400  -4115.1035     -4147.9452      32.84173       1292.5167      294.40866      9580.5942      0.89927602     0.74925309   
    395500  -4116.3063     -4146.5553      30.249012     -238.39524      271.16633      9518.3886      0.90515306     0.74925309   
    395600  -4115.4835     -4148.1002      32.616754      1202.2875      292.39188      9475.9743      0.90920451     0.74925309   
    395700  -4114.9779     -4147.6069      32.62901       2919.1586      292.50175      9462.4612      0.91050292     0.74925309   
    395800  -4114.2064     -4145.7587      31.552322      4215.1585      282.84981      9479.2763      0.9088878      0.74925309   
    395900  -4114.2454     -4147.2203      32.974901      2564.1794      295.60247      9529.1919      0.90412688     0.74925309   
    396000  -4114.5227     -4148.5832      34.060455      1958.1445      305.33389      9597.5821      0.89768428     0.73991692   
    396100  -4115.1009     -4146.8509      31.750017     -3432.3899      284.62204      9673.9399      0.89059873     0.73991692   
    396200  -4114.4259     -4145.3675      30.941638     -2630.9657      277.37535      9740.6897      0.88449575     0.73991692   
    396300  -4114.8847     -4146.7876      31.902846     -1898.3327      285.99207      9788.1031      0.88021126     0.73991692   
    396400  -4115.6091     -4148.8347      33.225599     -543.53081      297.84985      9805.7651      0.87862584     0.73991692   
    396500  -4114.5623     -4147.1803      32.618039      188.88898      292.4034       9796.8179      0.87942827     0.73991692   
    396600  -4114.3998     -4145.5658      31.165969     -1709.0812      279.38636      9759.5495      0.8827865      0.73991692   
    396700  -4113.772      -4145.8624      32.090424     -1158.981       287.67361      9699.9858      0.88820734     0.73991692   
    396800  -4113.5342     -4146.409       32.874778     -100.44747      294.70492      9628.7632      0.89477728     0.73991692   
    396900  -4113.6264     -4147.3425      33.716132      3583.1267      302.24722      9562.9443      0.90093577     0.73991692   
    397000  -4115.077      -4147.8297      32.752621      1387.7417      293.60985      9517.9391      0.90519581     0.87494389   
    397100  -4114.7596     -4145.9868      31.227255      2841.2891      279.93575      9498.68        0.90703115     0.87494389   
    397200  -4114.3501     -4147.2857      32.93563      -2061.7939      295.25043      9503.2926      0.9065909      0.87494389   
    397300  -4115.6316     -4147.2084      31.576868     -327.58588      283.06985      9526.2533      0.90440579     0.87494389   
    397400  -4114.2172     -4145.7849      31.567744      2229.8524      282.98806      9559.9512      0.90121784     0.87494389   
    397500  -4113.9966     -4146.7669      32.770325     -1084.6063      293.76856      9602.6408      0.89721138     0.87494389   
    397600  -4113.015      -4146.6294      33.614393      343.31499      301.33518      9649.4747      0.89285675     0.87494389   
    397700  -4112.4696     -4145.4101      32.940484      3027.0207      295.29395      9694.7771      0.88868455     0.87494389   
    397800  -4113.722      -4146.2023      32.480268     -286.90856      291.16835      9733.2259      0.885174       0.87494389   
    397900  -4114.5573     -4145.0342      30.476925     -187.28798      273.20945      9751.1461      0.88354728     0.87494389   
    398000  -4114.4005     -4147.3944      32.993867     -1474.6281      295.7725       9748.4694      0.88378988     0.66820918   
    398100  -4114.5771     -4146.2013      31.624173      1589.8317      283.49392      9722.9801      0.88610678     0.66820918   
    398200  -4114.3148     -4147.7805      33.465719      1895.4372      300.00239      9683.3105      0.88973689     0.66820918   
    398300  -4114.1513     -4147.0459      32.894588     -53.418252      294.88251      9633.3507      0.89435118     0.66820918   
    398400  -4115.0902     -4147.2981      32.207928      1082.9025      288.72697      9577.4572      0.89957056     0.66820918   
    398500  -4114.8949     -4146.8409      31.946053      749.04135      286.3794       9527.4963      0.9042878      0.66820918   
    398600  -4114.9525     -4147.9839      33.031364      452.97393      296.10864      9495.4656      0.9073382      0.66820918   
    398700  -4116.4233     -4148.2528      31.829516      3024.6014      285.3347       9486.1938      0.90822502     0.66820918   
    398800  -4116.0905     -4147.9659      31.875364      601.34302      285.74571      9504.5842      0.9064677      0.66820918   
    398900  -4116.9641     -4149.0249      32.060823     -1914.1552      287.40825      9542.195       0.90289484     0.66820918   
    399000  -4116.1375     -4149.7235      33.586004      72.982841      301.08069      9594.336       0.897988       0.68416012   
    399100  -4117.5642     -4148.9107      31.346452      1788.8816      281.0043       9647.1503      0.89307187     0.68416012   
    399200  -4117.3004     -4149.5517      32.251251     -396.3217       289.11534      9690.1934      0.88910491     0.68416012   
    399300  -4117.0756     -4148.0275      30.951881     -1222.6883      277.46718      9711.92        0.8871159      0.68416012   
    399400  -4117.4788     -4148.5441      31.065267     -2503.4924      278.48362      9713.7123      0.88695221     0.68416012   
    399500  -4116.3744     -4147.5865      31.21215       692.51143      279.80035      9694.3683      0.88872202     0.68416012   
    399600  -4115.7539     -4148.7145      32.960611      1743.2437      295.47437      9660.3789      0.89184893     0.68416012   
    399700  -4115.6181     -4147.9514      32.333293      844.51436      289.8508       9617.4583      0.89582905     0.68416012   
    399800  -4116.4431     -4148.2192      31.77608       1524.6439      284.85568      9576.2716      0.89968193     0.68416012   
    399900  -4117.3339     -4148.812       31.478026      720.74768      282.18379      9544.0348      0.90272079     0.68416012   
    400000  -4116.137      -4148.5911      32.454077     -44.920009      290.93357      9522.7042      0.90474286     0.73676368   
    400100  -4115.6927     -4148.7313      33.038551      1606.858       296.17306      9514.9581      0.9054794      0.73676368   
    400191  -4115.6065     -4148.2882      32.681731      1882.21        292.97436      9521.7636      0.90483223     0.73676368   
Loop time of 501.734 on 2 procs for 200000 steps with 864 atoms

Performance: 17.220 ns/day, 1.394 hours/ns, 398.618 timesteps/s, 344.406 katom-step/s
99.7% CPU use with 2 MPI tasks x 1 OpenMP threads

MPI task timing breakdown:
Section |  min time  |  avg time  |  max time  |%varavg| %total
---------------------------------------------------------------
Pair    | 260.7      | 262.41     | 264.13     |  10.6 | 52.30
Neigh   | 7.4291     | 7.4982     | 7.5672     |   2.5 |  1.49
Comm    | 38.204     | 40.932     | 43.66      |  42.6 |  8.16
Output  | 0.29156    | 0.29448    | 0.2974     |   0.5 |  0.06
Modify  | 187.63     | 188.6      | 189.56     |   7.0 | 37.59
Other   |            | 2          |            |       |  0.40

Nlocal:            432 ave         434 max         430 min
Histogram: 1 0 0 0 0 0 0 0 0 1
Nghost:         2181.5 ave        2187 max        2176 min
Histogram: 1 0 0 0 0 0 0 0 0 1
Neighs:              0 ave           0 max           0 min
Histogram: 2 0 0 0 0 0 0 0 0 0
FullNghs:        44959 ave       45132 max       44786 min
Histogram: 1 0 0 0 0 0 0 0 0 1

Total # of neighbors = 89918
Ave neighs/atom = 104.07176
Neighbor list builds = 19852
Dangerous builds = 19113

unfix		3
unfix		4
Total wall time: 0:16:43
