LAMMPS (27 Jun 2024)
KOKKOS mode with Kokkos version 4.3.1 is enabled (src/KOKKOS/kokkos.cpp:72)
  will use up to 1 GPU(s) per node
WARNING: When using a single thread, the Kokkos Serial backend (i.e. Makefile.kokkos_mpi_only) gives better performance than the OpenMP backend (src/KOKKOS/kokkos.cpp:202)
  using 1 OpenMP thread(s) per MPI task
Reading data file ...
  orthogonal box = (0 0 0) to (19.665067 19.665067 19.640133)
  1 by 1 by 1 MPI processor grid
  reading atoms ...
  1296 atoms
  read_data CPU = 0.088 seconds
ACE/AL version: 2023.11.25
Loading /pc2/users/a/acepdw01/work/phase_diagram/pot_dir/interim_potential_ladder_step_1.yaml
Total number of basis functions
	H: 23 (r=1) 664 (r>1)
	O: 23 (r=1) 664 (r>1)
Mapping LAMMPS atom type #1(H) -> ACE species type #0
Mapping LAMMPS atom type #2(O) -> ACE species type #1
Loading ASI /pc2/users/a/acepdw01/work/phase_diagram/pot_dir/interim_potential_ladder_step_1.asi
LINEAR ASI is loaded

CITE-CITE-CITE-CITE-CITE-CITE-CITE-CITE-CITE-CITE-CITE-CITE-CITE

Your simulation uses code contributions which should be cited:
- Type Label Framework: https://doi.org/10.1021/acs.jpcb.3c08419
The log file lists these citations in BibTeX format.

CITE-CITE-CITE-CITE-CITE-CITE-CITE-CITE-CITE-CITE-CITE-CITE-CITE

Switching to 'neigh_modify every 1 delay 0 check yes' setting during minimization
Neighbor list info ...
  update: every = 1 steps, delay = 0 steps, check = yes
  max neighbors/atom: 2000, page size: 100000
  master list distance cutoff = 6.5
  ghost atom cutoff = 6.5
  binsize = 6.5, bins = 4 4 4
  1 neighbor lists, perpetual/occasional/extra = 1 0 0
  (1) pair pace/extrapolation/kk, perpetual
      attributes: full, newton on, kokkos_device
      pair build: full/bin/kk/device
      stencil: full/bin/3d
      bin: kk/device
Setting up cg/kk style minimization ...
  Unit style    : metal
  Current step  : 0
WARNING: Fix with atom-based arrays not compatible with sending data in Kokkos communication, switching to classic exchange/border communication (src/KOKKOS/comm_kokkos.cpp:754)
WARNING: Fix with atom-based arrays not compatible with Kokkos sorting on device, switching to classic host sorting (src/KOKKOS/atom_kokkos.cpp:216)
Per MPI rank memory allocation (min/avg/max) = 1123 | 1123 | 1123 Mbytes
   Step         TotEng         PotEng         KinEng         Press           Temp          Volume        Density     c_max_pace_gamma
         0  -6250.4972     -6250.4972      0              21939.986      0              7595.1311      1.7015372      0.62320149   
        33  -6250.6452     -6250.6452      0              22350.057      0              7595.1311      1.7015372      0.62320149   
Loop time of 0.255792 on 1 procs for 33 steps with 1296 atoms

97.9% CPU use with 1 MPI tasks x 1 OpenMP threads

Minimization stats:
  Stopping criterion = force tolerance
  Energy initial, next-to-last, final = 
     -6250.49717465847  -6250.64523648355  -6250.64523648874
  Force two-norm initial, final = 0.82052426 0.0003006328
  Force max component initial, final = 0.040662504 1.1270972e-05
  Final line search alpha, max atom move = 1 1.1270972e-05
  Iterations, force evaluations = 33 66

MPI task timing breakdown:
Section |  min time  |  avg time  |  max time  |%varavg| %total
---------------------------------------------------------------
Pair    | 0.22523    | 0.22523    | 0.22523    |   0.0 | 88.05
Neigh   | 0          | 0          | 0          |   0.0 |  0.00
Comm    | 0.0017852  | 0.0017852  | 0.0017852  |   0.0 |  0.70
Output  | 0          | 0          | 0          |   0.0 |  0.00
Modify  | 0.014194   | 0.014194   | 0.014194   |   0.0 |  5.55
Other   |            | 0.01458    |            |       |  5.70

Nlocal:           1296 ave        1296 max        1296 min
Histogram: 1 0 0 0 0 0 0 0 0 0
Nghost:           4514 ave        4514 max        4514 min
Histogram: 1 0 0 0 0 0 0 0 0 0
Neighs:              0 ave           0 max           0 min
Histogram: 1 0 0 0 0 0 0 0 0 0
FullNghs:       251424 ave      251424 max      251424 min
Histogram: 1 0 0 0 0 0 0 0 0 0

Total # of neighbors = 251424
Ave neighs/atom = 194
Neighbor list builds = 0
Dangerous builds = 0
Setting up Verlet run ...
  Unit style    : metal
  Current step  : 33
  Time step     : 0.0005
WARNING: Fix with atom-based arrays not compatible with Kokkos sorting on device, switching to classic host sorting (src/KOKKOS/atom_kokkos.cpp:216)
Per MPI rank memory allocation (min/avg/max) = 1123 | 1123 | 1123 Mbytes
   Step         TotEng         PotEng         KinEng         Press           Temp          Volume        Density     c_max_pace_gamma
        33  -6184.5254     -6250.6452      66.119796      31648.609      395            7595.1311      1.7015372      0.62320149   
       100  -6175.3765     -6202.9874      27.610955      33943.374      164.94799      7620.1005      1.6959616      0.62320149   
       200  -6162.7841     -6204.8961      42.112022      36167.383      251.57744      7774.7959      1.662217       0.62320149   
       300  -6157.5509     -6206.1781      48.627279      27712.503      290.49961      8009.1878      1.6135716      0.62320149   
       400  -6152.2419     -6200.2696      48.027708      22396.812      286.91778      8210.5416      1.5740007      0.62320149   
       500  -6146.2249     -6200.3419      54.11696       15957.301      323.295        8357.7259      1.5462816      0.62320149   
       600  -6139.1865     -6196.8501      57.663597      14402.075      344.48263      8469.0778      1.525951       0.62320149   
       700  -6134.8822     -6193.4739      58.591784      15814.348      350.02762      8556.3358      1.5103893      0.62320149   
       800  -6132.8858     -6192.3088      59.423035      11997.857      354.99352      8621.9018      1.4989034      0.62320149   
       900  -6129.7248     -6189.2784      59.553577      10309.018      355.77338      8663.7391      1.4916652      0.62320149   
      1000  -6127.666      -6189.0971      61.43114       9682.0073      366.98995      8686.3633      1.48778        0.79614808   
      1100  -6125.1033     -6186.9875      61.884144      9792.0747      369.6962       8694.6705      1.4863585      0.79614808   
      1200  -6124.8033     -6188.4363      63.632983      13998.754      380.14377      8692.5821      1.4867157      0.79614808   
      1300  -6122.8971     -6185.5968      62.699683      17637.52       374.56823      8682.4868      1.4884443      0.79614808   
      1400  -6122.6172     -6187.2188      64.601579      17710.198      385.93017      8670.2766      1.4905404      0.79614808   
      1500  -6121.8291     -6188.4838      66.654687      20890.773      398.19545      8658.8262      1.4925115      0.79614808   
      1600  -6122.873      -6184.5632      61.690193      14490.11       368.53753      8650.9269      1.4938744      0.79614808   
      1700  -6119.6822     -6186.203       66.520726      12360.361      397.39516      8650.6681      1.493919       0.79614808   
      1800  -6120.2546     -6184.9526      64.697985      10849.477      386.5061       8654.9343      1.4931827      0.79614808   
      1900  -6121.3261     -6185.0219      63.695765      12711.671      380.51883      8662.5567      1.4918688      0.79614808   
      2000  -6121.2682     -6186.5448      65.276602      11927.213      389.96276      8673.2511      1.4900292      0.79644055   
      2100  -6119.1063     -6184.1563      65.050055      14331.103      388.60936      8683.0931      1.4883404      0.79644055   
      2200  -6117.236      -6182.9455      65.709507      12653.105      392.54894      8692.3944      1.4867478      0.79644055   
      2300  -6118.0621     -6184.3991      66.336982      15080.551      396.29747      8702.0173      1.4851037      0.79644055   
      2400  -6117.6905     -6183.3533      65.662838      15650.009      392.27013      8710.2041      1.4837078      0.79644055   
      2500  -6116.0986     -6184.0318      67.933163      17978.263      405.83307      8720.6273      1.4819344      0.79644055   
      2600  -6117.3948     -6185.9297      68.53494       12197.718      409.42808      8732.8687      1.4798571      0.79644055   
      2700  -6116.9633     -6183.1868      66.223504      10898.399      395.61955      8744.1897      1.4779412      0.79644055   
      2800  -6118.8767     -6182.8495      63.972844      11261.766      382.1741       8750.7414      1.4768346      0.79644055   
      2900  -6118.3808     -6182.3376      63.956847      12682.044      382.07853      8752.9634      1.4764597      0.79644055   
      3000  -6119.3976     -6185.0726      65.674969      17845.965      392.34261      8752.8195      1.476484       0.78284482   
      3100  -6118.2397     -6183.8694      65.629636      14643.915      392.07178      8747.124       1.4774454      0.78284482   
      3200  -6117.5106     -6183.7045      66.193898      13217.136      395.44269      8736.1949      1.4792937      0.78284482   
      3300  -6119.8882     -6185.7033      65.815097      12086.671      393.17973      8724.417       1.4812907      0.78284482   
      3400  -6118.8708     -6184.3555      65.484743      11942.592      391.20619      8711.2327      1.4835326      0.78284482   
      3500  -6119.0263     -6184.7123      65.685984      15519.176      392.40841      8699.2212      1.485581       0.78284482   
      3600  -6118.0638     -6183.9727      65.908919      15368.402      393.74022      8694.3932      1.486406       0.78284482   
      3700  -6117.4821     -6183.2223      65.740206      16434.162      392.73233      8696.2668      1.4860857      0.78284482   
      3800  -6118.0723     -6184.8493      66.777034      18426.66       398.92635      8708.4045      1.4840144      0.78284482   
      3900  -6117.712      -6182.808       65.096097      19906.444      388.88442      8723.7015      1.4814122      0.78284482   
      4000  -6121.4119     -6186.9383      65.526351      14507.618      391.45476      8739.1286      1.4787971      0.73737119   
      4100  -6120.4255     -6185.3371      64.911629      13785.734      387.78241      8748.1625      1.47727        0.73737119   
      4200  -6121.5316     -6185.181       63.649394      15362.57       380.24181      8748.8886      1.4771474      0.73737119   
      4300  -6121.0255     -6185.5356      64.510072      18542.425      385.38351      8744.549       1.4778804      0.73737119   
      4400  -6120.4385     -6184.5592      64.120713      12486.719      383.05747      8735.9447      1.479336       0.73737119   
      4500  -6119.758      -6184.0306      64.272596      10093.069      383.96482      8721.4083      1.4818017      0.73737119   
      4600  -6117.0045     -6182.7641      65.759573      12748.344      392.84803      8705.9193      1.4844381      0.73737119   
      4700  -6116.9222     -6182.6705      65.748327      17113.313      392.78084      8698.2975      1.4857388      0.73737119   
      4800  -6117.0793     -6183.6288      66.549469      12760.417      397.56687      8699.5797      1.4855198      0.73737119   
      4900  -6118.1114     -6184.4959      66.384501      11711.698      396.58135      8709.2735      1.4838664      0.73737119   
      5000  -6121.7206     -6186.326       64.605431      15046.412      385.95318      8726.1371      1.4809987      0.81378215   
      5100  -6123.197      -6187.1852      63.988195      15462.388      382.26581      8743.2604      1.4780982      0.81378215   
      5200  -6119.6587     -6183.1293      63.470581      18131.272      379.17358      8757.9879      1.4756127      0.81378215   
      5300  -6118.2233     -6183.8514      65.628061      14458.675      392.06238      8772.0798      1.4732422      0.81378215   
      5400  -6115.4823     -6182.074       66.59171       14906.121      397.81922      8784.7503      1.4711173      0.81378215   
      5500  -6116.1522     -6181.5345      65.382353      11225.162      390.59451      8798.5478      1.4688103      0.81378215   
      5600  -6117.5705     -6183.237       65.666511      9675.5661      392.29208      8812.6189      1.4664651      0.81378215   
      5700  -6116.1158     -6183.3283      67.212485      11925.572      401.52773      8822.4939      1.4648237      0.81378215   
      5800  -6113.5714     -6179.8581      66.286665      15003.943      395.99688      8827.6499      1.4639681      0.81378215   
      5900  -6116.7073     -6185.0573      68.349918      13642.88       408.32276      8829.5518      1.4636528      0.81378215   
      6000  -6116.2245     -6182.7274      66.502843      11972.648      397.28833      8825.9421      1.4642514      0.77220286   
      6100  -6116.2162     -6181.3836      65.167358      14201.982      389.31013      8816.953       1.4657442      0.77220286   
      6200  -6116.8709     -6184.2768      67.405908      15610.121      402.68324      8802.5575      1.4681413      0.77220286   
      6300  -6118.2025     -6184.4257      66.22318       15238.79       395.61762      8780.9649      1.4717515      0.77220286   
      6400  -6118.3824     -6181.2614      62.879007      19554.308      375.63951      8752.9697      1.4764586      0.77220286   
      6500  -6117.6503     -6182.4882      64.83797       19818.263      387.34237      8728.3902      1.4806164      0.77220286   
      6600  -6120.1045     -6184.1632      64.058793      16281.483      382.68756      8711.3229      1.4835173      0.77220286   
      6700  -6122.2003     -6185.1569      62.956596      15143.67       376.10303      8699.6794      1.4855028      0.77220286   
      6800  -6119.8762     -6187.0679      67.191753      16929.323      401.40388      8693.8609      1.486497       0.77220286   
      6900  -6117.6825     -6184.0422      66.359744      16281.851      396.43346      8694.4646      1.4863938      0.77220286   
      7000  -6117.8303     -6183.2988      65.468516      15451.857      391.10925      8711.3232      1.4835172      0.84507646   
      7100  -6116.7642     -6181.3482      64.58398       15190.138      385.82503      8745.3572      1.4777439      0.84507646   
      7200  -6118.0404     -6183.6409      65.600431      16310.302      391.89731      8791.4827      1.4699907      0.84507646   
      7300  -6117.6537     -6182.8183      65.164559      13262.982      389.29341      8838.9423      1.4620978      0.84507646   
      7400  -6116.1653     -6181.7782      65.612958      12908.297      391.97215      8882.566       1.4549172      0.84507646   
      7500  -6115.2193     -6183.2304      68.011117      9657.721       406.29876      8912.0667      1.4501011      0.84507646   
      7600  -6115.9572     -6180.7994      64.842238      13909.591      387.36786      8923.4635      1.4482491      0.84507646   
      7700  -6115.92       -6182.8101      66.890115      16347.236      399.60189      8919.1886      1.4489432      0.84507646   
      7800  -6115.8249     -6181.6647      65.839801      17428.66       393.32731      8899.0045      1.4522296      0.84507646   
      7900  -6115.2043     -6181.3556      66.151226      10900.235      395.18776      8864.4593      1.457889       0.84507646   
      8000  -6116.662      -6182.8839      66.221872      13289.731      395.6098       8821.9993      1.4649058      0.80822318   
      8100  -6117.803      -6183.743       65.94003       15545.789      393.92608      8778.8735      1.4721021      0.80822318   
      8200  -6116.4375     -6181.9746      65.537101      19975.284      391.51898      8743.6038      1.4780402      0.80822318   
      8300  -6115.7778     -6185.051       69.273115      16527.57       413.83794      8723.9516      1.4813697      0.80822318   
      8400  -6116.8385     -6181.3017      64.46315       18751.329      385.10319      8722.3874      1.4816354      0.80822318   
      8500  -6118.2686     -6183.942       65.673385      14148.246      392.33314      8736.4258      1.4792546      0.80822318   
      8600  -6120.3562     -6182.8235      62.467268      16988.634      373.17978      8760.5523      1.4751807      0.80822318   
      8700  -6119.0115     -6184.7693      65.75781       12653.95       392.8375       8788.4606      1.4704962      0.80822318   
      8800  -6119.4989     -6184.4911      64.992232      11444.897      388.26393      8814.1412      1.4662118      0.80822318   
      8900  -6117.1938     -6182.9919      65.798105      10057.383      393.07822      8834.0572      1.4629063      0.80822318   
      9000  -6118.5453     -6183.6765      65.131174      13089.579      389.09397      8845.7875      1.4609664      0.73076138   
      9100  -6118.8436     -6182.6708      63.827193      11980.857      381.30398      8846.9205      1.4607792      0.73076138   
      9200  -6117.7638     -6183.8216      66.057887      14303.034      394.63016      8839.7608      1.4619624      0.73076138   
      9300  -6116.9169     -6182.153       65.236095      15958.992      389.72077      8826.8157      1.4641065      0.73076138   
      9400  -6117.5442     -6184.7667      67.222449      17510.34       401.58726      8814.4136      1.4661665      0.73076138   
      9500  -6118.5369     -6185.3481      66.811205      17046.74       399.13049      8800.9551      1.4684086      0.73076138   
      9600  -6120.017      -6183.821       63.803986      14211.232      381.16534      8785.4589      1.4709986      0.73076138   
      9700  -6118.2644     -6182.7468      64.48235       15501.737      385.21789      8770.3118      1.4735392      0.73076138   
      9800  -6118.9453     -6185.0976      66.152356      15811.964      395.19451      8764.0809      1.4745868      0.73076138   
      9900  -6117.3349     -6181.2209      63.886017      19098.91       381.65539      8764.8165      1.474463       0.73076138   
     10000  -6118.1956     -6184.5687      66.373147      16775.323      396.51352      8775.1782      1.472722       0.76721729   
     10100  -6118.4615     -6186.118       67.65646       15205.48       404.18004      8790.7245      1.4701175      0.76721729   
     10200  -6118.5315     -6182.0785      63.546929      15304.363      379.62968      8806.4112      1.4674988      0.76721729   
     10300  -6117.3362     -6184.7645      67.428243      15970.513      402.81667      8825.4643      1.4643306      0.76721729   
     10400  -6117.4084     -6183.5848      66.176456      16635.377      395.33849      8843.5183      1.4613412      0.76721729   
     10500  -6119.198      -6184.3809      65.182924      16956.62       389.40312      8857.5573      1.459025       0.76721729   
     10600  -6118.2684     -6181.8308      63.56239       14498.605      379.72205      8863.2273      1.4580917      0.76721729   
     10700  -6119.4        -6184.6455      65.245441      10036.071      389.7766       8864.6142      1.4578635      0.76721729   
     10800  -6119.6979     -6183.4772      63.779307      10812.982      381.01791      8858.3627      1.4588924      0.76721729   
     10900  -6119.8288     -6184.1983      64.369541      16582.404      384.54397      8846.7041      1.460815       0.76721729   
     11000  -6119.1502     -6185.3136      66.163347      15155.79       395.26018      8831.8122      1.4632782      0.77188161   
     11100  -6118.8907     -6185.1481      66.257389      13407.01       395.82198      8816.6893      1.4657881      0.77188161   
     11200  -6117.5009     -6182.1181      64.617154      16119.057      386.02321      8804.2559      1.467858       0.77188161   
     11300  -6119.037      -6184.8905      65.853551      14338.884      393.40945      8796.375       1.4691731      0.77188161   
     11400  -6119.4377     -6184.4494      65.011724      14209.517      388.38038      8791.2483      1.4700299      0.77188161   
     11500  -6117.3827     -6182.0871      64.704402      13177.65       386.54443      8790.0362      1.4702326      0.77188161   
     11600  -6114.6443     -6183.3945      68.750148      12809.173      410.71374      8799.0135      1.4687326      0.77188161   
     11700  -6114.3305     -6180.6749      66.344386      15962.248      396.3417       8815.1132      1.4660501      0.77188161   
     11800  -6113.8804     -6182.7069      68.826537      15928.177      411.17008      8840.1413      1.4618995      0.77188161   
     11900  -6112.9916     -6181.4039      68.412336      14152.467      408.69565      8868.4572      1.4572318      0.77188161   
     12000  -6115.1236     -6182.4783      67.354699      14679.551      402.37732      8898.6767      1.4522831      0.73743878   
     12100  -6116.083      -6182.3083      66.225255      9361.2527      395.63001      8920.822       1.4486779      0.73743878   
     12200  -6117.1961     -6182.7024      65.506333      9292.935       391.33517      8927.1802      1.4476461      0.73743878   
     12300  -6116.7056     -6183.114       66.408399      13453.273      396.72412      8918.2128      1.4491018      0.73743878   
     12400  -6116.7158     -6182.5904      65.874618      15225.304      393.53531      8893.2233      1.4531737      0.73743878   
     12500  -6114.8042     -6181.1767      66.372562      13682.291      396.51003      8857.0188      1.4591137      0.73743878   
     12600  -6114.5723     -6181.3103      66.73805       13742.207      398.69345      8818.0753      1.4655577      0.73743878   
     12700  -6116.335      -6182.56        66.225033      17123.508      395.62869      8781.3579      1.4716856      0.73743878   
     12800  -6115.5825     -6181.1152      65.532629      16715.997      391.49226      8751.5729      1.4766943      0.73743878   
     12900  -6116.1364     -6182.2521      66.115718      17452.38       394.97564      8736.8507      1.4791826      0.73743878   
     13000  -6116.2651     -6181.0211      64.756057      15451.527      386.85302      8738.3738      1.4789248      0.82056305   
     13100  -6117.5214     -6183.1564      65.635031      14094.13       392.10401      8754.3527      1.4762254      0.82056305   
     13200  -6117.4897     -6182.4809      64.991177      13562.331      388.25763      8778.5812      1.4721511      0.82056305   
     13300  -6119.1092     -6184.2937      65.184535      14756.981      389.41275      8810.4343      1.4668287      0.82056305   
     13400  -6121.4319     -6185.0029      63.571008      13217.746      379.77353      8841.6313      1.4616531      0.82056305   
     13500  -6122.3225     -6185.5338      63.211254      13530.06       377.62436      8859.5422      1.4586982      0.82056305   
     13600  -6122.4102     -6184.2071      61.796846      12521.178      369.17467      8862.2925      1.4582455      0.82056305   
     13700  -6121.4105     -6185.0572      63.646697      14139.925      380.22569      8848.6143      1.4604996      0.82056305   
     13800  -6118.1866     -6183.4221      65.235531      13806.978      389.7174       8819.7293      1.4652828      0.82056305   
     13900  -6118.5217     -6184.3412      65.819501      15415.557      393.20604      8784.6947      1.4711266      0.82056305   
     14000  -6117.8467     -6183.1664      65.319736      17115.868      390.22044      8748.8523      1.4771535      0.7425928    
     14100  -6120.2969     -6183.0672      62.770373      16331.467      374.99053      8719.474       1.4821304      0.7425928    
     14200  -6118.7944     -6185.4954      66.701002      14218.192      398.47213      8701.0839      1.485263       0.7425928    
     14300  -6118.3981     -6184.2255      65.827367      19396.049      393.25303      8698.9185      1.4856327      0.7425928    
     14400  -6117.6991     -6186.0161      68.316963      15835.567      408.12589      8716.0224      1.4827174      0.7425928    
     14500  -6118.4084     -6184.8609      66.452508      15358.579      396.98762      8747.0885      1.4774514      0.7425928    
     14600  -6116.5287     -6182.6901      66.16142       17656.366      395.24866      8785.6112      1.4709731      0.7425928    
     14700  -6115.2701     -6181.9427      66.672569      15098.546      398.30227      8831.5314      1.4633247      0.7425928    
     14800  -6113.8868     -6181.6521      67.765358      14088.537      404.8306       8877.2811      1.4557833      0.7425928    
     14900  -6116.0294     -6181.4009      65.371488      14268.887      390.52961      8911.545       1.450186       0.7425928    
     15000  -6117.1872     -6182.6959      65.508682      14449.959      391.3492       8930.707       1.4470744      0.75335289   
     15100  -6119.3449     -6183.7383      64.393387      12936.466      384.68643      8930.3395      1.447134       0.75335289   
     15200  -6120.2948     -6185.6166      65.321762      13329.247      390.23254      8904.8894      1.4512699      0.75335289   
     15300  -6119.1935     -6182.4859      63.292383      13534.23       378.10902      8854.0182      1.4596082      0.75335289   
     15400  -6118.4576     -6183.3914      64.933767      15063.906      387.91466      8789.2617      1.4703622      0.75335289   
     15500  -6118.307      -6185.5825      67.275572      21521.369      401.90461      8725.8285      1.4810511      0.75335289   
     15600  -6118.9334     -6185.2074      66.274026      25656.105      395.92138      8674.0416      1.4898935      0.75335289   
     15700  -6121.083      -6185.945       64.86198       24055.372      387.4858       8642.5622      1.4953202      0.75335289   
     15800  -6118.668      -6186.3669      67.69889       20812.459      404.43352      8637.3875      1.4962161      0.75335289   
     15900  -6119.5014     -6185.9136      66.41225       19317.804      396.74712      8657.4765      1.4927442      0.75335289   
     16000  -6119.7893     -6184.9901      65.200839      21232.524      389.51015      8694.0508      1.4864645      0.76145036   
     16100  -6119.0798     -6182.3288      63.24893       16828.643      377.84943      8739.9091      1.478665       0.76145036   
     16200  -6117.6435     -6183.6798      66.036307      15772.894      394.50124      8789.8136      1.4702698      0.76145036   
     16300  -6114.823      -6182.5024      67.679445      12626.791      404.31735      8837.9064      1.4622691      0.76145036   
     16400  -6114.1437     -6181.9015      67.757739      12882.375      404.78508      8875.4475      1.4560841      0.76145036   
     16500  -6114.5293     -6183.0298      68.500495      11539.877      409.22231      8896.7411      1.4525991      0.76145036   
     16600  -6114.6229     -6183.3944      68.77149       11023.317      410.84124      8901.9836      1.4517436      0.76145036   
     16700  -6115.1294     -6179.0194      63.890046      12554.075      381.67946      8891.0054      1.4535362      0.76145036   
     16800  -6112.899      -6180.8477      67.948727      11020.157      405.92604      8870.9663      1.4568196      0.76145036   
     16900  -6111.9474     -6179.7267      67.779285      16136.116      404.9138       8847.6205      1.4606637      0.76145036   
     17000  -6111.7125     -6179.6561      67.943562      12061.839      405.89519      8829.2376      1.4637049      0.7186934    
     17100  -6113.6475     -6181.0905      67.443061      16278.797      402.90519      8818.1533      1.4655447      0.7186934    
     17200  -6112.7333     -6180.8108      68.077469      12851.496      406.69515      8809.077       1.4670547      0.7186934    
     17300  -6114.0116     -6180.5883      66.576692      16350.277      397.7295       8803.6137      1.4679651      0.7186934    
     17400  -6116.0361     -6183.918       67.881909      17133.376      405.52687      8801.7128      1.4682822      0.7186934    
     17500  -6117.7066     -6182.0108      64.304171      16876.412      384.15345      8800.1425      1.4685442      0.7186934    
     17600  -6118.7657     -6182.673       63.9073        16565.764      381.78254      8794.4576      1.4694935      0.7186934    
     17700  -6117.128      -6183.6128      66.484808      15579.655      397.18059      8785.0501      1.4710671      0.7186934    
     17800  -6115.9344     -6182.9182      66.983822      14073.66       400.1617       8773.4689      1.4730089      0.7186934    
     17900  -6114.3964     -6181.6574      67.261048      14740.273      401.81785      8763.299       1.4747184      0.7186934    
     18000  -6114.3201     -6182.4306      68.110529      17011.989      406.89265      8758.4982      1.4755267      0.79920015   
     18100  -6115.6013     -6182.4207      66.819333      16278.141      399.17904      8757.9801      1.475614       0.79920015   
     18200  -6113.1271     -6181.2289      68.101814      15864.729      406.84059      8766.5281      1.4741751      0.79920015   
     18300  -6114.0661     -6179.3948      65.328704      17189.132      390.27402      8788.3486      1.4705149      0.79920015   
     18400  -6114.5411     -6181.5396      66.998446      14737.55       400.24906      8815.9183      1.4659163      0.79920015   
     18500  -6114.6605     -6181.0253      66.364772      12291.23       396.46349      8841.1712      1.4617292      0.79920015   
     18600  -6114.356      -6181.2227      66.866702      8977.431       399.46203      8858.9776      1.4587911      0.79920015   
     18700  -6114.3246     -6181.3739      67.049327      11527.101      400.55302      8864.6066      1.4578648      0.79920015   
     18800  -6112.223      -6178.7483      66.525338      15316.797      397.42271      8858.5717      1.458858       0.79920015   
     18900  -6114.8749     -6180.1229      65.24794       14620.702      389.79153      8847.2631      1.4607227      0.79920015   
     19000  -6116.2012     -6184.6874      68.486174      11899.258      409.13676      8826.6328      1.4641368      0.82280953   
     19100  -6114.5404     -6180.0982      65.557799      14904.442      391.64263      8795.8996      1.4692525      0.82280953   
     19200  -6115.8015     -6182.8238      67.022386      13977.904      400.39208      8764.3218      1.4745463      0.82280953   
     19300  -6115.2594     -6180.9063      65.646852      20469.751      392.17463      8735.8523      1.4793517      0.82280953   
     19400  -6117.2063     -6182.6054      65.399126      18406.534      390.69472      8719.309       1.4821585      0.82280953   
     19500  -6116.5108     -6185.1631      68.652277      17202.297      410.12906      8713.6474      1.4831215      0.82280953   
     19600  -6116.4783     -6181.9112      65.432912      19480.412      390.89655      8717.9461      1.4823902      0.82280953   
     19700  -6116.5261     -6183.127       66.600836      17594.417      397.87374      8735.2882      1.4794472      0.82280953   
     19800  -6116.8723     -6184.5139      67.641628      15575.034      404.09143      8762.7539      1.4748101      0.82280953   
     19900  -6117.6725     -6182.9753      65.302785      18788.042      390.11918      8796.3943      1.4691699      0.82280953   
     20000  -6118.47       -6183.3827      64.912668      13821.554      387.78861      8831.6507      1.4633049      0.88920858   
     20100  -6119.4977     -6182.9205      63.422818      12078.426      378.88824      8857.2693      1.4590725      0.88920858   
     20200  -6119.264      -6183.2126      63.948594      14136.97       382.02923      8867.4197      1.4574023      0.88920858   
     20300  -6119.6669     -6183.7634      64.09655       13046.438      382.91312      8859.8128      1.4586536      0.88920858   
     20400  -6118.2184     -6183.1597      64.941292      14344.678      387.95961      8835.7315      1.4626291      0.88920858   
     20500  -6116.7824     -6182.922       66.139622      12295.629      395.11844      8801.2839      1.4683537      0.88920858   
     20600  -6117.0692     -6183.3315      66.262363      14724.233      395.8517       8760.6548      1.4751635      0.88920858   
     20700  -6115.0925     -6181.1076      66.015118      16730.014      394.37465      8726.3001      1.4809711      0.88920858   
     20800  -6117.7881     -6184.5019      66.713784      18912.573      398.54849      8703.3475      1.4848767      0.88920858   
     20900  -6118.7204     -6183.8344      65.113947      19134.311      388.99105      8693.6854      1.486527       0.88920858   
     21000  -6118.714      -6183.4986      64.784635      11442.931      387.02374      8699.6511      1.4855076      0.82489377   
     21100  -6118.4075     -6183.281       64.873467      14642.87       387.55443      8722.0154      1.4816986      0.82489377   
     21200  -6119.9637     -6186.4053      66.441536      17494.235      396.92208      8757.0362      1.475773       0.82489377   
     21300  -6121.975      -6185.2911      63.316128      15599.468      378.25088      8794.7431      1.4694458      0.82489377   
     21400  -6122.2713     -6185.2836      63.012341      14011.532      376.43605      8828.2109      1.4638751      0.82489377   
     21500  -6123.0127     -6189.2189      66.206137      9098.6632      395.51581      8849.9898      1.4602726      0.82489377   
     21600  -6122.8916     -6185.793       62.901415      12445.159      375.77338      8853.544       1.4596864      0.82489377   
     21700  -6117.3393     -6181.5395      64.200148      16509.579      383.53202      8836.1875      1.4625536      0.82489377   
     21800  -6116.4523     -6179.9084      63.456048      19026.861      379.08676      8811.1175      1.466715       0.82489377   
     21900  -6114.0839     -6182.978       68.89409       14117.905      411.57365      8786.5714      1.4708124      0.82489377   
     22000  -6116.1445     -6182.8639      66.719428      14541.032      398.5822       8762.621       1.4748325      0.72724856   
     22100  -6115.6478     -6184.4647      68.816936      19718.918      411.11273      8742.0895      1.4782962      0.72724856   
     22200  -6114.8351     -6180.9795      66.144382      18335.946      395.14688      8731.1003      1.4801568      0.72724856   
     22300  -6116.0424     -6182.01        65.967635      11521.89       394.09099      8732.8064      1.4798677      0.72724856   
     22400  -6116.91       -6182.3179      65.407898      15944.324      390.74712      8743.8627      1.4779964      0.72724856   
     22500  -6117.8726     -6184.47        66.597327      16144.863      397.85278      8760.6247      1.4751685      0.72724856   
     22600  -6117.7958     -6183.7006      65.904756      18692.046      393.71535      8778.2436      1.4722077      0.72724856   
     22700  -6117.8584     -6182.4762      64.617816      17584.828      386.02716      8795.4147      1.4693335      0.72724856   
     22800  -6118.5941     -6184.7025      66.108385      14792.575      394.93183      8807.7524      1.4672753      0.72724856   
     22900  -6117.2052     -6183.8928      66.687619      12421.91       398.39218      8813.7855      1.466271       0.72724856   
     23000  -6117.344      -6184.8244      67.480392      11995.352      403.12821      8814.3735      1.4661732      0.81405997   
     23100  -6117.5704     -6183.3532      65.782835      11376.275      392.98699      8806.4835      1.4674868      0.81405997   
     23200  -6115.6678     -6182.3238      66.656031      16486.51       398.20348      8791.6244      1.469967       0.81405997   
     23300  -6115.1721     -6180.9873      65.815169      17727.228      393.18016      8779.3263      1.4720262      0.81405997   
     23400  -6114.3249     -6181.5276      67.202715      15446.115      401.46936      8775.1374      1.4727288      0.81405997   
     23500  -6115.4491     -6183.9386      68.489417      18525.971      409.15613      8777.6621      1.4723052      0.81405997   
     23600  -6116.4992     -6182.3157      65.816446      19025.257      393.18779      8783.7627      1.4712827      0.81405997   
     23700  -6117.7141     -6184.9579      67.243784      18418.005      401.71471      8790.851       1.4700963      0.81405997   
     23800  -6121.066      -6185.7352      64.669174      12080.642      386.33398      8794.2288      1.4695317      0.81405997   
     23900  -6120.4637     -6185.3948      64.931136      12923.084      387.89894      8788.7801      1.4704427      0.81405997   
     24000  -6118.8069     -6184.5318      65.724856      15259.856      392.64063      8777.1507      1.472391       0.71715428   
     24100  -6117.7709     -6183.7737      66.002762      17851.915      394.30084      8761.8917      1.4749552      0.71715428   
     24200  -6119.8596     -6186.6461      66.786454      16975.055      398.98262      8748.4793      1.4772165      0.71715428   
     24300  -6119.9644     -6183.3445      63.380082      14518.967      378.63294      8736.6494      1.4792167      0.71715428   
     24400  -6116.95       -6183.3996      66.449641      15185.767      396.97049      8730.634       1.4802359      0.71715428   
     24500  -6116.3261     -6182.9085      66.582433      17151.267      397.7638       8733.2462      1.4797931      0.71715428   
     24600  -6116.6219     -6183.5882      66.966206      17479.331      400.05646      8745.6958      1.4776866      0.71715428   
     24700  -6118.7505     -6185.2515      66.500975      12316.315      397.27717      8763.7748      1.4746383      0.71715428   
     24800  -6120.0824     -6184.1705      64.088017      11576.433      382.86214      8784.3273      1.4711881      0.71715428   
     24900  -6118.5399     -6183.3376      64.797707      14191.592      387.10184      8803.8375      1.4679278      0.71715428   
     25000  -6117.8817     -6184.3974      66.515734      16033.474      397.36534      8820.3784      1.465175       0.77786441   
     25100  -6118.2853     -6183.9708      65.685488      13135.986      392.40544      8827.849       1.4639351      0.77786441   
     25200  -6117.5609     -6182.6381      65.07721       18202.627      388.77159      8824.258       1.4645308      0.77786441   
     25300  -6116.5948     -6183.7972      67.202375      14140.069      401.46733      8813.9823      1.4662382      0.77786441   
     25400  -6116.6392     -6184.6162      67.976996      15389.07       406.09492      8796.9545      1.4690764      0.77786441   
     25500  -6115.6605     -6180.5362      64.875664      16275.565      387.56755      8775.7311      1.4726292      0.77786441   
     25600  -6115.8012     -6180.2227      64.421503      14449.487      384.85439      8760.3695      1.4752115      0.77786441   
     25700  -6114.0471     -6181.4465      67.399411      16216.876      402.64443      8754.6661      1.4761726      0.77786441   
     25800  -6114.719      -6182.7554      68.036329      17469.033      406.44938      8756.6995      1.4758298      0.77786441   
     25900  -6115.4228     -6181.1334      65.710619      13878.051      392.55558      8767.4147      1.4740261      0.77786441   
     26000  -6116.8355     -6182.4973      65.661783      14833.17       392.26383      8784.2098      1.4712078      0.84267917   
     26100  -6119.069      -6184.9084      65.839434      12595.72       393.32512      8802.9137      1.4680819      0.84267917   
     26200  -6120.0453     -6184.4308      64.385502      15881.932      384.63932      8817.3314      1.4656813      0.84267917   
     26300  -6118.6542     -6182.5343      63.880088      17478.845      381.61997      8827.0162      1.4640732      0.84267917   
     26400  -6117.1603     -6183.8993      66.739011      13343.506      398.6992       8828.0451      1.4639026      0.84267917   
     26500  -6118.7838     -6183.8806      65.096815      10135.529      388.88871      8819.8129      1.4652689      0.84267917   
     26600  -6117.2        -6181.7883      64.58831       11106.859      385.8509       8805.8879      1.467586       0.84267917   
     26700  -6117.233      -6182.9325      65.699423      14539.882      392.48869      8789.816       1.4702695      0.84267917   
     26800  -6117.4326     -6182.7644      65.331715      16003.077      390.292        8775.1889      1.4727202      0.84267917   
     26900  -6117.5352     -6182.8949      65.359753      11791.114      390.4595       8762.893       1.4747867      0.84267917   
     27000  -6117.9487     -6184.2269      66.278154      15880.306      395.94603      8752.7534      1.4764952      0.77617095   
     27100  -6116.9842     -6181.6891      64.704811      18575.152      386.54687      8744.7648      1.477844       0.77617095   
     27200  -6118.6422     -6184.2032      65.561003      18062.167      391.66177      8744.3596      1.4779125      0.77617095   
     27300  -6121.4006     -6186.9187      65.518163      13020.236      391.40585      8748.6819      1.4771823      0.77617095   
     27400  -6121.3152     -6184.1542      62.839031      16061.124      375.40069      8754.056       1.4762754      0.77617095   
     27500  -6120.3439     -6184.9021      64.558138      12518.535      385.67065      8763.0512      1.4747601      0.77617095   
     27600  -6117.067      -6183.8913      66.824261      13914.903      399.20848      8775.6539      1.4726421      0.77617095   
     27700  -6116.3473     -6184.4803      68.133023      13497.168      407.02703      8790.172       1.4702099      0.77617095   
     27800  -6117.4001     -6182.081       64.680826      15017.764      386.40359      8804.8778      1.4677544      0.77617095   
     27900  -6114.9687     -6183.0642      68.09552       15413.32       406.80299      8822.3292      1.464851       0.77617095   
     28000  -6116.6271     -6183.7166      67.089449      15211.072      400.79272      8839.9736      1.4619272      0.77258536   
     28100  -6117.2149     -6181.5153      64.300415      13067.052      384.13101      8848.9593      1.4604427      0.77258536   
     28200  -6115.9684     -6183.2584      67.290003      14113.739      401.99082      8851.4795      1.4600269      0.77258536   
     28300  -6114.9952     -6182.2996      67.30436       12792.601      402.07659      8848.7401      1.4604789      0.77258536   
     28400  -6113.4357     -6178.1743      64.738623      15081.072      386.74886      8842.4484      1.461518       0.77258536   
     28500  -6115.6598     -6182.5786      66.91881       11237.186      399.77331      8837.7553      1.4622941      0.77258536   
     28600  -6115.7034     -6180.1434      64.440021      14585.558      384.96502      8828.033       1.4639046      0.77258536   
     28700  -6115.8803     -6182.6443      66.764049      12647.019      398.84877      8817.0314      1.4657312      0.77258536   
     28800  -6116.7911     -6182.7397      65.948586      13638.34       393.97719      8805.1576      1.4677077      0.77258536   
     28900  -6116.6612     -6184.0318      67.370537      13115.479      402.47193      8794.2018      1.4695362      0.77258536   
     29000  -6117.3787     -6182.3431      64.964385      15775.704      388.09757      8784.8704      1.4710972      0.78811556   
     29100  -6116.4954     -6182.4677      65.972292      13652.298      394.11881      8778.542       1.4721577      0.78811556   
     29200  -6117.9205     -6185.5491      67.628589      14764.999      404.01354      8775.6995      1.4726345      0.78811556   
     29300  -6119.1742     -6185.8286      66.654402      16360.332      398.19374      8775.3426      1.4726944      0.78811556   
     29400  -6118.5656     -6182.2904      63.724797      16961.435      380.69226      8775.5539      1.4726589      0.78811556   
     29500  -6117.9356     -6182.2022      64.266607      18327.072      383.92904      8776.5308      1.472495       0.78811556   
     29600  -6118.5653     -6185.5405      66.975257      14371.413      400.11053      8779.8107      1.4719449      0.78811556   
     29700  -6117.6146     -6183.6929      66.078273      15729.848      394.75194      8783.9483      1.4712516      0.78811556   
     29800  -6116.7917     -6183.1553      66.363609      16102.783      396.45654      8790.0232      1.4702348      0.78811556   
     29900  -6118.487      -6183.5108      65.023713      12200.359      388.452        8799.7474      1.4686101      0.78811556   
     30000  -6116.7183     -6181.6387      64.92041       13089.079      387.83486      8808.5141      1.4671485      0.797817     
     30100  -6116.0054     -6182.8464      66.840999      15566.842      399.30847      8816.9575      1.4657435      0.797817     
     30200  -6117.4705     -6183.4233      65.952726      17981.637      394.00193      8822.9061      1.4647552      0.797817     
     30300  -6117.5147     -6182.0317      64.517019      18025.942      385.425        8823.4926      1.4646579      0.797817     
     30400  -6117.6195     -6183.7242      66.104648      15459.675      394.90951      8822.1955      1.4648732      0.797817     
     30500  -6115.7677     -6182.1638      66.396138      14547.723      396.65087      8819.1314      1.4653822      0.797817     
     30600  -6116.0322     -6183.2359      67.203769      16016.913      401.47566      8818.1435      1.4655463      0.797817     
     30700  -6116.8267     -6181.9049      65.078151      15780.791      388.77721      8815.9846      1.4659052      0.797817     
     30800  -6116.4338     -6182.9993      66.5655        15234.421      397.66264      8811.1655      1.466707       0.797817     
     30900  -6117.1515     -6180.9659      63.814443      14092.856      381.22781      8805.312       1.467682       0.797817     
     31000  -6117.1945     -6182.5734      65.378866      13788.581      390.57368      8797.8223      1.4689314      0.77493763   
     31100  -6117.1923     -6183.4407      66.248395      12622.794      395.76825      8791.0169      1.4700686      0.77493763   
     31200  -6118.7991     -6184.5517      65.752538      15069.6        392.806        8784.771       1.4711138      0.77493763   
     31300  -6120.0507     -6185.3257      65.27502       15481.448      389.95331      8776.2982      1.472534       0.77493763   
     31400  -6117.6024     -6182.6272      65.024806      13809.337      388.45853      8767.7418      1.4739711      0.77493763   
     31500  -6119.5683     -6185.7401      66.171863      18533.181      395.31105      8760.8703      1.4751272      0.77493763   
     31600  -6120.5849     -6185.7439      65.15899       17553.744      389.26014      8754.6829      1.4761697      0.77493763   
     31700  -6120.6371     -6186.3079      65.6708        13723.774      392.3177       8750.9838      1.4767937      0.77493763   
     31800  -6121.1843     -6185.7044      64.520127      15699.053      385.44357      8750.5846      1.4768611      0.77493763   
     31900  -6119.7721     -6184.5314      64.759316      17188.847      386.87249      8745.2104      1.4777687      0.77493763   
     32000  -6118.2856     -6184.7557      66.470141      15116.853      397.09297      8740.055       1.4786403      0.80040456   
     32100  -6115.7136     -6182.5309      66.817303      14593.221      399.16691      8742.3035      1.47826        0.80040456   
     32200  -6116.7863     -6184.7263      67.939973      17382.86       405.87375      8751.1216      1.4767705      0.80040456   
     32300  -6115.419      -6183.5593      68.140375      18186.895      407.07095      8765.4718      1.4743528      0.80040456   
     32400  -6114.4752     -6181.2428      66.7676        14745.174      398.86999      8782.0476      1.47157        0.80040456   
     32500  -6116.2176     -6181.8605      65.642908      12569.184      392.15107      8801.3039      1.4683504      0.80040456   
     32600  -6115.5869     -6182.0387      66.45184       11751.332      396.98363      8820.2981      1.4651883      0.80040456   
     32700  -6115.1523     -6180.5618      65.409441      14867.01       390.75634      8833.0311      1.4630762      0.80040456   
     32800  -6116.2341     -6181.5302      65.296124      12693.166      390.07938      8839.3715      1.4620268      0.80040456   
     32900  -6116.2859     -6181.9622      65.676249      14299.311      392.35025      8837.0413      1.4624123      0.80040456   
     33000  -6115.134      -6181.5203      66.386297      13561.913      396.59208      8826.5628      1.4641484      0.79267951   
     33100  -6114.6106     -6179.9529      65.342363      12484.523      390.35562      8811.3197      1.4666813      0.79267951   
     33200  -6114.9007     -6183.2169      68.316234      13732.283      408.12153      8792.5976      1.4698043      0.79267951   
     33300  -6114.6187     -6182.3893      67.77055       16487.918      404.86162      8775.0368      1.4727457      0.79267951   
     33400  -6115.6959     -6183.7285      68.032608      14699.653      406.42715      8762.5979      1.4748364      0.79267951   
     33500  -6113.749      -6182.6409      68.8919        16775.528      411.56056      8755.3601      1.4760555      0.79267951   
     33600  -6113.9692     -6182.4979      68.528773      15532.401      409.39125      8754.2212      1.4762476      0.79267951   
     33700  -6116.7444     -6182.8034      66.058906      14352.33       394.63625      8761.3072      1.4750536      0.79267951   
     33800  -6116.6308     -6182.8011      66.170365      10684.561      395.3021       8772.2388      1.4732155      0.79267951   
     33900  -6117.2274     -6180.9079      63.68059       16153.931      380.42817      8782.3757      1.471515       0.79267951   
     34000  -6117.5714     -6183.5127      65.941249      13728.077      393.93336      8794.2355      1.4695306      0.78590731   
     34100  -6117.9102     -6182.2758      64.365538      11416.427      384.52006      8802.9047      1.4680834      0.78590731   
     34200  -6117.0512     -6182.5915      65.540318      13117.952      391.53819      8801.9383      1.4682445      0.78590731   
     34300  -6116.4036     -6182.7129      66.309234      14856.715      396.13171      8796.548       1.4691442      0.78590731   
     34400  -6116.5961     -6184.5396      67.943508      18118.041      405.89487      8789.8881      1.4702574      0.78590731   
     34500  -6113.3092     -6181.788       68.478819      12285.786      409.09282      8780.5166      1.4718266      0.78590731   
     34600  -6112.0295     -6178.9594      66.929903      14770.329      399.83958      8774.1519      1.4728943      0.78590731   
     34700  -6114.2434     -6182.3658      68.12238       16631.093      406.96345      8777.7282      1.4722942      0.78590731   
     34800  -6114.8711     -6182.2465      67.375406      15608.702      402.50102      8786.9689      1.4707458      0.78590731   
     34900  -6115.7333     -6182.521       66.787667      15287.15       398.98986      8797.9277      1.4689139      0.78590731   
     35000  -6115.363      -6180.8033      65.440361      16024.478      390.94106      8810.2938      1.4668521      0.79360173   
     35100  -6114.9835     -6181.9129      66.929347      16979.106      399.83626      8823.6137      1.4646378      0.79360173   
     35200  -6117.9152     -6183.5687      65.653493      15013.678      392.2143       8832.5759      1.4631516      0.79360173   
     35300  -6117.0514     -6183.7605      66.709183      12237.046      398.521        8832.3673      1.4631862      0.79360173   
     35400  -6117.4971     -6182.7355      65.238344      8257.0757      389.7342       8824.9149      1.4644218      0.79360173   
     35500  -6117.3522     -6181.8607      64.508562      11005.224      385.37448      8811.8965      1.4665853      0.79360173   
     35600  -6118.4419     -6183.8771      65.435246      12619.764      390.9105       8796.6442      1.4691282      0.79360173   
     35700  -6118.8969     -6184.0942      65.197303      14871.362      389.48903      8779.8223      1.471943       0.79360173   
     35800  -6118.0064     -6184.9968      66.990385      14853.443      400.2009       8760.6291      1.4751678      0.79360173   
     35900  -6116.7426     -6181.2986      64.556011      12689.533      385.65794      8742.5923      1.4782112      0.79360173   
     36000  -6117.0638     -6183.2988      66.234956      13081.646      395.68797      8734.5425      1.4795735      0.80868356   
     36100  -6116.2989     -6182.9234      66.624484      17702.502      398.01501      8734.3377      1.4796082      0.80868356   
     36200  -6115.6135     -6182.5907      66.97721       15258.407      400.1222       8743.4671      1.4780633      0.80868356   
     36300  -6114.3776     -6180.5805      66.202821      16969.354      395.49599      8761.2257      1.4750673      0.80868356   
     36400  -6114.6256     -6183.3456      68.72          13517.641      410.53363      8785.3718      1.4710132      0.80868356   
     36500  -6114.5782     -6180.7111      66.132866      11969.358      395.07808      8810.3995      1.4668345      0.80868356   
     36600  -6116.6088     -6183.4474      66.838645      17044.532      399.29441      8831.6034      1.4633128      0.80868356   
     36700  -6117.1632     -6181.9768      64.813575      15801.161      387.19663      8842.5098      1.4615079      0.80868356   
     36800  -6117.3371     -6182.2979      64.960823      10203.32       388.07629      8841.4647      1.4616806      0.80868356   
     36900  -6118.1011     -6183.1925      65.09143       14163.839      388.85654      8828.8502      1.4637691      0.80868356   
     37000  -6118.6489     -6182.7295      64.080604      17282.726      382.81786      8807.4866      1.4673196      0.89753534   
     37100  -6119.0348     -6187.9003      68.86545       20707.475      411.40255      8780.6059      1.4718116      0.89753534   
     37200  -6118.46       -6185.3965      66.936523      17145.9        399.87913      8747.3018      1.4774153      0.89753534   
     37300  -6117.3452     -6181.4608      64.115615      17399.372      383.02701      8716.7231      1.4825982      0.89753534   
     37400  -6118.7654     -6184.5135      65.748076      15909.554      392.77934      8697.7377      1.4858344      0.89753534   
     37500  -6119.8485     -6183.5358      63.687281      15495.742      380.46814      8686.1986      1.4878083      0.89753534   
     37600  -6117.4316     -6183.0307      65.599112      16527.274      391.88944      8683.8638      1.4882083      0.89753534   
     37700  -6116.9366     -6184.3296      67.392938      14416.812      402.60576      8695.4523      1.4862249      0.89753534   
     37800  -6116.4158     -6183.3718      66.956089      13753.287      399.99602      8715.8955      1.482739       0.89753534   
     37900  -6116.7894     -6183.7278      66.938461      18013.702      399.89071      8741.7155      1.4783595      0.89753534   
     38000  -6117.1534     -6183.1333      65.979883      15117.209      394.16416      8768.6607      1.4738166      0.84100973   
     38100  -6118.4549     -6181.6751      63.220181      13842.919      377.67769      8790.5255      1.4701508      0.84100973   
     38200  -6119.564      -6186.188       66.624033      14797.705      398.01232      8806.5528      1.4674752      0.84100973   
     38300  -6120.9259     -6185.5499      64.624005      12824.147      386.06414      8809.6321      1.4669623      0.84100973   
     38400  -6119.9868     -6185.9811      65.994251      14435.974      394.25         8798.6748      1.4687891      0.84100973   
     38500  -6118.6666     -6184.9116      66.244923      12965.114      395.74751      8775.2062      1.4727173      0.84100973   
     38600  -6119.6138     -6184.6969      65.083018      12358.984      388.80629      8747.6462      1.4773572      0.84100973   
     38700  -6116.1401     -6184.6229      68.482818      13642.476      409.11671      8719.4796      1.4821295      0.84100973   
     38800  -6113.4415     -6179.9346      66.493038      19069.987      397.22975      8698.8651      1.4856418      0.84100973   
     38900  -6112.7986     -6183.1417      70.343169      21699.783      420.23045      8695.2351      1.486262       0.84100973   
     39000  -6113.2305     -6181.7991      68.568659      21212.806      409.62952      8708.8549      1.4839377      0.77978082   
     39100  -6115.4115     -6183.223       67.811526      15635.276      405.10641      8735.8895      1.4793454      0.77978082   
     39200  -6115.6274     -6181.1366      65.509179      14974.072      391.35217      8770.8164      1.4734544      0.77978082   
     39300  -6114.8327     -6180.9427      66.109976      15253.528      394.94134      8807.2984      1.467351       0.77978082   
     39400  -6116.5834     -6185.2841      68.700728      13786.44       410.4185       8840.5526      1.4618315      0.77978082   
     39500  -6116.3608     -6182.9105      66.549704      14219.863      397.56827      8862.8268      1.4581576      0.77978082   
     39600  -6115.6897     -6182.3636      66.673855      12162.491      398.30995      8870.8964      1.4568311      0.77978082   
     39700  -6113.2817     -6179.8676      66.585889      17832.829      397.78444      8864.3531      1.4579065      0.77978082   
     39800  -6113.5618     -6182.3899      68.828132      16511.815      411.17962      8849.4145      1.4603676      0.77978082   
     39900  -6111.7499     -6180.4461      68.6962        13346.862      410.39146      8828.9875      1.4637463      0.77978082   
     40000  -6110.6465     -6177.2748      66.628331      12748.533      398.03799      8810.4571      1.4668249      0.80359592   
     40100  -6112.0964     -6181.4328      69.336446      17602.336      414.21628      8801.5378      1.4683113      0.80359592   
     40200  -6115.2287     -6182.6974      67.468796      16221.123      403.05894      8797.9063      1.4689174      0.80359592   
     40300  -6117.8342     -6182.2518      64.41761       15310.773      384.83114      8796.2118      1.4692004      0.80359592   
     40400  -6119.7832     -6186.1737      66.390522      13712.537      396.61732      8795.1274      1.4693815      0.80359592   
     40500  -6120.3413     -6182.2332      61.891829      16960.562      369.74211      8789.5789      1.4703091      0.80359592   
     40600  -6118.4318     -6186.0074      67.575632      17020.549      403.69717      8786.465       1.4708302      0.80359592   
     40700  -6120.4902     -6184.8568      64.366603      15667.725      384.52642      8781.1238      1.4717248      0.80359592   
     40800  -6120.1297     -6185.5536      65.423951      15203.556      390.84302      8772.9528      1.4730956      0.80359592   
     40900  -6118.4077     -6183.8381      65.430461      17787.063      390.88191      8768.1344      1.4739051      0.80359592   
     41000  -6117.6763     -6184.7467      67.070467      14376.039      400.67932      8767.3053      1.4740445      0.78935727   
     41100  -6116.354      -6181.6596      65.305551      13420.481      390.1357       8771.5376      1.4733332      0.78935727   
     41200  -6118.4286     -6183.8765      65.447916      12167.968      390.98619      8784.142       1.4712191      0.78935727   
     41300  -6119.5217     -6185.2595      65.737787      14432.549      392.71788      8796.4789      1.4691558      0.78935727   
     41400  -6119.9061     -6184.6038      64.697702      14200.628      386.5044       8800.5008      1.4684844      0.78935727   
     41500  -6119.2739     -6183.9788      64.704837      16402.165      386.54703      8799.9357      1.4685787      0.78935727   
     41600  -6121.5287     -6185.5762      64.047483      14529.587      382.62         8795.3272      1.4693482      0.78935727   
     41700  -6120.0666     -6185.8961      65.82948       18431.366      393.26565      8781.6436      1.4716377      0.78935727   
     41800  -6121.4474     -6186.2315      64.784131      13865.169      387.02073      8759.9789      1.4752773      0.78935727   
     41900  -6121.1081     -6186.4395      65.331425      15458.892      390.29027      8732.8563      1.4798592      0.78935727   
     42000  -6118.6241     -6184.6097      65.985584      15926.977      394.19822      8710.4258      1.48367        0.73554432   
     42100  -6120.5704     -6183.8929      63.322489      16840.804      378.28887      8699.3099      1.4855659      0.73554432   
     42200  -6120.352      -6185.8532      65.501269      15717.456      391.30492      8698.8395      1.4856462      0.73554432   
     42300  -6119.2558     -6184.8264      65.570614      15245.125      391.71918      8715.0732      1.4828789      0.73554432   
     42400  -6117.319      -6184.5101      67.191096      14739.941      401.39995      8746.4346      1.4775618      0.73554432   
     42500  -6117.0303     -6183.2994      66.269102      13422.653      395.89196      8789.8431      1.4702649      0.73554432   
     42600  -6115.356      -6179.9385      64.582414      13482.024      385.81567      8839.8398      1.4619493      0.73554432   
     42700  -6116.4207     -6181.8878      65.467046      11812.143      391.10047      8893.0765      1.4531977      0.73554432   
     42800  -6116.4668     -6182.0866      65.619859      7378.9655      392.01337      8936.0097      1.4462157      0.73554432   
     42900  -6116.6269     -6181.2618      64.634858      13457.397      386.12898      8959.2629      1.4424622      0.73554432   
     43000  -6115.9191     -6181.5402      65.621094      13913.133      392.02076      8958.221       1.4426299      0.74909587   
     43100  -6114.6508     -6181.1983      66.547453      11921.688      397.55483      8934.1051      1.446524       0.74909587   
     43200  -6116.8281     -6184.5076      67.679542      12493.445      404.31793      8892.1243      1.4533533      0.74909587   
     43300  -6117.6121     -6181.5726      63.96048       14320.407      382.10024      8835.0602      1.4627402      0.74909587   
     43400  -6117.1857     -6183.6513      66.465587      15450.226      397.06576      8774.4113      1.4728507      0.74909587   
     43500  -6117.5608     -6181.5289      63.96809       16896.243      382.1457       8718.9537      1.4822189      0.74909587   
     43600  -6119.3937     -6186.6235      67.229749      15695.025      401.63086      8680.7029      1.4887502      0.74909587   
     43700  -6119.5966     -6183.8465      64.249917      16650.245      383.82934      8662.1599      1.4919371      0.74909587   
     43800  -6120.7169     -6183.978       63.261082      15304.73       377.92203      8668.5723      1.4908335      0.74909587   
     43900  -6123.2604     -6184.2664      61.005979      16228.531      364.45003      8696.1601      1.486104       0.74909587   
     44000  -6122.0568     -6186.7873      64.730561      14967.091      386.7007       8735.0933      1.4794802      0.81604958   
     44100  -6121.4006     -6184.9929      63.592322      14363.472      379.90086      8778.0651      1.4722376      0.81604958   
     44200  -6122.3171     -6186.4886      64.171566      14642.745      383.36126      8818.4151      1.4655012      0.81604958   
     44300  -6122.8881     -6185.3845      62.4964        10336.265      373.35381      8845.2374      1.4610572      0.81604958   
     44400  -6124.0391     -6186.0955      62.056427      10595.622      370.72542      8858.6367      1.4588473      0.81604958   
     44500  -6120.8294     -6186.202       65.37258       13720.605      390.53613      8854.1227      1.459591       0.81604958   
     44600  -6119.6162     -6183.2086      63.592454      10821.008      379.90165      8833.6514      1.4629735      0.81604958   
     44700  -6117.3965     -6184.1505      66.75399       11578.498      398.78868      8810.75        1.4667761      0.81604958   
     44800  -6116.4245     -6183.778       67.353589      13793.571      402.37069      8789.0119      1.470404       0.81604958   
     44900  -6117.9334     -6183.5085      65.575161      17258.52       391.74635      8773.9659      1.4729255      0.81604958   
     45000  -6117.703      -6184.3298      66.62681       16523.318      398.0289       8766.2281      1.4742256      0.71900866   
     45100  -6117.1721     -6182.7401      65.568016      19256.537      391.70367      8765.9111      1.4742789      0.71900866   
     45200  -6117.9721     -6183.8571      65.885059      18264.578      393.59768      8771.1476      1.4733988      0.71900866   
     45300  -6118.4617     -6182.8414      64.379704      13936.349      384.60468      8781.037       1.4717394      0.71900866   
     45400  -6119.0739     -6184.0109      64.936924      15502.736      387.93352      8794.8569      1.4694267      0.71900866   
     45500  -6117.5935     -6182.8432      65.24972       15612.499      389.80216      8807.9462      1.467243       0.71900866   
     45600  -6117.6156     -6182.7298      65.114174      12442.571      388.99241      8821.7634      1.464945       0.71900866   
     45700  -6117.8678     -6184.7576      66.889801      11843.29       399.60002      8835.0426      1.4627431      0.71900866   
     45800  -6117.3545     -6182.3246      64.970114      13126.866      388.1318       8842.7321      1.4614712      0.71900866   
     45900  -6120.2047     -6183.4425      63.237777      16086.045      377.78281      8848.3899      1.4605367      0.71900866   
     46000  -6116.5563     -6180.6898      64.133535      13018.018      383.13407      8848.8976      1.4604529      0.82156107   
     46100  -6117.7698     -6183.4194      65.649646      17407.593      392.19132      8843.732       1.4613059      0.82156107   
     46200  -6118.9992     -6185.2042      66.205023      17803.189      395.50915      8834.6851      1.4628023      0.82156107   
     46300  -6119.2258     -6185.22        65.994182      19074.558      394.24959      8825.0485      1.4643996      0.82156107   
     46400  -6119.6772     -6184.0837      64.406532      17887.467      384.76496      8814.6425      1.4661284      0.82156107   
     46500  -6118.3        -6182.2238      63.923756      16776.089      381.88085      8803.9308      1.4679122      0.82156107   
     46600  -6115.87       -6181.2443      65.37432       18887.236      390.54652      8798.8362      1.4687622      0.82156107   
     46700  -6116.1363     -6182.0813      65.944987      19456.262      393.95569      8801.1127      1.4683823      0.82156107   
     46800  -6116.0675     -6183.5193      67.451786      18945.388      402.95731      8810.6325      1.4667957      0.82156107   
     46900  -6115.6236     -6181.8766      66.253063      17493.988      395.79614      8826.1989      1.4642088      0.82156107   
     47000  -6117.0943     -6182.4         65.305672      15479.013      390.13642      8842.3226      1.4615388      0.70933596   
     47100  -6117.7601     -6183.6117      65.851639      11808.873      393.39803      8855.0111      1.4594446      0.70933596   
     47200  -6117.7411     -6181.7734      64.032327      9148.7683      382.52945      8859.7603      1.4586623      0.70933596   
     47300  -6117.0693     -6182.0459      64.97666       12149.852      388.1709       8858.6455      1.4588458      0.70933596   
     47400  -6116.8028     -6183.8357      67.032846      14956.834      400.45457      8851.062       1.4600957      0.70933596   
     47500  -6115.7119     -6182.6345      66.922617      16678.897      399.79606      8839.9542      1.4619304      0.70933596   
     47600  -6115.5351     -6181.0466      65.511594      12929.328      391.3666       8829.5829      1.4636476      0.70933596   
     47700  -6116.4151     -6182.3944      65.979317      14971.986      394.16078      8820.0753      1.4652253      0.70933596   
     47800  -6117.4449     -6182.1119      64.666995      14728.395      386.32096      8811.1687      1.4667064      0.70933596   
     47900  -6120.0047     -6183.3558      63.351103      14770.049      378.45982      8805.4141      1.467665       0.70933596   
     48000  -6121.3084     -6184.9672      63.658851      14555.222      380.2983       8797.5658      1.4689743      0.79583677   
     48100  -6123.3509     -6185.9387      62.587885      13172.1        373.90035      8789.2616      1.4703622      0.79583677   
     48200  -6123.5083     -6184.66        61.151683      14561.618      365.32047      8778.7387      1.4721247      0.79583677   
     48300  -6122.2035     -6187.3476      65.144026      14790.653      389.17075      8769.6346      1.4736529      0.79583677   
     48400  -6121.8191     -6185.7783      63.959234      20016.674      382.0928       8763.9296      1.4746122      0.79583677   
     48500  -6121.9829     -6185.4721      63.489188      16580.193      379.28474      8766.7864      1.4741317      0.79583677   
     48600  -6122.2682     -6185.7516      63.483418      10691.273      379.25026      8775.0967      1.4727357      0.79583677   
     48700  -6117.883      -6182.1245      64.241558      13595.866      383.7794       8786.1091      1.4708898      0.79583677   
     48800  -6117.9714     -6182.5387      64.567386      13800.384      385.7259       8800.4351      1.4684953      0.79583677   
     48900  -6118.7859     -6184.4533      65.667414      14233.003      392.29747      8818.2423      1.4655299      0.79583677   
     49000  -6118.0243     -6182.7391      64.714755      15593.956      386.60628      8834.0581      1.4629061      0.82861567   
     49100  -6114.0906     -6182.4287      68.338028      13724.967      408.25173      8846.201       1.4608981      0.82861567   
     49200  -6114.9276     -6183.2701      68.342456      13050.718      408.27818      8856.9108      1.4591315      0.82861567   
     49300  -6115.816      -6182.8249      67.008844      12483.116      400.31118      8861.2545      1.4584163      0.82861567   
     49400  -6112.8164     -6179.9245      67.108073      16327.483      400.90397      8860.5806      1.4585272      0.82861567   
     49500  -6113.1342     -6181.2164      68.082165      15184.612      406.7232       8860.1662      1.4585954      0.82861567   
     49600  -6115.0943     -6182.2951      67.200856      13988.333      401.45826      8858.5472      1.458862       0.82861567   
     49700  -6116.0003     -6182.7203      66.719936      13871.399      398.58524      8851.7337      1.4599849      0.82861567   
     49800  -6115.5918     -6180.9808      65.38901       18527.027      390.63428      8841.0921      1.4617423      0.82861567   
     49900  -6117.0677     -6183.011       65.943361      15710.373      393.94598      8826.9478      1.4640846      0.82861567   
     50000  -6114.9068     -6181.8434      66.936607      14920.766      399.87964      8808.7909      1.4671024      0.78046763   
     50100  -6116.3852     -6182.7159      66.330639      14325.939      396.25958      8792.3446      1.4698466      0.78046763   
     50200  -6117.9483     -6184.0203      66.071998      14243.68       394.71445      8781.2394      1.4717054      0.78046763   
     50300  -6117.9964     -6184.2603      66.263847      15015.784      395.86056      8773.7279      1.4729654      0.78046763   
     50400  -6115.7471     -6182.6515      66.90435       12492.752      399.68693      8773.5032      1.4730031      0.78046763   
     50500  -6114.7397     -6182.2676      67.527874      19551.024      403.41186      8785.7973      1.470942       0.78046763   
     50600  -6116.9533     -6182.1295      65.176178      16310.03       389.36282      8806.9811      1.4674038      0.78046763   
     50700  -6115.9544     -6183.5075      67.553109      16125.146      403.56262      8828.6989      1.4637942      0.78046763   
     50800  -6116.3757     -6182.6093      66.2336        15163.16       395.67987      8847.9409      1.4606108      0.78046763   
     50900  -6116.5636     -6183.4497      66.886099      13444.309      399.5779       8864.0252      1.4579604      0.78046763   
     51000  -6118.4632     -6182.5459      64.082721      12958.844      382.8305       8874.6282      1.4562185      0.7704564    
     51100  -6117.2743     -6182.5253      65.250994      11171.604      389.80977      8877.5523      1.4557389      0.7704564    
     51200  -6117.5944     -6182.4429      64.848474      13639.14       387.40512      8869.4877      1.4570625      0.7704564    
     51300  -6116.9408     -6182.7328      65.791968      15335.01       393.04155      8853.7487      1.4596527      0.7704564    
     51400  -6116.3218     -6180.5462      64.224363      17395.159      383.67668      8834.2736      1.4628705      0.7704564    
     51500  -6116.4532     -6183.7519      67.298783      14559.913      402.04328      8818.5828      1.4654733      0.7704564    
     51600  -6115.8877     -6182.9898      67.10209       15166.245      400.86823      8804.8808      1.4677539      0.7704564    
     51700  -6114.8646     -6180.4997      65.635173      18985.901      392.10486      8797.5121      1.4689832      0.7704564    
     51800  -6116.9223     -6182.9821      66.059822      16633.604      394.64172      8798.9279      1.4687469      0.7704564    
     51900  -6114.8828     -6181.0325      66.149699      16429.65       395.17864      8804.4534      1.4678251      0.7704564    
     52000  -6115.6131     -6183.3344      67.721324      15770.229      404.56754      8816.486       1.4658219      0.74356373   
     52100  -6115.3699     -6180.9877      65.617792      13275.36       392.00103      8832.753       1.4631223      0.74356373   
     52200  -6115.367      -6182.1637      66.796662      14473.908      399.0436       8850.1196      1.4602512      0.74356373   
     52300  -6114.6498     -6178.6333      63.983509      12415.104      382.23781      8864.631       1.4578608      0.74356373   
     52400  -6115.9707     -6183.3659      67.395255      14367.567      402.6196       8875.6484      1.4560511      0.74356373   
     52500  -6115.755      -6179.1715      63.416585      15562.367      378.85101      8878.5505      1.4555752      0.74356373   
     52600  -6116.0697     -6181.4558      65.386173      11691.696      390.61733      8880.1314      1.4553161      0.74356373   
     52700  -6115.9488     -6182.5412      66.592366      8845.7346      397.82314      8878.2717      1.4556209      0.74356373   
     52800  -6115.3217     -6182.577       67.255295      10344.935      401.78348      8872.3162      1.456598       0.74356373   
     52900  -6115.2721     -6181.5227      66.250634      11950.511      395.78163      8862.6414      1.4581881      0.74356373   
     53000  -6115.1377     -6182.4477      67.310095      11834.973      402.11085      8851.7679      1.4599793      0.80996859   
     53100  -6117.6278     -6182.9948      65.367022      13981.459      390.50293      8838.6826      1.4621407      0.80996859   
     53200  -6117.1803     -6181.057       63.876695      9201.926       381.59971      8823.6703      1.4646284      0.80996859   
     53300  -6116.6923     -6182.6661      65.973756      14508.579      394.12756      8813.3175      1.4663488      0.80996859   
     53400  -6119.4685     -6186.0112      66.54275       13023.533      397.52673      8806.8792      1.4674208      0.80996859   
     53500  -6119.0922     -6183.7169      64.624686      12014.696      386.06821      8799.0095      1.4687333      0.80996859   
     53600  -6117.6751     -6184.5894      66.914263      12989.63       399.74615      8791.8373      1.4699314      0.80996859   
     53700  -6119.9224     -6184.4963      64.573855      13883.86       385.76454      8786.0093      1.4709065      0.80996859   
     53800  -6118.7482     -6184.9308      66.182603      18844.494      395.37521      8781.894       1.4715958      0.80996859   
     53900  -6117.5696     -6184.2864      66.716832      14392.498      398.5667       8780.1949      1.4718805      0.80996859   
     54000  -6119.5169     -6183.4623      63.945458      12069.681      382.01049      8784.3315      1.4711874      0.71456326   
     54100  -6117.1669     -6182.3952      65.228315      16844.821      389.67429      8790.4423      1.4701647      0.71456326   
     54200  -6117.2288     -6181.6019      64.373167      14553.623      384.56563      8798.7919      1.4687696      0.71456326   
     54300  -6115.2819     -6183.8296      68.547688      13149.079      409.50424      8809.6007      1.4669675      0.71456326   
     54400  -6114.9379     -6182.0592      67.121302      13247.949      400.98301      8819.0266      1.4653996      0.71456326   
     54500  -6117.0909     -6183.8447      66.753862      10627.086      398.78791      8825.262       1.4643642      0.71456326   
     54600  -6117.2213     -6184.1057      66.884406      12319.113      399.56779      8825.7918      1.4642763      0.71456326   
     54700  -6119.2432     -6182.8908      63.647567      11135.7        380.23089      8819.4036      1.4653369      0.71456326   
     54800  -6120.4634     -6184.2733      63.809839      12096.008      381.2003       8805.3158      1.4676814      0.71456326   
     54900  -6119.1141     -6185.2506      66.13643       10276.224      395.09937      8783.6896      1.4712949      0.71456326   
     55000  -6118.6032     -6184.0077      65.404547      14384.641      390.7271       8758.8873      1.4754612      0.84468475   
     55100  -6117.7681     -6185.3221      67.553995      12234.374      403.56792      8737.784       1.4790246      0.84468475   
     55200  -6116.9525     -6181.5782      64.625657      15928.754      386.07401      8725.7995      1.481056       0.84468475   
     55300  -6113.6684     -6180.8109      67.142512      16473.385      401.10971      8725.6396      1.4810832      0.84468475   
     55400  -6116.2665     -6179.7525      63.486008      14444.656      379.26574      8736.8225      1.4791874      0.84468475   
     55500  -6117.7253     -6183.4848      65.759535      15670.29       392.8478       8757.9737      1.4756151      0.84468475   
     55600  -6117.4695     -6184.008       66.538492      14604.864      397.50129      8783.7533      1.4712843      0.84468475   
     55700  -6118.8679     -6184.3369      65.468999      15027.701      391.11214      8808.9491      1.467076       0.84468475   
     55800  -6119.6071     -6185.7394      66.132273      13833.086      395.07454      8828.5008      1.463827       0.84468475   
     55900  -6118.11       -6182.5762      64.466159      15484.4        385.12117      8834.8987      1.462767       0.84468475   
     56000  -6116.1585     -6182.1131      65.954513      12860.031      394.0126       8834.4505      1.4628412      0.77486276   
     56100  -6116.038      -6181.7523      65.714318      13446.29       392.57768      8827.6161      1.4639737      0.77486276   
     56200  -6115.7591     -6180.0263      64.267226      11336.14       383.93274      8816.4225      1.4658324      0.77486276   
     56300  -6116.2439     -6181.5968      65.352839      16334.558      390.4182       8805.3136      1.4676817      0.77486276   
     56400  -6117.2548     -6184.1896      66.934799      17895.495      399.86884      8793.5501      1.4696451      0.77486276   
     56500  -6115.7791     -6181.8654      66.086324      16108.142      394.80004      8783.5789      1.4713135      0.77486276   
     56600  -6116.3611     -6183.1748      66.813664      14032.235      399.14517      8779.3543      1.4720215      0.77486276   
     56700  -6118.4381     -6184.5507      66.112585      15841.214      394.95692      8778.6265      1.4721435      0.77486276   
     56800  -6119.7019     -6185.1377      65.435854      13647.27       390.91413      8777.6672      1.4723044      0.77486276   
     56900  -6119.4686     -6182.4493      62.980767      13603.795      376.24743      8776.2027      1.4725501      0.77486276   
     57000  -6121.3866     -6185.847       64.460422      19271.536      385.0869       8778.5559      1.4721553      0.79858677   
[...]
   2186000  -6120.8587     -6187.8546      66.995865      14013.24       400.23364      8741.8556      1.4783358      0.80906403   
   2186100  -6122.8764     -6186.6372      63.760814      9610.2146      380.90743      8731.7031      1.4800547      0.80906403   
   2186200  -6122.4107     -6189.8212      67.410532      12129.459      402.71087      8727.2349      1.4808124      0.80906403   
   2186300  -6120.15       -6187.0407      66.890705      15755.513      399.60541      8727.6762      1.4807375      0.80906403   
   2186400  -6116.9798     -6184.2522      67.272403      15844.111      401.88568      8739.8816      1.4786697      0.80906403   
   2186500  -6117.2862     -6185.1675      67.88135       12691.078      405.52353      8767.8298      1.4739563      0.80906403   
   2186600  -6117.733      -6185.2748      67.541862      14739.464      403.49543      8807.5384      1.467311       0.80906403   
   2186700  -6116.4599     -6183.1626      66.702641      13950.068      398.48192      8853.4116      1.4597082      0.80906403   
   2186800  -6114.6226     -6181.488       66.865346      11846.585      399.45392      8899.7441      1.4521089      0.80906403   
   2186900  -6117.1974     -6184.1693      66.971837      11889.737      400.0901       8943.2214      1.4450495      0.80906403   
   2187000  -6116.77       -6185.7194      68.949426      6452.5729      411.90423      8971.3616      1.4405169      0.75543285   
   2187100  -6118.266      -6184.4742      66.208275      10164.783      395.52858      8975.5819      1.4398396      0.75543285   
   2187200  -6119.9508     -6184.8187      64.86795       13866.762      387.52147      8952.8071      1.4435023      0.75543285   
   2187300  -6120.1324     -6186.3501      66.217684      16508.165      395.58479      8905.5897      1.4511558      0.75543285   
   2187400  -6120.6937     -6187.6239      66.93018       19209.747      399.84124      8841.2271      1.4617199      0.75543285   
   2187500  -6120.2169     -6185.9099      65.692906      22381.305      392.44976      8766.5736      1.4741675      0.75543285   
   2187600  -6119.7967     -6185.1065      65.309767      20545.217      390.16089      8697.0398      1.4859536      0.75543285   
   2187700  -6118.8386     -6187.3269      68.488308      19632.941      409.14951      8649.229       1.4941676      0.75543285   
   2187800  -6120.2332     -6187.256       67.022827      16750.092      400.39471      8627.8668      1.4978671      0.75543285   
   2187900  -6121.4015     -6187.46        66.058495      14911.806      394.63379      8634.7026      1.4966813      0.75543285   
   2188000  -6119.8182     -6183.1044      63.286109      18486.155      378.07154      8667.9812      1.4909352      0.83974664   
   2188100  -6119.3559     -6186.6283      67.272419      16428.133      401.88578      8722.153       1.4816752      0.83974664   
   2188200  -6120.4212     -6186.9424      66.521197      14778.625      397.39797      8787.1864      1.4707094      0.83974664   
   2188300  -6120.6893     -6184.8585      64.169253      11123.567      383.34745      8849.1531      1.4604107      0.83974664   
   2188400  -6120.8793     -6185.2299      64.350602      11248.719      384.43083      8897.8161      1.4524236      0.83974664   
   2188500  -6120.5081     -6185.0887      64.5806        10196.934      385.80484      8923.4393      1.448253       0.83974664   
   2188600  -6118.8019     -6186.4007      67.59884       9908.1129      403.83582      8921.8876      1.4485049      0.83974664   
   2188700  -6117.4862     -6181.9075      64.421281      12489.72       384.85306      8895.7166      1.4527664      0.83974664   
   2188800  -6115.4446     -6182.6853      67.240656      14107.397      401.69603      8855.0631      1.459436       0.83974664   
   2188900  -6115.6925     -6183.1026      67.410095      19766.284      402.70826      8812.531       1.4664797      0.83974664   
   2189000  -6116.5295     -6185.5424      69.012865      18256.006      412.28321      8779.1093      1.4720625      0.79076399   
   2189100  -6118.8687     -6186.7948      67.926077      15130.875      405.79073      8751.0013      1.4767908      0.79076399   
   2189200  -6118.9263     -6185.8119      66.885591      13096.052      399.57487      8729.1853      1.4804816      0.79076399   
   2189300  -6119.5068     -6186.1683      66.661504      15372.673      398.23617      8716.8899      1.4825698      0.79076399   
   2189400  -6118.2451     -6184.055       65.809862      17164.923      393.14846      8715.3485      1.482832       0.79076399   
   2189500  -6116.728      -6185.1025      68.374541      19509.381      408.46986      8727.5272      1.4807628      0.79076399   
   2189600  -6117.1268     -6184.9115      67.784723      16413.646      404.94628      8751.8555      1.4766466      0.79076399   
   2189700  -6117.3374     -6185.0709      67.733479      18266.003      404.64015      8784.5556      1.4711499      0.79076399   
   2189800  -6119.1633     -6188.2432      69.079864      18012.722      412.68346      8821.0561      1.4650624      0.79076399   
   2189900  -6120.7598     -6184.2453      63.485538      13747.52       379.26293      8850.8996      1.4601225      0.79076399   
   2190000  -6119.6238     -6185.7458      66.121953      11337.01       395.01289      8867.0442      1.457464       0.74786182   
   2190100  -6117.6581     -6182.6252      64.96704       13786.209      388.11343      8867.6214      1.4573691      0.74786182   
   2190200  -6118.7677     -6187.3073      68.539621      10894.197      409.45605      8857.4076      1.4590497      0.74786182   
   2190300  -6117.9737     -6182.6582      64.684493      10603.37       386.42549      8833.7091      1.4629639      0.74786182   
   2190400  -6119.1275     -6186.8785      67.751027      12150.423      404.74498      8802.4775      1.4681546      0.74786182   
   2190500  -6117.5475     -6184.5556      67.008029      16184.271      400.30631      8765.6678      1.4743198      0.74786182   
   2190600  -6119.8986     -6184.5183      64.619751      21721.6        386.03873      8733.486       1.4797525      0.74786182   
   2190700  -6120.8668     -6188.7066      67.839802      14413.735      405.27533      8711.4195      1.4835008      0.74786182   
   2190800  -6123.0465     -6186.1038      63.057322      13378.268      376.70477      8698.7171      1.4856671      0.74786182   
   2190900  -6124.3812     -6188.6032      64.222028      12629.224      383.66273      8695.3877      1.486236       0.74786182   
   2191000  -6125.0331     -6188.1975      63.164396      12580.176      377.34442      8696.3528      1.486071       0.85790613   
   2191100  -6122.4956     -6188.5722      66.076554      15070.19       394.74167      8703.1808      1.4849051      0.85790613   
   2191200  -6122.427      -6186.624       64.197005      16550.928      383.51324      8719.2137      1.4821747      0.85790613   
   2191300  -6123.7493     -6189.0741      65.32479       13709.55       390.25063      8742.6601      1.4781997      0.85790613   
   2191400  -6122.7072     -6187.7086      65.001462      18082.833      388.31907      8766.0672      1.4742527      0.85790613   
   2191500  -6121.6691     -6185.5906      63.921518      14664.094      381.86748      8791.6235      1.4699672      0.85790613   
   2191600  -6121.9762     -6187.6289      65.652776      15747.63       392.21002      8817.5281      1.4656486      0.85790613   
   2191700  -6123.4797     -6187.4315      63.951769      8914.23        382.0482       8835.0884      1.4627355      0.85790613   
   2191800  -6125.5656     -6188.7088      63.143225      11492.667      377.21795      8839.4763      1.4620094      0.85790613   
   2191900  -6124.777      -6189.0586      64.281606      10526.184      384.01865      8826.3511      1.4641835      0.85790613   
   2192000  -6123.7009     -6187.1326      63.431692      12207.235      378.94125      8797.0913      1.4690535      0.80618445   
   2192100  -6122.4876     -6187.5556      65.068025      15519.2        388.71672      8759.6314      1.4753358      0.80618445   
   2192200  -6122.9656     -6186.7459      63.780317      15642.007      381.02394      8716.5964      1.4826197      0.80618445   
   2192300  -6123.9891     -6188.017       64.027921      17983.578      382.50313      8677.76        1.4892551      0.80618445   
   2192400  -6123.5056     -6188.857       65.351408      17648.205      390.40965      8650.6729      1.4939182      0.80618445   
   2192500  -6121.6936     -6188.3036      66.609992      20401.002      397.92844      8640.3032      1.4957112      0.80618445   
   2192600  -6122.0576     -6186.02        63.962451      20827.332      382.11201      8650.8791      1.4938826      0.80618445   
   2192700  -6123.4733     -6187.8679      64.394608      17442.533      384.69372      8681.3426      1.4886405      0.80618445   
   2192800  -6125.4752     -6188.308       62.832786      12180.304      375.36338      8726.0242      1.4810179      0.80618445   
   2192900  -6126.7403     -6190.5398      63.799495      9956.5109      381.13851      8773.984       1.4729224      0.80618445   
   2193000  -6127.4093     -6188.2634      60.854115      8926.8476      363.5428       8814.0645      1.4662246      0.79025687   
   2193100  -6125.1015     -6189.7096      64.608115      9906.1166      385.96921      8840.6009      1.4618235      0.79025687   
   2193200  -6124.99       -6188.4622      63.47221       14252.642      379.18331      8849.2259      1.4603987      0.79025687   
   2193300  -6124.33       -6188.7631      64.433035      13462.559      384.92328      8837.8005      1.4622867      0.79025687   
   2193400  -6125.022      -6188.0979      63.075976      16197.386      376.81621      8806.6255      1.4674631      0.79025687   
   2193500  -6120.6827     -6185.7771      65.094405      18617.326      388.87431      8765.2065      1.4743974      0.79025687   
   2193600  -6119.7237     -6185.1182      65.394541      16617.816      390.66733      8722.9477      1.4815402      0.79025687   
   2193700  -6118.3192     -6186.478       68.158826      18904.472      407.18118      8692.3028      1.4867634      0.79025687   
   2193800  -6119.7652     -6187.7062      67.940985      15172.866      405.87979      8675.006       1.4897278      0.79025687   
   2193900  -6119.2352     -6183.8881      64.652922      15852.874      386.23689      8674.8875      1.4897482      0.79025687   
   2194000  -6118.6995     -6184.0546      65.355014      18591.732      390.43119      8692.912       1.4866592      0.79706401   
   2194100  -6119.5242     -6185.3234      65.799134      13664.942      393.08436      8726.5425      1.4809299      0.79706401   
   2194200  -6120.729      -6185.5457      64.816669      12733.591      387.21512      8768.0357      1.4739217      0.79706401   
   2194300  -6120.5873     -6186.6869      66.099542      11587.051      394.87901      8805.4287      1.4676625      0.79706401   
   2194400  -6121.5844     -6187.1946      65.610225      9910.0825      391.95582      8834.6416      1.4628095      0.79706401   
   2194500  -6122.2109     -6188.9091      66.698157      9069.9785      398.45514      8849.3385      1.4603801      0.79706401   
   2194600  -6120.9221     -6187.1298      66.207712      13140.454      395.52521      8842.5785      1.4614965      0.79706401   
   2194700  -6119.3206     -6186.5525      67.231897      16079.105      401.6437       8820.6423      1.4651312      0.79706401   
   2194800  -6121.1072     -6186.0619      64.954712      14033.857      388.03978      8789.4825      1.4703252      0.79706401   
   2194900  -6120.6185     -6185.7882      65.169651      13962.961      389.32383      8754.2612      1.4762408      0.79706401   
   2195000  -6119.9485     -6186.234       66.285461      16569.519      395.98969      8719.5176      1.482123       0.83066588   
   2195100  -6118.0712     -6186.3479      68.276745      14699.861      407.88563      8692.9021      1.4866609      0.83066588   
   2195200  -6117.4251     -6186.0275      68.602365      14375.369      409.83088      8675.7553      1.4895992      0.83066588   
   2195300  -6117.0872     -6185.333       68.245806      16320.578      407.7008       8675.2957      1.4896781      0.83066588   
   2195400  -6114.9241     -6185.5638      70.639698      19033.511      422.00192      8689.3754      1.4872643      0.83066588   
   2195500  -6116.6116     -6185.6295      69.017886      15937.325      412.31321      8717.8715      1.4824029      0.83066588   
   2195600  -6119.0446     -6187.177       68.132412      14509.703      407.02338      8754.3614      1.4762239      0.83066588   
   2195700  -6123.2256     -6186.9572      63.731663      15687.63       380.73328      8786.6912      1.4707923      0.83066588   
   2195800  -6121.9973     -6187.3771      65.379841      16196.889      390.57951      8808.3997      1.4671675      0.83066588   
   2195900  -6119.4245     -6187.4861      68.061563      16103.85       406.60013      8814.5872      1.4661376      0.83066588   
   2196000  -6118.6966     -6184.6963      65.999695      20033.474      394.28252      8806.4604      1.4674906      0.86621372   
   2196100  -6119.6806     -6184.2563      64.57574       13944.792      385.7758       8788.1685      1.4705451      0.86621372   
   2196200  -6121.8595     -6187.712       65.852559      11284.507      393.40353      8763.6231      1.4746638      0.86621372   
   2196300  -6123.3832     -6188.6012      65.217939      12091.024      389.6123       8733.7787      1.4797029      0.86621372   
   2196400  -6120.9269     -6187.4118      66.484903      12155.768      397.18115      8701.5184      1.4851888      0.86621372   
   2196500  -6120.6525     -6186.1175      65.46501       12357.3        391.0883       8676.8829      1.4894056      0.86621372   
   2196600  -6120.8314     -6184.9498      64.118344      14203.497      383.04332      8664.6119      1.4915149      0.86621372   
   2196700  -6120.1201     -6188.0571      67.936996      11681.524      405.85596      8665.4048      1.4913784      0.86621372   
   2196800  -6120.8807     -6187.0743      66.193624      15423.507      395.44105      8674.0376      1.4898942      0.86621372   
   2196900  -6119.6066     -6186.6798      67.073178      12339.089      400.69551      8690.278       1.4871098      0.86621372   
   2197000  -6119.9656     -6184.2115      64.245935      18848.779      383.80554      8714.8641      1.4829144      0.86510261   
   2197100  -6120.5654     -6187.4737      66.90823       16303.828      399.71011      8746.0935      1.4776194      0.86510261   
   2197200  -6120.3412     -6184.7351      64.393856      12432.582      384.68922      8774.7013      1.472802       0.86510261   
   2197300  -6121.2592     -6186.1979      64.938772      11713.585      387.94456      8796.1677      1.4692078      0.86510261   
   2197400  -6120.1855     -6185.3872      65.201688      7729.0052      389.51522      8808.5034      1.4671502      0.86510261   
   2197500  -6119.6724     -6185.6241      65.951717      11425.557      393.9959       8809.6863      1.4669532      0.86510261   
   2197600  -6118.0599     -6184.8433      66.783393      11319.584      398.96433      8801.0005      1.468401       0.86510261   
   2197700  -6120.4683     -6186.2655      65.797149      13121.898      393.07251      8789.7564      1.4702794      0.86510261   
   2197800  -6119.5955     -6188.3459      68.750356      11316.555      410.71498      8771.3999      1.4733564      0.86510261   
   2197900  -6118.8913     -6184.1862      65.294959      15885.867      390.07242      8746.4136      1.4775654      0.86510261   
   2198000  -6119.8349     -6188.6177      68.782776      15155.722      410.90866      8727.1845      1.480821       0.88827626   
   2198100  -6118.4043     -6185.703       67.298699      21158.52       402.04278      8713.6818      1.4831156      0.88827626   
   2198200  -6120.9005     -6186.0465      65.145968      19340.872      389.18235      8709.0307      1.4839077      0.88827626   
   2198300  -6118.4117     -6187.5119      69.100207      20332.631      412.80499      8714.0793      1.483048       0.88827626   
   2198400  -6119.0551     -6188.0607      69.005614      19100.717      412.2399       8730.809       1.4802062      0.88827626   
   2198500  -6119.7749     -6187.1028      67.327887      14985.414      402.21714      8752.1147      1.4766029      0.88827626   
   2198600  -6120.4131     -6184.9191      64.505961      12079.044      385.35894      8773.9542      1.4729274      0.88827626   
   2198700  -6121.6396     -6186.4361      64.796538      9653.1301      387.09485      8795.1821      1.4693724      0.88827626   
   2198800  -6121.4943     -6186.9067      65.412395      8211.2144      390.77398      8809.2424      1.4670272      0.88827626   
   2198900  -6120.5655     -6184.8726      64.307131      15639.23       384.17113      8809.4012      1.4670007      0.88827626   
   2199000  -6119.7955     -6187.1065      67.311004      14222.948      402.11628      8797.6234      1.4689647      0.7346475    
   2199100  -6117.7804     -6186.8026      69.022246      13618.58       412.33925      8777.993       1.4722497      0.7346475    
   2199200  -6118.0853     -6183.6929      65.607625      17975.616      391.94029      8755.4472      1.4760409      0.7346475    
   2199300  -6120.2006     -6186.2695      66.068954      16135.263      394.69627      8736.7877      1.4791933      0.7346475    
   2199400  -6120.1621     -6185.2082      65.046103      17520.384      388.58575      8723.5071      1.4814452      0.7346475    
   2199500  -6118.6324     -6185.1033      66.470833      13888.289      397.0971       8718.5059      1.482295       0.7346475    
   2199600  -6121.0295     -6186.8028      65.773337      13704.583      392.93025      8724.5331      1.481271       0.7346475    
   2199700  -6120.0181     -6188.211       68.192935      13922.016      407.38494      8736.8538      1.4791821      0.7346475    
   2199800  -6120.1117     -6185.2241      65.112411      16890.641      388.98188      8755.452       1.4760401      0.7346475    
   2199900  -6121.5546     -6188.564       67.009445      14333.265      400.31477      8779.0749      1.4720683      0.7346475    
   2200000  -6119.1488     -6185.5193      66.370575      14086.902      396.49816      8798.8266      1.4687638      0.89829421   
   2200033  -6119.2364     -6185.6623      66.425951      13634.461      396.82898      8804.5933      1.4678018      0.89829421   
Loop time of 8524.68 on 1 procs for 2000000 steps with 1296 atoms

Performance: 10.135 ns/day, 2.368 hours/ns, 234.613 timesteps/s, 304.058 katom-step/s
99.8% CPU use with 1 MPI tasks x 1 OpenMP threads

MPI task timing breakdown:
Section |  min time  |  avg time  |  max time  |%varavg| %total
---------------------------------------------------------------
Pair    | 6495       | 6495       | 6495       |   0.0 | 76.19
Neigh   | 87.069     | 87.069     | 87.069     |   0.0 |  1.02
Comm    | 88.642     | 88.642     | 88.642     |   0.0 |  1.04
Output  | 5.4041     | 5.4041     | 5.4041     |   0.0 |  0.06
Modify  | 1803.6     | 1803.6     | 1803.6     |   0.0 | 21.16
Other   |            | 44.97      |            |       |  0.53

Nlocal:           1296 ave        1296 max        1296 min
Histogram: 1 0 0 0 0 0 0 0 0 0
Nghost:           4294 ave        4294 max        4294 min
Histogram: 1 0 0 0 0 0 0 0 0 0
Neighs:              0 ave           0 max           0 min
Histogram: 1 0 0 0 0 0 0 0 0 0
FullNghs:       221506 ave      221506 max      221506 min
Histogram: 1 0 0 0 0 0 0 0 0 0

Total # of neighbors = 221506
Ave neighs/atom = 170.91512
Neighbor list builds = 200000
Dangerous builds = 200000
Total wall time: 2:36:18
