LAMMPS (7 Feb 2024 - Update 1)
KOKKOS mode with Kokkos version 4.2.0 is enabled (src/KOKKOS/kokkos.cpp:72)
  will use up to 4 GPU(s) per node
  using 1 OpenMP thread(s) per MPI task
Reading data file ...
  triclinic box = (0 0 0) to (24.989956 24.989919 23.167336) with tilt (-0.22207236 -0.16357316 -0.098737559)
  2 by 2 by 1 MPI processor grid
  reading atoms ...
  1920 atoms
  read_data CPU = 0.013 seconds
ACE/AL version: 2023.11.25
Loading /home/cicn/cicn607503/pd/pot_dir/interim_potential_ladder_step_1.yaml
Total number of basis functions
	H: 23 (r=1) 664 (r>1)
	O: 23 (r=1) 664 (r>1)
Mapping LAMMPS atom type #1(H) -> ACE species type #0
Mapping LAMMPS atom type #2(O) -> ACE species type #1
Loading ASI /home/cicn/cicn607503/pd/pot_dir/interim_potential_ladder_step_1.asi
LINEAR ASI is loaded
Switching to 'neigh_modify every 1 delay 0 check yes' setting during minimization
Neighbor list info ...
  update: every = 1 steps, delay = 0 steps, check = yes
  max neighbors/atom: 2000, page size: 100000
  master list distance cutoff = 6.5
  ghost atom cutoff = 6.5
  binsize = 6.5, bins = 4 4 4
  1 neighbor lists, perpetual/occasional/extra = 1 0 0
  (1) pair pace/extrapolation/kk, perpetual
      attributes: full, newton on, kokkos_device
      pair build: full/bin/kk/device
      stencil: full/bin/3d
      bin: kk/device
Setting up cg/kk style minimization ...
  Unit style    : metal
  Current step  : 0
WARNING: Fix with atom-based arrays not compatible with sending data in Kokkos communication, switching to classic exchange/border communication (src/KOKKOS/comm_kokkos.cpp:666)
WARNING: Fix with atom-based arrays not compatible with Kokkos sorting on device, switching to classic host sorting (src/KOKKOS/atom_kokkos.cpp:218)
Per MPI rank memory allocation (min/avg/max) = 423.1 | 425.6 | 428.5 Mbytes
   Step         TotEng         PotEng         KinEng         Press           Temp          Volume        Density     c_max_pace_gamma
         0  -9186.3912     -9186.3912      0              71325.798      0              14467.932      1.3233249      0.69470054   
       100  -9273.0205     -9273.0205      0             -8111.2573      0              14467.932      1.3233249      0.69470054   
       200  -9273.1149     -9273.1149      0             -8132.7252      0              14467.932      1.3233249      0.69470054   
       300  -9273.1151     -9273.1151      0             -8129.1062      0              14467.932      1.3233249      0.69470054   
       312  -9273.1151     -9273.1151      0             -8129.2103      0              14467.932      1.3233249      0.69470054   
Loop time of 1.27688 on 4 procs for 312 steps with 1920 atoms

99.5% CPU use with 4 MPI tasks x 1 OpenMP threads

Minimization stats:
  Stopping criterion = force tolerance
  Energy initial, next-to-last, final = 
     -9186.39119087423   -9273.1151202959  -9273.11512030464
  Force two-norm initial, final = 64.044178 0.00048706415
  Force max component initial, final = 2.4633048 9.0491006e-05
  Final line search alpha, max atom move = 1 9.0491006e-05
  Iterations, force evaluations = 312 623

MPI task timing breakdown:
Section |  min time  |  avg time  |  max time  |%varavg| %total
---------------------------------------------------------------
Pair    | 0.82051    | 0.82833    | 0.84143    |   0.9 | 64.87
Neigh   | 0.0029131  | 0.0030972  | 0.0032136  |   0.2 |  0.24
Comm    | 0.19452    | 0.21087    | 0.21873    |   2.1 | 16.51
Output  | 0.00045856 | 0.00045935 | 0.00046081 |   0.0 |  0.04
Modify  | 0.13889    | 0.14464    | 0.15407    |   1.5 | 11.33
Other   |            | 0.08948    |            |       |  7.01

Nlocal:            480 ave         482 max         478 min
Histogram: 1 0 0 0 0 2 0 0 0 1
Nghost:         2630.5 ave        2633 max        2629 min
Histogram: 1 0 2 0 0 0 0 0 0 1
Neighs:              0 ave           0 max           0 min
Histogram: 4 0 0 0 0 0 0 0 0 0
FullNghs:        75286 ave       75712 max       74890 min
Histogram: 1 0 0 1 0 1 0 0 0 1

Total # of neighbors = 301144
Ave neighs/atom = 156.84583
Neighbor list builds = 7
Dangerous builds = 0
Setting up Verlet run ...
  Unit style    : metal
  Current step  : 312
  Time step     : 0.0005
WARNING: Fix with atom-based arrays not compatible with sending data in Kokkos communication, switching to classic exchange/border communication (src/KOKKOS/comm_kokkos.cpp:666)
WARNING: Fix with atom-based arrays not compatible with Kokkos sorting on device, switching to classic host sorting (src/KOKKOS/atom_kokkos.cpp:218)
Per MPI rank memory allocation (min/avg/max) = 424.7 | 426.4 | 427.6 Mbytes
   Step         TotEng         PotEng         KinEng         Press           Temp          Volume        Density     c_max_pace_gamma
       312  -9194.9793     -9273.1151      78.135819     -2360.7114      315            14467.932      1.3233249      0.69470054   
       400  -9181.8318     -9221.5011      39.66927      -297.67329      159.92435      14395.83       1.3299529      0.69470054   
       500  -9166.7191     -9217.4711      50.752041      5315.6282      204.6039       14205.933      1.3477309      0.69470054   
       600  -9153.8109     -9214.1238      60.312905      7125.3705      243.14796      13989.188      1.3686123      0.69470054   
       700  -9144.9607     -9208.8732      63.91248       10146.224      257.65944      13829.537      1.3844119      0.69470054   
       800  -9138.1465     -9206.0461      67.899553      13187.382      273.73309      13759.758      1.3914325      0.69470054   
       900  -9133.2368     -9200.4896      67.252797      15803.704      271.12573      13780.742      1.3893137      0.69470054   
      1000  -9128.1899     -9198.6632      70.473276      12509.793      284.10891      13884.519      1.3789296      0.6982354    
      1100  -9125.7134     -9197.2199      71.506453      8247.2354      288.2741       14040.099      1.3636496      0.6982354    
      1200  -9124.407      -9196.2613      71.854278      7569.079       289.67633      14202.842      1.3480242      0.6982354    
      1300  -9121.0896     -9195.502       74.412352      6733.7903      299.98906      14337.114      1.3353995      0.6982354    
      1400  -9121.325      -9194.0881      72.763122      4212.4071      293.34029      14428.211      1.326968       0.6982354    
      1500  -9118.3102     -9191.8934      73.583133      2499.5583      296.64611      14470.125      1.3231243      0.6982354    
      1600  -9118.4227     -9193.672       75.249297      5294.5527      303.36316      14469.166      1.323212       0.6982354    
      1700  -9115.5414     -9192.3101      76.768652      7123.4239      309.48835      14433.642      1.3264687      0.6982354    
      1800  -9115.5168     -9192.2729      76.756029      8107.7852      309.43746      14378.261      1.3315779      0.6982354    
      1900  -9116.4409     -9191.4208      74.97989       10550.293      302.27706      14316.173      1.3373528      0.6982354    
      2000  -9116.7981     -9192.6524      75.854321      11985.105      305.80228      14258.141      1.342796       0.70001327   
      2100  -9112.8157     -9190.3789      77.5632        12235.484      312.69152      14215.363      1.3468369      0.70001327   
      2200  -9114.5696     -9191.9656      77.396027      10669.933      312.01757      14198.038      1.3484803      0.70001327   
      2300  -9117.5789     -9193.2803      75.701347      11758.578      305.18557      14206.899      1.3476392      0.70001327   
      2400  -9114.237      -9191.437       77.199925      9209.4675      311.227        14237.949      1.3447003      0.70001327   
      2500  -9114.2312     -9193.4989      79.267723      10154.91       319.56321      14285.628      1.3402123      0.70001327   
      2600  -9116.2886     -9194.2662      77.977514      6132.5636      314.3618       14337.916      1.3353248      0.70001327   
      2700  -9114.6069     -9192.9863      78.379386      7663.9243      315.98193      14380.409      1.331379       0.70001327   
      2800  -9114.3589     -9192.2956      77.936634      6673.8181      314.197        14406.227      1.328993       0.70001327   
      2900  -9116.313      -9190.934       74.621026      7018.2363      300.83032      14412.236      1.3284389      0.70001327   
      3000  -9114.162      -9190.7833      76.621321      5923.6097      308.89439      14399.791      1.329587       0.67368941   
      3100  -9113.0863     -9189.3371      76.250841      2992.2835      307.40082      14371.309      1.332222       0.67368941   
      3200  -9110.1905     -9187.506       77.315539      4211.7337      311.69309      14327.708      1.3362762      0.67368941   
      3300  -9112.0375     -9190.3402      78.302683      6847.7229      315.6727       14284.912      1.3402795      0.67368941   
      3400  -9111.4722     -9190.7275      79.255346      10205.243      319.51331      14253.895      1.343196       0.67368941   
      3500  -9112.6263     -9191.6563      79.029966      9530.7713      318.6047       14241.944      1.3443231      0.67368941   
      3600  -9110.2126     -9189.1416      78.929015      7255.2654      318.19772      14250.582      1.3435083      0.67368941   
      3700  -9110.8531     -9188.2555      77.402367      9425.6883      312.04313      14280.469      1.3406965      0.67368941   
      3800  -9110.8948     -9188.4516      77.556735      9727.5561      312.66546      14327.154      1.3363278      0.67368941   
      3900  -9112.1479     -9191.3576      79.209726      5818.3629      319.3294       14388.166      1.3306613      0.67368941   
      4000  -9112.113      -9187.6084      75.495408      7193.0953      304.35534      14450.857      1.3248886      0.65733851   
      4100  -9110.2073     -9189.3574      79.150097      1399.1481      319.089        14502.147      1.3202028      0.65733851   
      4200  -9109.943      -9187.1549      77.211901      2575.6337      311.27528      14525.969      1.3180377      0.65733851   
      4300  -9110.5245     -9188.0608      77.536325      7604.9064      312.58317      14517.864      1.3187736      0.65733851   
      4400  -9112.1454     -9190.179       78.03361       5528.6791      314.58795      14474.952      1.3226832      0.65733851   
      4500  -9113.688      -9190.5815      76.893566      7890.1938      309.99193      14402.158      1.3293685      0.65733851   
      4600  -9111.9523     -9188.7086      76.756353      8433.7913      309.43876      14315.143      1.3374491      0.65733851   
      4700  -9113.3212     -9193.2015      79.880224      8614.1377      322.03247      14228.82       1.3455631      0.65733851   
      4800  -9112.6457     -9189.8776      77.231891      10942.534      311.35587      14162.739      1.3518412      0.65733851   
      4900  -9110.855      -9192.021       81.165995      8297.4553      327.21598      14135.995      1.3543988      0.65733851   
      5000  -9110.2541     -9188.8174      78.563345      9906.9808      316.72355      14153.219      1.3527506      0.6988336    
      5100  -9110.1078     -9188.9829      78.875052      11602.59       317.98018      14217.323      1.3466512      0.6988336    
      5200  -9112.6072     -9190.7082      78.100915      7772.6393      314.85929      14311.087      1.3378282      0.6988336    
      5300  -9111.5431     -9189.7771      78.234023      8164.4509      315.39591      14410.067      1.3286388      0.6988336    
      5400  -9108.4678     -9189.4613      80.993453      7160.5852      326.52039      14491.39       1.3211828      0.6988336    
      5500  -9108.9325     -9186.9555      78.022996      7848.5413      314.54516      14542.834      1.3165092      0.6988336    
      5600  -9107.3569     -9187.9832      80.62635       7489.0067      325.04043      14557.553      1.3151781      0.6988336    
      5700  -9106.8226     -9187.785       80.962398      6196.9735      326.39519      14530.57       1.3176203      0.6988336    
      5800  -9108.5152     -9188.1835      79.668307      6685.5834      321.17814      14469.133      1.3232151      0.6988336    
      5900  -9107.908      -9187.7444      79.836458      9300.5054      321.85603      14390.496      1.3304457      0.6988336    
      6000  -9110.9404     -9189.3614      78.421074      8746.1865      316.14999      14313.52       1.3376007      0.72953627   
      6100  -9111.9687     -9190.1351      78.166435      8361.3467      315.12343      14249.874      1.343575       0.72953627   
      6200  -9111.2159     -9190.5347      79.318821      8540.7359      319.76921      14211.467      1.3472061      0.72953627   
      6300  -9112.0892     -9189.9655      77.876272      9648.328       313.95365      14204.433      1.3478732      0.72953627   
      6400  -9112.36       -9189.4576      77.097568      8015.5849      310.81435      14225.997      1.34583        0.72953627   
      6500  -9114.9669     -9193.9817      79.014747      7391.8287      318.54335      14266.123      1.3420446      0.72953627   
      6600  -9113.7424     -9190.7527      77.01026       8088.8529      310.46237      14314.945      1.3374676      0.72953627   
      6700  -9114.4006     -9191.2387      76.838113      6348.4056      309.76838      14368.889      1.3324464      0.72953627   
      6800  -9113.4762     -9190.3048      76.828661      7284.3909      309.73027      14418.115      1.3278972      0.72953627   
      6900  -9113.7585     -9190.9604      77.201951      6213.695       311.23517      14451.301      1.3248478      0.72953627   
      7000  -9114.3911     -9191.6739      77.282785      8762.7217      311.56104      14458.476      1.3241904      0.74039125   
      7100  -9113.5218     -9191.1388      77.616983      4871.0003      312.90834      14434.968      1.3263469      0.74039125   
      7200  -9112.7791     -9189.8043      77.025224      7115.6639      310.5227       14391.25       1.330376       0.74039125   
      7300  -9114.3258     -9191.2608      76.935064      10640.429      310.15923      14342.564      1.3348921      0.74039125   
      7400  -9111.4856     -9188.3597      76.874031      8204.9185      309.91318      14301.622      1.3387135      0.74039125   
      7500  -9108.4154     -9189.7101      81.294766      8380.3879      327.73511      14273.809      1.341322       0.74039125   
      7600  -9109.3839     -9189.4247      80.040858      6810.1982      322.68005      14267.583      1.3419074      0.74039125   
      7700  -9110.2159     -9188.3814      78.165412      7738.9653      315.1193       14282.478      1.3405079      0.74039125   
      7800  -9112.0288     -9189.4525      77.423678      8783.427       312.12905      14320.912      1.3369103      0.74039125   
      7900  -9114.1563     -9192.1217      77.96545       9497.8858      314.31317      14371.86       1.332171       0.74039125   
      8000  -9114.5673     -9192.8194      78.252162      7397.9067      315.46903      14419.224      1.3277951      0.67371039   
      8100  -9112.7028     -9189.554       76.85116       7238.7639      309.82097      14451.103      1.324866       0.67371039   
      8200  -9109.6844     -9188.9531      79.268698      6434.4864      319.56714      14465.122      1.323582       0.67371039   
      8300  -9108.2525     -9186.3406      78.088116      7528.2259      314.80769      14469.004      1.3232269      0.67371039   
      8400  -9109.8689     -9188.8204      78.95158       6970.142       318.2887       14458.201      1.3242155      0.67371039   
      8500  -9107.6866     -9187.786       80.099388      6137.8326      322.91601      14429.488      1.3268506      0.67371039   
      8600  -9106.5695     -9184.5911      78.021583      11276.509      314.53947      14387.637      1.3307101      0.67371039   
      8700  -9107.3452     -9186.7656      79.420402      9645.0188      320.17872      14349.708      1.3342275      0.67371039   
      8800  -9108.9405     -9190.2599      81.319423      9506.7745      327.83451      14319.7        1.3370235      0.67371039   
      8900  -9109.3396     -9187.7934      78.453794      10604.042      316.2819       14306.438      1.3382628      0.67371039   
      9000  -9108.5785     -9189.8303      81.251805      8843.1141      327.56192      14310.65       1.337869       0.69222424   
      9100  -9108.6284     -9186.6723      78.043889      10187.776      314.62939      14334.32       1.3356598      0.69222424   
      9200  -9109.3797     -9188.6439      79.264194      7691.9442      319.54898      14371.355      1.3322178      0.69222424   
      9300  -9110.7718     -9189.9188      79.146943      10573.816      319.07629      14412.909      1.3283768      0.69222424   
      9400  -9110.8337     -9189.4754      78.641746      9408.751       317.03962      14446.757      1.3252645      0.69222424   
      9500  -9112.4783     -9189.2875      76.809223      6456.1238      309.65191      14464.124      1.3236733      0.69222424   
      9600  -9114.0213     -9192.4055      78.384239      6750.9606      316.00149      14459.007      1.3241417      0.69222424   
      9700  -9114.0553     -9193.8717      79.816342      8826.2148      321.77493      14425.422      1.3272246      0.69222424   
      9800  -9111.7612     -9191.058       79.296853      9025.3456      319.68064      14370.775      1.3322715      0.69222424   
      9900  -9112.3614     -9188.1341      75.772691      7880.2858      305.47319      14307.671      1.3381475      0.69222424   
     10000  -9112.4467     -9190.0789      77.632243      8912.2888      312.96986      14256.433      1.3429568      0.67015837   
     10100  -9109.1933     -9188.7216      79.528384      11567.719      320.61405      14228.6        1.3455839      0.67015837   
     10200  -9108.6325     -9188.2704      79.637923      9999.9486      321.05565      14231.578      1.3453023      0.67015837   
     10300  -9109.2965     -9188.4946      79.198071      13022.215      319.28241      14263.961      1.3422481      0.67015837   
     10400  -9109.3467     -9188.6839      79.337169      9559.8683      319.84317      14321.846      1.3368231      0.67015837   
     10500  -9110.9712     -9189.7749      78.803649      6668.0473      317.69232      14390.666      1.3304301      0.67015837   
     10600  -9109.1562     -9188.0119      78.855708      7612.79        317.90219      14452.65       1.3247242      0.67015837   
     10700  -9109.4104     -9187.9309      78.520488      9111.0403      316.55077      14496.458      1.3207209      0.67015837   
     10800  -9109.6227     -9188.0473      78.424611      6055.8661      316.16425      14510.238      1.3194666      0.67015837   
     10900  -9109.0952     -9187.425       78.329799      8790.069       315.78202      14491.235      1.3211969      0.67015837   
     11000  -9108.6071     -9186.5925      77.985386      3729.331       314.39354      14445.174      1.3254098      0.66775129   
     11100  -9108.2453     -9188.8821      80.636858      5122.5258      325.08279      14385.33       1.3309236      0.66775129   
     11200  -9109.7798     -9187.6976      77.917894      9056.0013      314.12145      14329.936      1.3360684      0.66775129   
     11300  -9108.7786     -9188.909       80.130431      9778.1287      323.04116      14288.852      1.3399099      0.66775129   
     11400  -9110.0254     -9189.3242      79.298771      8194.1039      319.68837      14270.42       1.3416406      0.66775129   
     11500  -9111.8562     -9190.058       78.201746      5967.1973      315.26578      14274.117      1.3412931      0.66775129   
     11600  -9113.7488     -9190.8159      77.067106      7493.0888      310.69155      14292.316      1.3395852      0.66775129   
     11700  -9114.6038     -9190.4625      75.858697      6448.5269      305.81992      14315.884      1.3373799      0.66775129   
     11800  -9114.1075     -9190.5009      76.393412      6981.0857      307.97559      14340.706      1.335065       0.66775129   
     11900  -9115.0606     -9191.6156      76.555012      4765.2384      308.62707      14361.785      1.3331055      0.66775129   
     12000  -9113.7349     -9189.5545      75.819566      7750.656       305.66216      14371.923      1.3321651      0.6775663    
     12100  -9113.7196     -9189.7372      76.01769       8357.5525      306.46089      14372.877      1.3320767      0.6775663    
     12200  -9112.2745     -9189.1569      76.88235       7932.4238      309.94672      14370.916      1.3322585      0.6775663    
     12300  -9111.8935     -9189.5543      77.660805      9159.2958      313.08501      14365.519      1.332759       0.6775663    
     12400  -9112.694      -9190.8592      78.16521       10167.347      315.11849      14357.084      1.333542       0.6775663    
     12500  -9110.7521     -9189.3718      78.619651      6766.4903      316.95054      14347.922      1.3343935      0.6775663    
     12600  -9112.328      -9190.1813      77.853329      10239.581      313.86116      14345.289      1.3346385      0.6775663    
     12700  -9109.486      -9189.8989      80.412958      9239.9279      324.18015      14346.401      1.334535       0.6775663    
     12800  -9110.4799     -9189.3751      78.895212      7540.7984      318.06145      14347.574      1.3344259      0.6775663    
     12900  -9111.0621     -9187.9801      76.917975      7892.1104      310.09033      14348.568      1.3343335      0.6775663    
     13000  -9111.3968     -9190.752       79.355198      8427.8504      319.91585      14351.068      1.3341011      0.69692248   
     13100  -9111.685      -9189.5859      77.900877      8027.8593      314.05285      14356.149      1.3336289      0.69692248   
     13200  -9110.9087     -9189.3165      78.407728      6627.6044      316.09619      14356.73       1.3335749      0.69692248   
     13300  -9112.2336     -9190.6786      78.444958      5721.6031      316.24628      14350.635      1.3341413      0.69692248   
     13400  -9112.6654     -9189.7033      77.037897      9163.3771      310.57379      14340.007      1.3351301      0.69692248   
     13500  -9111.0902     -9189.9389      78.848675      9276.9053      317.87384      14331.374      1.3359344      0.69692248   
     13600  -9110.4114     -9189.2104      78.799017      9591.1958      317.67365      14322.416      1.3367699      0.69692248   
     13700  -9110.1369     -9188.2742      78.137276      9512.0096      315.00587      14318.759      1.3371113      0.69692248   
     13800  -9108.4588     -9186.524       78.065235      7668.9351      314.71544      14328.875      1.3361673      0.69692248   
     13900  -9109.0666     -9187.9187      78.852066      10154.961      317.88751      14354.154      1.3338142      0.69692248   
     14000  -9109.7318     -9189.7534      80.021611      8874.4688      322.60246      14385.583      1.3309001      0.68452186   
     14100  -9108.0363     -9186.9278      78.8915        7038.8277      318.04649      14417.539      1.3279503      0.68452186   
     14200  -9106.3395     -9186.2366      79.897129      6173.5355      322.10062      14446.116      1.3253233      0.68452186   
     14300  -9107.135      -9186.7331      79.598081      5625.8358      320.89503      14466.23       1.3234806      0.68452186   
     14400  -9108.2995     -9187.2699      78.970367      6424.9492      318.36443      14470.22       1.3231156      0.68452186   
     14500  -9108.7998     -9186.8097      78.009908      7528.1321      314.4924       14452.706      1.324719       0.68452186   
     14600  -9109.1209     -9188.261       79.140057      7211.0158      319.04853      14418.75       1.3278387      0.68452186   
     14700  -9109.606      -9187.915       78.309007      9812.9104      315.6982       14373.298      1.3320377      0.68452186   
     14800  -9108.4709     -9188.0969      79.625947      8695.8816      321.00737      14329.921      1.3360698      0.68452186   
     14900  -9111.3055     -9188.8861      77.580579      9248.6771      312.76158      14297.048      1.3391418      0.68452186   
     15000  -9114.3182     -9191.0769      76.758714      7937.0128      309.44828      14280.894      1.3406566      0.67671347   
     15100  -9111.9367     -9189.7095      77.772768      6714.5108      313.53638      14281.971      1.3405555      0.67671347   
     15200  -9113.6157     -9191.5514      77.93567       8218.4528      314.19311      14300.937      1.3387776      0.67671347   
     15300  -9111.6819     -9188.2146      76.532722      9165.1193      308.53721      14328.764      1.3361777      0.67671347   
     15400  -9111.6549     -9190.7937      79.138851      5862.0927      319.04366      14360.886      1.3331889      0.67671347   
     15500  -9111.7664     -9190.7115      78.94501       7228.9474      318.26221      14392.444      1.3302657      0.67671347   
     15600  -9112.6565     -9189.392       76.735515      8910.7417      309.35476      14416.335      1.3280612      0.67671347   
     15700  -9111.0144     -9189.4711      78.456666      5434.4119      316.29348      14428.242      1.3269652      0.67671347   
     15800  -9111.9165     -9191.7619      79.845346      8068.5742      321.89186      14426.554      1.3271204      0.67671347   
     15900  -9112.0772     -9188.6415      76.564367      6431.5931      308.66478      14408.157      1.3288149      0.67671347   
     16000  -9113.5698     -9192.1353      78.565434      7740.3911      316.73197      14379.43       1.3314696      0.67528932   
     16100  -9113.64       -9191.4487      77.808695      9047.0738      313.68122      14341.332      1.3350067      0.67528932   
     16200  -9111.8291     -9189.2374      77.408372      8406.3582      312.06734      14304.745      1.3384212      0.67528932   
     16300  -9111.148      -9189.7202      78.572208      9202.1459      316.75928      14277.774      1.3409495      0.67528932   
     16400  -9111.2403     -9190.5205      79.280229      8946.1321      319.61363      14268.863      1.3417869      0.67528932   
     16500  -9109.6009     -9188.3066      78.70577       8726.7634      317.29772      14275.858      1.3411295      0.67528932   
     16600  -9111.0969     -9188.5326      77.435677      11771.68       312.17742      14300.707      1.3387991      0.67528932   
     16700  -9113.8568     -9192.3163      78.459545      5854.5275      316.30508      14341.629      1.3349791      0.67528932   
     16800  -9112.5998     -9191.4135      78.813664      5884.1111      317.73269      14383.446      1.3310979      0.67528932   
     16900  -9108.7593     -9187.693       78.933633      8344.1748      318.21634      14414.108      1.3282664      0.67528932   
     17000  -9108.3882     -9187.0727      78.684513      7446.0969      317.21203      14428.642      1.3269284      0.68438702   
     17100  -9110.2821     -9189.4643      79.182205      7920.5921      319.21845      14428.877      1.3269067      0.68438702   
     17200  -9110.7281     -9187.0316      76.303524      9747.1928      307.61321      14414.691      1.3282126      0.68438702   
     17300  -9110.2701     -9188.6169      78.346822      9024.1437      315.85065      14394.638      1.3300629      0.68438702   
     17400  -9111.8583     -9189.9322      78.073893      8438.4941      314.75035      14371.912      1.3321661      0.68438702   
     17500  -9110.981      -9188.9996      78.018615      8707.3104      314.5275       14348.805      1.3343115      0.68438702   
     17600  -9110.6718     -9191.9973      81.325485      7589.7818      327.85895      14329.41       1.3361175      0.68438702   
     17700  -9111.3854     -9188.6043      77.218856      9040.6521      311.30332      14317.198      1.3372571      0.68438702   
     17800  -9111.3496     -9190.4318      79.0822        7276.0319      318.81528      14313.095      1.3376404      0.68438702   
     17900  -9111.5085     -9189.0948      77.586361      7598.7614      312.78489      14313.592      1.337594       0.68438702   
     18000  -9109.5484     -9188.6439      79.095494      8292.9876      318.86887      14317.885      1.337193       0.69864345   
     18100  -9111.0916     -9188.2482      77.156649      6360.0298      311.05253      14328.435      1.3362084      0.69864345   
     18200  -9111.7454     -9189.8544      78.108959      7125.8041      314.89172      14339.236      1.3352019      0.69864345   
     18300  -9111.3665     -9190.1861      78.819669      7711.7847      317.7569       14345.393      1.3346288      0.69864345   
     18400  -9108.3578     -9185.622       77.264189      9436.4359      311.48607      14344.801      1.3346839      0.69864345   
     18500  -9109.262      -9187.8719      78.609902      9105.4945      316.91124      14341.545      1.3349869      0.69864345   
     18600  -9110.7619     -9190.4604      79.698442      6667.1331      321.29962      14334.159      1.3356747      0.69864345   
     18700  -9112.3175     -9190.4369      78.119396      5517.589       314.93379      14317.596      1.3372199      0.69864345   
     18800  -9111.6347     -9190.3692      78.73446       6875.4094      317.41339      14300.817      1.3387889      0.69864345   
     18900  -9109.8475     -9188.4058      78.558391      7599.8782      316.70357      14289.542      1.3398453      0.69864345   
     19000  -9110.1415     -9190.3985      80.25697       10949.635      323.5513       14284.752      1.3402945      0.60505073   
     19100  -9108.4801     -9186.9473      78.467166      9210.5934      316.33581      14288.277      1.3399639      0.60505073   
     19200  -9109.8626     -9188.8089      78.946278      5568.7127      318.26732      14299.234      1.3389371      0.60505073   
     19300  -9110.0308     -9187.2675      77.236689      7429.5686      311.37521      14318.53       1.3371327      0.60505073   
     19400  -9112.7833     -9189.6574      76.874044      8674.2081      309.91323      14334.146      1.335676       0.60505073   
     19500  -9113.4103     -9192.139       78.728735      7363.9268      317.39031      14340.2        1.3351121      0.60505073   
     19600  -9114.9709     -9191.9282      76.957288      5786.937       310.24882      14334.877      1.3356079      0.60505073   
     19700  -9114.5561     -9190.3857      75.829522      7903.3699      305.7023       14319.38       1.3370533      0.60505073   
     19800  -9113.0541     -9190.8963      77.842143      9520.2286      313.81606      14299.854      1.338879       0.60505073   
     19900  -9114.5505     -9191.7588      77.208337      8391.7906      311.26091      14281.069      1.3406402      0.60505073   
     20000  -9115.6925     -9192.0426      76.350122      8937.8612      307.80107      14264.104      1.3422346      0.63044123   
     20100  -9115.4194     -9194.3932      78.973805      6202.9921      318.37829      14254.08       1.3431786      0.63044123   
     20200  -9115.5847     -9192.7125      77.127779      6626.0955      310.93615      14251.19       1.343451       0.63044123   
     20300  -9115.8534     -9190.626       74.772573      8437.8891      301.44127      14256.381      1.3429618      0.63044123   
     20400  -9116.4422     -9193.6933      77.251101      8753.0476      311.43331      14270.324      1.3416496      0.63044123   
     20500  -9115.6561     -9190.7559      75.099839      9194.599       302.76063      14286.267      1.3401524      0.63044123   
     20600  -9114.4096     -9191.532       77.12238       7759.3963      310.91438      14303.761      1.3385133      0.63044123   
     20700  -9114.7739     -9192.5211      77.747206      6420.5131      313.43333      14314.534      1.3375059      0.63044123   
     20800  -9113.8213     -9189.7507      75.929402      5713.1045      306.10496      14318.989      1.3370898      0.63044123   
     20900  -9112.2079     -9188.906       76.698093      6830.8022      309.20389      14315.657      1.3374011      0.63044123   
     21000  -9113.8738     -9192.4007      78.526873      8171.8517      316.57651      14309.682      1.3379594      0.68938933   
     21100  -9112.2397     -9191.2286      78.988947      8142.704       318.43934      14297.855      1.3390662      0.68938933   
     21200  -9112.1888     -9191.0165      78.827634      9959.7235      317.78901      14287.019      1.3400819      0.68938933   
     21300  -9111.2611     -9188.3024      77.041334      6308.163       310.58765      14281.413      1.3406079      0.68938933   
     21400  -9111.7414     -9190.0185      78.277115      6463.9832      315.56963      14286.334      1.3401461      0.68938933   
     21500  -9110.3452     -9188.1566      77.811384      7535.5584      313.69206      14296.182      1.3392229      0.68938933   
     21600  -9109.143      -9188.014       78.870992      6290.6653      317.96381      14311.898      1.3377523      0.68938933   
     21700  -9109.8889     -9190.1578      80.268875      7979.3317      323.59929      14331.177      1.3359527      0.68938933   
     21800  -9108.9191     -9189.2915      80.372466      6383.3806      324.01691      14349.717      1.3342266      0.68938933   
     21900  -9107.4711     -9187.4237      79.952612      8655.2708      322.3243       14363.499      1.3329465      0.68938933   
     22000  -9107.533      -9186.4656      78.932642      9551.7297      318.21235      14374.749      1.3319032      0.66507375   
     22100  -9108.3286     -9188.2439      79.915311      7526.3141      322.17392      14387.803      1.3306948      0.66507375   
     22200  -9110.069      -9187.3093      77.240296      8544.1778      311.38975      14397.211      1.3298253      0.66507375   
     22300  -9109.5199     -9190.5182      80.998271      6354.3907      326.53981      14399.281      1.3296341      0.66507375   
     22400  -9108.2246     -9187.1705      78.945905      9125.9387      318.26582      14392.21       1.3302874      0.66507375   
     22500  -9108.3763     -9187.8043      79.427913      10077.3        320.209        14385.301      1.3309262      0.66507375   
     22600  -9109.7386     -9188.3057      78.567122      8034.3035      316.73877      14379.702      1.3314445      0.66507375   
     22700  -9109.6584     -9190.3728      80.714396      9065.6231      325.39538      14372.47       1.3321144      0.66507375   
     22800  -9109.9807     -9189.0954      79.11465       7423.1189      318.9461       14363.529      1.3329436      0.66507375   
     22900  -9111.451      -9186.9875      75.536481      11714.41       304.52092      14353.348      1.3338891      0.66507375   
     23000  -9108.399      -9187.8213      79.422286      9868.5776      320.18632      14348.443      1.3343451      0.71771421   
     23100  -9110.0211     -9187.4994      77.478308      8275.4171      312.34928      14349.186      1.334276       0.71771421   
     23200  -9109.668      -9188.9353      79.26731       7246.6192      319.56154      14358.264      1.3334324      0.71771421   
     23300  -9110.6556     -9189.43        78.77438       8775.7356      317.57432      14374.904      1.3318889      0.71771421   
     23400  -9111.0824     -9187.3376      76.255262      7502.5209      307.41865      14390.298      1.3304641      0.71771421   
     23500  -9112.8139     -9191.072       78.258136      6408.9558      315.49311      14403.354      1.3292581      0.71771421   
     23600  -9111.3061     -9188.8384      77.532259      7413.0584      312.56679      14406.613      1.3289574      0.71771421   
     23700  -9113.9495     -9190.0081      76.058651      9208.4095      306.62602      14400.115      1.329557       0.71771421   
     23800  -9113.865      -9190.7394      76.87431       7626.3326      309.9143       14380.414      1.3313785      0.71771421   
     23900  -9113.7778     -9190.5623      76.784487      5838.301       309.55219      14349.437      1.3342527      0.71771421   
     24000  -9115.5752     -9190.6473      75.072017      8041.0724      302.64846      14314.14       1.3375427      0.69025527   
     24100  -9114.1214     -9193.0892      78.96778       7996.0477      318.354        14282.551      1.340501       0.69025527   
     24200  -9113.9122     -9190.1909      76.278727      9354.1917      307.51324      14258.365      1.3427749      0.69025527   
     24300  -9111.918      -9190.3047      78.38678       11767.204      316.01174      14251.279      1.3434426      0.69025527   
     24400  -9111.954      -9189.022       77.06799       11784.517      310.69511      14264.074      1.3422375      0.69025527   
     24500  -9112.8926     -9189.6222      76.729564      9722.7964      309.33077      14296.958      1.3391502      0.69025527   
     24600  -9113.0492     -9191.5012      78.451988      7062.6614      316.27462      14341.406      1.3349998      0.69025527   
     24700  -9114.5986     -9191.8129      77.214255      6886.035       311.28477      14382.276      1.3312062      0.69025527   
     24800  -9115.2931     -9190.9239      75.63085       6979.4408      304.90137      14409.8        1.3286635      0.69025527   
     24900  -9113.8483     -9190.0579      76.209606      5583.9981      307.23459      14413.814      1.3282935      0.69025527   
     25000  -9113.8081     -9190.6226      76.814423      5399.4454      309.67287      14398.354      1.3297197      0.67583081   
     25100  -9115.9511     -9190.8064      74.855366      5165.555       301.77504      14370.159      1.3323286      0.67583081   
     25200  -9116.2222     -9191.5264      75.304132      8425.0646      303.58422      14330.534      1.3360127      0.67583081   
     25300  -9116.6656     -9192.8671      76.201502      9211.7004      307.20191      14288.369      1.3399552      0.67583081   
     25400  -9113.8592     -9189.8325      75.973339      9624.5225      306.28209      14250.675      1.3434995      0.67583081   
     25500  -9114.2937     -9193.4265      79.132803      4663.0039      319.01928      14228.975      1.3455484      0.67583081   
     25600  -9113.2683     -9192.5454      79.277085      8635.5713      319.60095      14227.459      1.3456917      0.67583081   
     25700  -9113.1746     -9190.9572      77.782555      10403.833      313.57584      14252.808      1.3432984      0.67583081   
     25800  -9115.4079     -9192.4697      77.061818      9890.1572      310.67023      14300.913      1.3387799      0.67583081   
     25900  -9116.3515     -9191.3982      75.046709      7931.4231      302.54643      14356.644      1.3335829      0.67583081   
     26000  -9114.6475     -9192.5721      77.924596      9911.5081      314.14847      14407.801      1.3288478      0.65428799   
     26100  -9112.7782     -9191.73        78.95176       7021.87        318.28942      14445.692      1.3253622      0.65428799   
     26200  -9114.5235     -9191.6925      77.169015      5228.8456      311.10239      14461.931      1.323874       0.65428799   
     26300  -9113.8738     -9189.2238      75.350036      6176.3936      303.76928      14453.415      1.3246541      0.65428799   
     26400  -9113.5698     -9190.9         77.330265      6734.1336      311.75246      14422.053      1.3275346      0.65428799   
     26500  -9113.8399     -9192.4748      78.634855      7755.2272      317.01184      14374.265      1.3319481      0.65428799   
     26600  -9112.1392     -9189.9143      77.77508       9285.7586      313.5457       14321.952      1.3368133      0.65428799   
     26700  -9111.3873     -9188.4627      77.07543       9893.1838      310.7251       14279.926      1.3407475      0.65428799   
     26800  -9111.1922     -9189.969       78.776792      8883.4467      317.58404      14258.691      1.3427442      0.65428799   
     26900  -9111.3462     -9190.1922      78.845981      6634.2458      317.86298      14262.186      1.3424152      0.65428799   
     27000  -9112.0258     -9190.1054      78.079584      9281.2844      314.77329      14285.83       1.3401934      0.67831326   
     27100  -9115.6054     -9191.2562      75.650757      5474.3538      304.98162      14322.131      1.3367965      0.67831326   
     27200  -9115.2642     -9191.4794      76.215151      6042.4712      307.25694      14361.613      1.3331215      0.67831326   
     27300  -9115.9099     -9190.9924      75.082472      7081.5289      302.69061      14395.66       1.3299685      0.67831326   
     27400  -9115.9356     -9191.2289      75.293351      6643.4867      303.54076      14417.296      1.3279726      0.67831326   
     27500  -9112.2398     -9189.8301      77.590253      7584.5487      312.80058      14421.927      1.3275462      0.67831326   
     27600  -9113.4335     -9189.7683      76.334884      8562.9125      307.73963      14410.334      1.3286142      0.67831326   
     27700  -9112.2517     -9188.683       76.431249      8193.5447      308.12813      14388.964      1.3305874      0.67831326   
     27800  -9113.1165     -9190.5358      77.419308      8179.0497      312.11143      14363.115      1.3329821      0.67831326   
     27900  -9114.2207     -9190.4701      76.24939       9452.475       307.39497      14339.797      1.3351497      0.67831326   
     28000  -9115.5217     -9192.7358      77.21404       8417.42        311.2839       14318.747      1.3371124      0.71432675   
     28100  -9113.466      -9191.2991      77.833135      8957.1557      313.77975      14299.102      1.3389494      0.71432675   
     28200  -9114.4094     -9192.4282      78.018811      9305.3982      314.52829      14291.311      1.3396793      0.71432675   
     28300  -9112.6791     -9190.0475      77.368461      7907.2614      311.90644      14298.42       1.3390133      0.71432675   
     28400  -9113.2688     -9191.3967      78.127884      4964.7685      314.96801      14321.213      1.3368822      0.71432675   
     28500  -9110.5921     -9188.5841      77.992012      7433.7689      314.42025      14356.875      1.3335614      0.71432675   
     28600  -9111.4987     -9189.934       78.435306      6416.9365      316.20737      14398.581      1.3296987      0.71432675   
     28700  -9112.6196     -9190.2464      77.626807      7290.0346      312.94795      14429.468      1.3268524      0.71432675   
     28800  -9112.1594     -9191.0128      78.853403      7131.2218      317.8929       14444.046      1.3255133      0.71432675   
     28900  -9110.2488     -9187.9533      77.704502      7692.5775      313.26117      14441.43       1.3257533      0.71432675   
     29000  -9112.286      -9189.0059      76.719916      7430.2591      309.29187      14423.676      1.3273852      0.74350451   
     29100  -9112.8756     -9192.2087      79.333058      7418.0117      319.8266       14396.594      1.3298823      0.74350451   
     29200  -9110.7037     -9190.5193      79.815637      7450.7132      321.77209      14359.946      1.3332763      0.74350451   
     29300  -9111.0519     -9189.7919      78.740027      9166.8542      317.43583      14325.289      1.3365018      0.74350451   
     29400  -9111.1153     -9187.3562      76.240909      9274.858       307.36078      14305.155      1.3383829      0.74350451   
     29500  -9111.7849     -9189.687       77.902119      6554.5054      314.05785      14304.334      1.3384597      0.74350451   
     29600  -9110.5808     -9189.1528      78.572022      7554.0079      316.75853      14319.732      1.3370205      0.74350451   
     29700  -9111.6686     -9188.0692      76.400643      9381.8209      308.00474      14348.776      1.3343141      0.74350451   
     29800  -9113.1031     -9190.968       77.864905      8064.3873      313.90783      14380.915      1.3313321      0.74350451   
     29900  -9112.8849     -9190.1508      77.265906      7028.35        311.493        14405.175      1.3290901      0.74350451   
     30000  -9113.5912     -9191.6127      78.021427      5773.6804      314.53884      14417.03       1.3279971      0.72321541   
     30100  -9113.6218     -9190.0669      76.445076      8666.3887      308.18387      14416.397      1.3280555      0.72321541   
     30200  -9114.2574     -9191.0945      76.837077      7807.4138      309.7642       14402.814      1.329308       0.72321541   
     30300  -9113.1132     -9190.9015      77.788275      8194.6777      313.5989       14374.689      1.3319088      0.72321541   
     30400  -9111.7924     -9192.1474      80.355033      8619.1976      323.94663      14341.595      1.3349823      0.72321541   
     30500  -9111.6595     -9189.7974      78.13793       9764.5852      315.00851      14310.039      1.3379261      0.72321541   
     30600  -9110.8238     -9189.5395      78.715675      8039.6986      317.33766      14291.372      1.3396737      0.72321541   
     30700  -9110.0527     -9190.2837      80.230985      8264.1159      323.44654      14287.64       1.3400236      0.72321541   
     30800  -9109.1687     -9188.1643      78.995538      10253.529      318.46591      14302.193      1.33866        0.72321541   
     30900  -9110.8362     -9189.4192      78.582987      8298.7826      316.80273      14337.912      1.3353252      0.72321541   
     31000  -9109.7691     -9188.2155      78.446381      7573.7655      316.25202      14386.889      1.3307793      0.6474767    
     31100  -9113.2949     -9189.6795      76.384647      5298.3034      307.94025      14438.087      1.3260603      0.6474767    
     31200  -9113.9536     -9191.8901      77.936456      5591.9535      314.19628      14472.881      1.3228724      0.6474767    
     31300  -9113.3012     -9190.0939      76.79269       5486.2654      309.58525      14482.911      1.3219562      0.6474767    
     31400  -9114.7296     -9192.0762      77.346671      4272.1904      311.8186       14468.451      1.3232774      0.6474767    
     31500  -9112.0468     -9189.1228      77.076054      5284.227       310.72762      14426.318      1.3271422      0.6474767    
     31600  -9111.0679     -9191.0858      80.017882      7779.1986      322.58743      14367.681      1.3325585      0.6474767    
     31700  -9113.6742     -9190.7909      77.116695      7599.7922      310.89146      14305.667      1.338335       0.6474767    
     31800  -9111.5838     -9192.5093      80.925527      9253.3056      326.24655      14253.954      1.3431904      0.6474767    
     31900  -9112.0063     -9189.1168      77.110473      8034.5793      310.86638      14221.397      1.3462654      0.6474767    
     32000  -9110.6494     -9189.7664      79.11696       9933.7054      318.95541      14218.854      1.3465062      0.70942869   
     32100  -9109.2097     -9189.4647      80.255037      10664.11       323.54351      14248.982      1.3436591      0.70942869   
     32200  -9110.9655     -9189.5706      78.605061      8032.3083      316.89172      14307.921      1.3381242      0.70942869   
     32300  -9113.0269     -9190.7633      77.736423      8315.2289      313.38986      14374.425      1.3319332      0.70942869   
     32400  -9114.686      -9191.9941      77.308079      7840.9717      311.66302      14428.96       1.3268992      0.70942869   
     32500  -9114.9309     -9190.65        75.719118      6737.4932      305.25721      14469.356      1.3231946      0.70942869   
     32600  -9112.9093     -9191.888       78.978678      7743.6137      318.39794      14484.848      1.3217794      0.70942869   
     32700  -9114.9983     -9193.6444      78.646097      6584.4604      317.05716      14467.17       1.3233946      0.70942869   
     32800  -9113.1074     -9190.9472      77.839734      6785.5939      313.80635      14421.568      1.3275792      0.70942869   
     32900  -9114.5159     -9191.3799      76.864015      7089.2663      309.8728       14362.939      1.3329984      0.70942869   
     33000  -9112.2639     -9191.2979      79.033991      8486.8138      318.62093      14302.74       1.3386089      0.65077811   
     33100  -9110.2949     -9188.7329      78.438045      9811.3767      316.21841      14256.89       1.3429138      0.65077811   
     33200  -9109.4671     -9188.4423      78.975279      11249.224      318.38423      14241.117      1.3444012      0.65077811   
     33300  -9110.7989     -9189.4454      78.646574      10005.632      317.05908      14258.926      1.3427221      0.65077811   
     33400  -9112.0647     -9190.1386      78.073986      11048.392      314.75072      14297.993      1.3390533      0.65077811   
     33500  -9111.845      -9191.8432      79.998242      9663.5075      322.50825      14351.613      1.3340503      0.65077811   
     33600  -9111.1441     -9190.5052      79.361016      6782.2477      319.93931      14402.943      1.329296       0.65077811   
     33700  -9111.6736     -9189.6002      77.926596      6960.6519      314.15653      14440.987      1.325794       0.65077811   
     33800  -9111.4974     -9187.7933      76.295844      6776.1858      307.58225      14456.364      1.3243838      0.65077811   
     33900  -9112.8198     -9189.2122      76.392416      7251.5848      307.97157      14450.366      1.3249335      0.65077811   
     34000  -9115.3762     -9192.8262      77.449914      3687.2509      312.23482      14425.482      1.327219       0.70298346   
     34100  -9115.3739     -9193.1128      77.738898      5634.3861      313.39984      14381.799      1.3312503      0.70298346   
     34200  -9114.3733     -9192.8325      78.459226      8206.8616      316.3038       14328.673      1.3361862      0.70298346   
     34300  -9115.8572     -9192.9781      77.120887      10030.345      310.90836      14280.359      1.3407068      0.70298346   
     34400  -9116.2707     -9191.5311      75.260353      10847.703      303.40773      14246.442      1.3438987      0.70298346   
     34500  -9115.465      -9191.5674      76.102351      9056.5693      306.80219      14229.421      1.3455062      0.70298346   
     34600  -9114.2907     -9189.5045      75.213738      10554.014      303.2198       14230.677      1.3453875      0.70298346   
     34700  -9112.8873     -9190.4872      77.599891      6932.8715      312.83944      14252.56       1.3433218      0.70298346   
     34800  -9112.9756     -9191.0635      78.087862      7131.2927      314.80666      14294.069      1.3394209      0.70298346   
     34900  -9111.994      -9188.0719      76.077842      8568.8129      306.70338      14346.301      1.3345443      0.70298346   
     35000  -9111.0662     -9187.7631      76.696833      8845.705       309.19881      14402.014      1.3293818      0.64068763   
     35100  -9110.1937     -9187.5816      77.387989      5809.4232      311.98517      14448.765      1.3250804      0.64068763   
     35200  -9113.0669     -9190.5296      77.462652      5462.6202      312.28617      14472.978      1.3228636      0.64068763   
     35300  -9110.8798     -9187.6315      76.751701      3326.023       309.42001      14464.279      1.3236591      0.64068763   
     35400  -9110.5488     -9188.161       77.612177      5646.1792      312.88897      14434.586      1.326382       0.64068763   
     35500  -9111.1873     -9190.4821      79.294803      7867.7386      319.67238      14387.569      1.3307164      0.64068763   
     35600  -9113.4447     -9190.5872      77.142476      10229.185      310.9954       14325.574      1.3364752      0.64068763   
     35700  -9114.1371     -9192.3178      78.180607      10988.028      315.18056      14264.151      1.3422302      0.64068763   
     35800  -9112.246      -9190.8714      78.625436      8012.4709      316.97386      14218.032      1.346584       0.64068763   
     35900  -9111.4821     -9191.2098      79.727712      10129.412      321.41763      14200.21       1.3482741      0.64068763   
     36000  -9111.2829     -9190.1485      78.865624      10333.142      317.94217      14213.063      1.3470548      0.68468187   
     36100  -9110.8518     -9189.625       78.773249      10499.723      317.56976      14256.589      1.3429422      0.68468187   
     36200  -9112.982      -9191.5281      78.546045      9270.6878      316.6538       14321.513      1.3368542      0.68468187   
     36300  -9112.3715     -9190.8235      78.451979      6376.4546      316.27458      14391.517      1.3303513      0.68468187   
     36400  -9112.8716     -9191.2509      78.379292      7994.48        315.98155      14454.195      1.3245826      0.68468187   
     36500  -9112.4357     -9189.0884      76.652669      7260.972       309.02077      14494.126      1.3209333      0.68468187   
     36600  -9111.2204     -9188.9663      77.745884      6512.0675      313.428        14504.978      1.3199451      0.68468187   
     36700  -9110.9176     -9190.1468      79.229193      6193.5784      319.40787      14485.208      1.3217466      0.68468187   
     36800  -9111.8999     -9189.2651      77.365213      7164.5764      311.89335      14437.588      1.3261061      0.68468187   
     36900  -9109.4858     -9189.8411      80.355239      9020.6981      323.94746      14375.513      1.3318324      0.68468187   
     37000  -9109.1905     -9187.964       78.773492      8608.5602      317.57074      14311.778      1.3377635      0.65972264   
     37100  -9108.5264     -9189.1228      80.596385      7739.8918      324.91963      14259.692      1.3426499      0.65972264   
     37200  -9110.0681     -9187.7528      77.684698      8914.298       313.18133      14233.657      1.3451058      0.65972264   
     37300  -9109.4245     -9187.6686      78.244132      7010.4876      315.43666      14241.122      1.3444008      0.65972264   
     37400  -9111.1394     -9189.569       78.429567      9661.1493      316.18423      14277.721      1.3409545      0.65972264   
     37500  -9111.7474     -9190.7199      78.9725        7486.2434      318.37303      14325.575      1.3364751      0.65972264   
     37600  -9109.6225     -9188.2183      78.595787      7583.3885      316.85433      14378.222      1.3315815      0.65972264   
     37700  -9111.8225     -9191.3132      79.490781      5202.9957      320.46245      14429.299      1.326868       0.65972264   
     37800  -9111.9105     -9189.3671      77.456637      3292.2195      312.26192      14464.667      1.3236236      0.65972264   
     37900  -9113.737      -9191.2365      77.499497      7598.6586      312.4347       14477.85       1.3224184      0.65972264   
     38000  -9111.0046     -9189.1097      78.105119      10920.016      314.87624      14460.591      1.3239967      0.62911883   
     38100  -9111.4873     -9189.3534      77.866149      8486.1294      313.91284      14421.514      1.3275842      0.62911883   
     38200  -9110.2998     -9189.9169      79.617086      10721.329      320.97164      14369.783      1.3323635      0.62911883   
     38300  -9110.5441     -9188.6179      78.073786      7242.025       314.74992      14320.362      1.3369616      0.62911883   
     38400  -9111.2783     -9189.7259      78.447562      7857.6407      316.25678      14281.967      1.3405559      0.62911883   
     38500  -9110.1861     -9189.7413      79.55527       10479.602      320.72244      14261.879      1.3424441      0.62911883   
     38600  -9110.4377     -9189.1726      78.734821      10024.081      317.41484      14262.932      1.3423449      0.62911883   
     38700  -9108.5943     -9187.3869      78.792638      10543.235      317.64793      14283.526      1.3404096      0.62911883   
     38800  -9109.5727     -9187.7587      78.185963      8920.7164      315.20215      14324.374      1.3365872      0.62911883   
     38900  -9110.4894     -9189.6103      79.120895      8630.0427      318.97128      14372.519      1.3321099      0.62911883   
     39000  -9110.7752     -9189.4366      78.661379      6693.7672      317.11876      14415.455      1.3281422      0.67011132   
     39100  -9110.8979     -9187.2147      76.316876      6917.9771      307.66704      14444.236      1.3254958      0.67011132   
     39200  -9111.9557     -9191.4234      79.467666      5836.5552      320.36927      14453.838      1.3246153      0.67011132   
     39300  -9111.7632     -9190.1798      78.416648      9371.9978      316.13215      14441.841      1.3257157      0.67011132   
     39400  -9111.1552     -9189.2552      78.10003       7951.2313      314.85572      14409.082      1.3287297      0.67011132   
     39500  -9111.2138     -9187.4108      76.197024      6984.3525      307.18386      14360.603      1.3332153      0.67011132   
     39600  -9110.7682     -9189.3071      78.53888       8661.4069      316.62492      14314.32       1.337526       0.67011132   
     39700  -9110.6587     -9188.3558      77.697105      8931.8883      313.23135      14278.951      1.3408391      0.67011132   
     39800  -9110.1339     -9190.5799      80.445924      9946.5245      324.31306      14266.679      1.3419924      0.67011132   
     39900  -9110.8337     -9190.7506      79.916979      8743.0924      322.18064      14274.594      1.3412483      0.67011132   
     40000  -9111.508      -9187.8738      76.365774      7612.9831      307.86417      14300.027      1.3388628      0.69524933   
     40100  -9112.7116     -9194.2504      81.538766      9533.4075      328.71879      14340.39       1.3350944      0.69524933   
     40200  -9110.5674     -9187.6396      77.072138      10668.839      310.71183      14379.19       1.3314919      0.69524933   
     40300  -9114.875      -9190.5588      75.683851      4620.9408      305.11504      14410.387      1.3286093      0.69524933   
     40400  -9113.9073     -9191.3166      77.409378      3719.7772      312.0714       14419.082      1.3278081      0.69524933   
     40500  -9113.216      -9188.9535      75.737496      3379.6576      305.3313       14407.891      1.3288395      0.69524933   
     40600  -9113.4367     -9190.8764      77.439713      7815.3326      312.19369      14384.16       1.3310318      0.69524933   
     40700  -9113.2596     -9191.08        77.820389      5437.9087      313.72836      14349.611      1.3342365      0.69524933   
     40800  -9112.2698     -9190.5726      78.302722      4867.9414      315.67286      14315.419      1.3374233      0.69524933   
     40900  -9111.3508     -9188.9001      77.549288      9968.3107      312.63543      14288.016      1.3399883      0.69524933   
     41000  -9113.8601     -9192.3087      78.44862       9808.0341      316.26104      14277.017      1.3410206      0.76636891   
     41100  -9113.3442     -9189.954       76.609797      9503.693       308.84793      14277.407      1.340984       0.76636891   
     41200  -9113.984      -9190.7375      76.753452      8359.911       309.42707      14295.173      1.3393175      0.76636891   
     41300  -9113.4574     -9192.1997      78.742263      5805.4543      317.44484      14323.742      1.3366462      0.76636891   
     41400  -9111.6227     -9188.3627      76.739928      7179.4822      309.37255      14353.498      1.3338751      0.76636891   
     41500  -9112.674      -9190.2142      77.540238      7333.7492      312.59895      14384.978      1.3309561      0.76636891   
     41600  -9113.0852     -9191.1413      78.056079      6678.3626      314.67853      14408.826      1.3287533      0.76636891   
     41700  -9113.0996     -9190.1675      77.067919      9663.2702      310.69482      14415.052      1.3281794      0.76636891   
     41800  -9112.2809     -9189.6713      77.390394      9440.8886      311.99486      14403.88       1.3292095      0.76636891   
     41900  -9112.2464     -9190.6321      78.385752      9129.0628      316.00759      14381.35       1.3312919      0.76636891   
     42000  -9111.6337     -9189.1475      77.5138        7786.1625      312.49237      14354.044      1.3338245      0.69777005   
     42100  -9111.3441     -9190.4122      79.068123      5028.3116      318.75853      14328.501      1.3362022      0.69777005   
     42200  -9110.4264     -9188.6333      78.206881      10081.455      315.28648      14310.099      1.3379205      0.69777005   
     42300  -9111.7086     -9190.3806      78.671969      7507.578       317.16146      14304.18       1.3384741      0.69777005   
     42400  -9112.2545     -9190.4508      78.196299      9251.9571      315.24382      14309.493      1.3379772      0.69777005   
     42500  -9114.4363     -9191.7576      77.321241      7717.1143      311.71608      14322.419      1.3367697      0.69777005   
     42600  -9112.9136     -9188.7165      75.802906      8649.646       305.595        14337.895      1.3353268      0.69777005   
     42700  -9110.737      -9187.6166      76.879566      9139.7443      309.93549      14355.446      1.3336942      0.69777005   
     42800  -9111.5771     -9189.4937      77.916595      5096.4797      314.11621      14377.203      1.3316759      0.69777005   
     42900  -9111.204      -9188.6254      77.421444      6210.7055      312.12004      14400.418      1.3295291      0.69777005   
     43000  -9109.9791     -9189.3801      79.400992      4280.3779      320.10047      14420.337      1.3276926      0.77618404   
     43100  -9110.4467     -9189.4815      79.034795      6616.4417      318.62417      14436.788      1.3261797      0.77618404   
     43200  -9111.6301     -9190.2066      78.576461      8338.3062      316.77642      14444.861      1.3254385      0.77618404   
     43300  -9111.9393     -9190.7703      78.831018      4186.2976      317.80266      14441.036      1.3257896      0.77618404   
     43400  -9111.38       -9187.0138      75.633785      6214.8428      304.9132       14414.426      1.3282371      0.77618404   
     43500  -9114.4677     -9191.3359      76.868154      5215.2285      309.88948      14373.588      1.3320108      0.77618404   
     43600  -9113.7461     -9190.0018      76.255684      8287.0227      307.42034      14324.747      1.3365523      0.77618404   
     43700  -9114.894      -9192.0241      77.130111      6577.5457      310.94555      14276.343      1.3410839      0.77618404   
     43800  -9113.9261     -9191.6738      77.747674      8061.481       313.43522      14236.344      1.344852       0.77618404   
     43900  -9112.8048     -9189.8032      76.998446      10617.474      310.41475      14212.686      1.3470905      0.77618404   
     44000  -9112.7221     -9190.7538      78.031762      10403.971      314.5805       14215.125      1.3468594      0.74253212   
     44100  -9112.5699     -9188.9521      76.382156      10347.136      307.93021      14245.828      1.3439566      0.74253212   
     44200  -9112.3764     -9191.0548      78.678387      9391.3797      317.18733      14298.519      1.339004       0.74253212   
     44300  -9112.3456     -9189.6378      77.292171      8950.0118      311.59888      14359.327      1.3333337      0.74253212   
     44400  -9112.3153     -9190.206       77.890678      4545.3697      314.01173      14411.669      1.3284911      0.74253212   
     44500  -9111.5172     -9189.487       77.9698        6849.231       314.33071      14442.217      1.3256811      0.74253212   
     44600  -9109.4717     -9188.1999      78.72818       9209.3566      317.38807      14452.188      1.3247665      0.74253212   
     44700  -9110.9711     -9187.2966      76.32548       8285.5007      307.70173      14442.654      1.325641       0.74253212   
     44800  -9111.3585     -9188.3924      77.033823      3671.6576      310.55737      14413.938      1.328282       0.74253212   
     44900  -9108.6326     -9187.5975      78.964942      8319.1382      318.34256      14373.796      1.3319915      0.74253212   
     45000  -9108.148      -9188.8345      80.686412      9690.1975      325.28257      14332.672      1.3358134      0.66090485   
     45100  -9109.6784     -9189.7564      80.078079      9158.8132      322.83011      14298.386      1.3390165      0.66090485   
     45200  -9111.4508     -9190.4435      78.992747      11308.456      318.45466      14276.016      1.3411147      0.66090485   
     45300  -9110.0005     -9188.4315      78.430911      8785.0347      316.18965      14271.998      1.3414923      0.66090485   
     45400  -9111.3421     -9189.8237      78.481613      9260.8114      316.39405      14288.64       1.3399298      0.66090485   
     45500  -9113.4444     -9190.2169      76.77242       7998.2927      309.50354      14316.381      1.3373334      0.66090485   
     45600  -9113.2508     -9190.4144      77.163589      6472.2784      311.08051      14345.76       1.3345947      0.66090485   
     45700  -9111.5164     -9189.0286      77.512166      8642.6572      312.48578      14371.16       1.3322359      0.66090485   
     45800  -9112.0138     -9189.8143      77.800437      6808.7458      313.64793      14388.833      1.3305995      0.66090485   
     45900  -9112.592      -9190.8751      78.283103      8925.63        315.59377      14391.477      1.3303551      0.66090485   
     46000  -9112.0456     -9188.2034      76.157825      8287.4407      307.02583      14383.757      1.3310691      0.63340963   
     46100  -9114.1532     -9189.9606      75.807396      7619.6248      305.6131       14368.233      1.3325072      0.63340963   
     46200  -9112.5207     -9191.038       78.517328      8688.8856      316.53803      14346.879      1.3344905      0.63340963   
     46300  -9110.8836     -9188.0872      77.203603      8315.2791      311.24183      14324.055      1.336617       0.63340963   
     46400  -9112.8164     -9190.0802      77.26379       7348.1033      311.48447      14312.215      1.3377227      0.63340963   
     46500  -9112.483      -9189.8956      77.412604      11035.099      312.0844       14310.654      1.3378686      0.63340963   
     46600  -9111.6984     -9189.8351      78.136629      9308.1904      315.00326      14320.347      1.3369631      0.63340963   
     46700  -9112.4989     -9190.1629      77.664077      7463.5487      313.0982       14337.532      1.3353606      0.63340963   
     46800  -9113.2474     -9189.3833      76.135931      7867.6584      306.93757      14357.839      1.3334719      0.63340963   
     46900  -9113.6897     -9191.495       77.805254      6494.1407      313.66735      14371.228      1.3322295      0.63340963   
     47000  -9113.0591     -9189.3538      76.294679      9255.0118      307.57755      14372.56       1.3321061      0.65381074   
     47100  -9113.3855     -9189.8561      76.470596      5490.6774      308.28675      14366.29       1.3326874      0.65381074   
     47200  -9112.2081     -9188.6482      76.440117      7732.299       308.16388      14356.275      1.3336171      0.65381074   
     47300  -9112.265      -9191.8193      79.554374      9288.7827      320.71882      14344.857      1.3346787      0.65381074   
     47400  -9112.4233     -9189.6871      77.2638        7881.0979      311.48451      14328.518      1.3362006      0.65381074   
     47500  -9112.2667     -9189.7335      77.466818      8273.9383      312.30296      14309.955      1.3379339      0.65381074   
     47600  -9110.9465     -9189.0744      78.127874      8059.5313      314.96797      14299.114      1.3389483      0.65381074   
     47700  -9111.0978     -9188.6603      77.56246       6325.3423      312.68854      14301.279      1.3387456      0.65381074   
     47800  -9111.3779     -9190.4643      79.086472      7628.7772      318.8325       14319.163      1.3370735      0.65381074   
     47900  -9111.3653     -9188.6004      77.235098      11217.565      311.3688       14345.507      1.3346182      0.65381074   
     48000  -9110.6514     -9191.2485      80.597147      10268.535      324.9227       14381.725      1.3312572      0.67958213   
     48100  -9110.8519     -9188.2008      77.348889      8902.8909      311.82754      14420.841      1.3276462      0.67958213   
     48200  -9111.5267     -9188.7565      77.229779      4400.6552      311.34735      14454.023      1.3245983      0.67958213   
     48300  -9109.3815     -9187.3097      77.92821       4647.9023      314.16304      14471.037      1.3230409      0.67958213   
     48400  -9108.3755     -9187.6322      79.256779      7932.3337      319.51908      14470.987      1.3230455      0.67958213   
     48500  -9110.9        -9190.1658      79.265826      5770.4708      319.55556      14450.164      1.3249521      0.67958213   
     48600  -9110.3708     -9189.1272      78.756428      9449.8241      317.50195      14413.482      1.3283241      0.67958213   
     48700  -9110.9613     -9189.0813      78.119947      9492.0175      314.93602      14368.303      1.3325008      0.67958213   
     48800  -9114.7469     -9192.9725      78.225544      7773.0548      315.36172      14323.429      1.3366753      0.67958213   
     48900  -9115.4222     -9190.6813      75.259052      7810.9141      303.40248      14282.09       1.3405443      0.67958213   
     49000  -9113.7838     -9189.2788      75.495033      9063.0008      304.35383      14252.855      1.343294       0.64371893   
     49100  -9113.654      -9189.3633      75.709313      8798.4231      305.21769      14241.041      1.3444084      0.64371893   
     49200  -9113.2212     -9192.834       79.612727      9498.099       320.95407      14251.575      1.3434146      0.64371893   
     49300  -9114.101      -9191.2113      77.11021       5807.9306      310.86532      14276.835      1.3410377      0.64371893   
     49400  -9112.2614     -9188.806       76.544644      6736.8809      308.58527      14314.159      1.337541       0.64371893   
     49500  -9110.5493     -9190.3386      79.789254      8087.6639      321.66573      14364.108      1.3328899      0.64371893   
     49600  -9110.5906     -9190.3998      79.809265      6733.0888      321.7464       14412.69       1.328397       0.64371893   
     49700  -9110.6339     -9188.9284      78.294553      8319.4473      315.63993      14445.043      1.3254218      0.64371893   
     49800  -9114.4076     -9190.8551      76.447494      5941.5199      308.19362      14460.388      1.3240153      0.64371893   
     49900  -9112.3702     -9188.8555      76.485344      8253.1437      308.34621      14451.239      1.3248535      0.64371893   
     50000  -9113.4256     -9191.9424      78.51681       5613.6055      316.53594      14423.326      1.3274175      0.64539431   
     50100  -9114.1241     -9188.3271      74.202915      7941.7182      299.14473      14379.815      1.331434       0.64539431   
     50200  -9113.8526     -9191.738       77.885357      9460.1143      313.99028      14337.592      1.335355       0.64539431   
     50300  -9115.1678     -9190.3844      75.216661      9466.6067      303.23158      14303.394      1.3385476      0.64539431   
     50400  -9113.8719     -9191.7761      77.90418       6988.6795      314.06616      14279.435      1.3407936      0.64539431   
     50500  -9114.3226     -9189.1226      74.800006      7640.0888      301.55186      14270.453      1.3416375      0.64539431   
     50600  -9114.6215     -9190.2749      75.65336       6410.675       304.99211      14279.257      1.3408103      0.64539431   
     50700  -9113.0966     -9190.3205      77.223864      8267.3643      311.32351      14299.894      1.3388753      0.64539431   
     50800  -9113.8436     -9192.5304      78.686796      7590.8826      317.22123      14328.652      1.3361881      0.64539431   
     50900  -9113.9333     -9189.9425      76.009248      5933.6397      306.42685      14358.37       1.3334226      0.64539431   
     51000  -9112.0953     -9190.3229      78.227565      7582.3321      315.36987      14386.423      1.3308224      0.6375909    
     51100  -9110.6392     -9190.3186      79.679408      11371.137      321.22289      14410.25       1.328622       0.6375909    
     51200  -9109.2512     -9188.9381      79.686927      10122.835      321.2532       14424.461      1.327313       0.6375909    
     51300  -9109.6472     -9188.774       79.126724      5358.6328      318.99478      14429.341      1.3268641      0.6375909    
     51400  -9109.6991     -9189.4379      79.738875      7327.9369      321.46263      14420.074      1.3277168      0.6375909    
     51500  -9108.3937     -9188.904       80.510343      9766.7429      324.57276      14397.484      1.3298         0.6375909    
     51600  -9108.0361     -9186.8155      78.77936       7780.5058      317.5944       14374.387      1.3319367      0.6375909    
     51700  -9108.4584     -9187.9047      79.446264      7876.8428      320.28298      14359.338      1.3333326      0.6375909    
     51800  -9108.0509     -9189.2231      81.172131      6181.3718      327.24072      14352.028      1.3340118      0.6375909    
     51900  -9109.046      -9190.398       81.351908      7515.3566      327.96548      14348.769      1.3343148      0.6375909    
     52000  -9111.475      -9190.0371      78.562085      7639.6444      316.71847      14349.987      1.3342015      0.63297668   
     52100  -9112.0852     -9190.0306      77.945474      8345.9047      314.23264      14355.669      1.3336734      0.63297668   
     52200  -9114.2693     -9192.1645      77.895258      10022.329      314.03019      14362.102      1.3330761      0.63297668   
     52300  -9111.8613     -9190.1812      78.319904      6305.4979      315.74213      14365.611      1.3327505      0.63297668   
     52400  -9109.553      -9188.6091      79.056103      4059.8971      318.71007      14372.014      1.3321567      0.63297668   
     52500  -9109.0479     -9190.1787      81.130799      6927.1043      327.07409      14384.46       1.3310041      0.63297668   
     52600  -9107.0943     -9186.4951      79.400747      5919.9238      320.09948      14399.218      1.3296399      0.63297668   
     52700  -9109.0684     -9187.8201      78.751667      7643.2236      317.48276      14414.192      1.3282586      0.63297668   
     52800  -9107.5331     -9188.0515      80.518416      5722.4065      324.6053       14424.418      1.3273169      0.63297668   
     52900  -9107.6957     -9185.5872      77.891464      6698.6006      314.0149       14429.226      1.3268747      0.63297668   
     53000  -9108.3664     -9188.4276      80.061263      6374.9322      322.76231      14427.598      1.3270244      0.645462     
     53100  -9108.3876     -9189.7559      81.36825       8682.4108      328.03136      14420.506      1.3276771      0.645462     
     53200  -9109.361      -9186.7889      77.427864      7870.0507      312.14592      14409.785      1.3286649      0.645462     
     53300  -9109.7129     -9188.2303      78.517409      8189.996       316.53836      14398.487      1.3297074      0.645462     
     53400  -9110.4328     -9189.7445      79.311648      9172.4118      319.74029      14384.817      1.330971       0.645462     
     53500  -9109.1628     -9188.2812      79.118413      8281.7546      318.96127      14371.218      1.3322305      0.645462     
     53600  -9109.2211     -9189.6213      80.400176      8086.8872      324.12862      14362.486      1.3330405      0.645462     
     53700  -9108.4619     -9188.0951      79.633202      8193.1892      321.03661      14356.541      1.3335925      0.645462     
     53800  -9111.2375     -9190.0977      78.860162      9940.7086      317.92015      14361.103      1.3331688      0.645462     
     53900  -9112.6204     -9189.6989      77.078513      7459.4567      310.73753      14369.522      1.3323877      0.645462     
     54000  -9108.3757     -9185.2061      76.830344      10391.763      309.73706      14372.373      1.3321234      0.63924226   
     54100  -9107.6171     -9187.9125      80.295419      7142.9439      323.7063       14374.168      1.3319571      0.63924226   
     54200  -9110.5164     -9188.119       77.602581      7867.2972      312.85028      14374.503      1.331926       0.63924226   
     54300  -9112.372      -9189.7166      77.344561      9090.1353      311.81009      14373.864      1.3319852      0.63924226   
     54400  -9111.8791     -9190.597       78.717869      8400.6675      317.3465       14368.263      1.3325045      0.63924226   
     54500  -9110.3769     -9189.1939      78.817026      7981.3176      317.74625      14358.122      1.3334456      0.63924226   
     54600  -9111.779      -9189.7602      77.981147      6384.6642      314.37645      14356.808      1.3335676      0.63924226   
     54700  -9112.6731     -9191.9348      79.261653      4772.619       319.53874      14357.413      1.3335114      0.63924226   
     54800  -9112.6234     -9190.0646      77.44115       8126.1273      312.19948      14353.873      1.3338403      0.63924226   
     54900  -9111.4219     -9188.9012      77.47927       6769.9727      312.35316      14346.42       1.3345333      0.63924226   
     55000  -9112.1177     -9189.9487      77.831013      7973.8724      313.77119      14341.236      1.3350157      0.74579694   
     55100  -9113.2844     -9191.8513      78.566816      6488.5084      316.73754      14337.789      1.3353366      0.74579694   
     55200  -9111.9936     -9189.9021      77.908407      8018.9582      314.0832       14335.783      1.3355235      0.74579694   
     55300  -9111.7871     -9189.053       77.2659        11528.049      311.49298      14335.895      1.335513       0.74579694   
     55400  -9111.7299     -9191.1291      79.399272      9041.8984      320.09354      14342.911      1.3348598      0.74579694   
     55500  -9110.3746     -9188.292       77.917411      9079.8859      314.1195       14354.045      1.3338244      0.74579694   
     55600  -9109.9167     -9188.4531      78.536382      9739.0302      316.61485      14370.147      1.3323298      0.74579694   
     55700  -9110.0059     -9188.8216      78.815728      6707.0454      317.74101      14389.322      1.3305544      0.74579694   
     55800  -9110.7612     -9190.9467      80.185506      5367.5319      323.2632       14402.261      1.329359       0.74579694   
     55900  -9110.9745     -9189.1471      78.172563      4927.078       315.14813      14404.802      1.3291245      0.74579694   
     56000  -9110.9287     -9188.4527      77.524051      7800.751       312.53369      14400.258      1.3295439      0.69664794   
     56100  -9111.5487     -9189.6397      78.091015      6023.0251      314.81937      14387.863      1.3306892      0.69664794   
     56200  -9110.456      -9188.4819      78.025953      6779.3509      314.55708      14372.385      1.3321223      0.69664794   
     56300  -9109.7631     -9189.0821      79.319005      7148.1447      319.76995      14357.924      1.333464       0.69664794   
     56400  -9107.5946     -9189.3982      81.803573      6908.6944      329.78634      14348.975      1.3342956      0.69664794   
     56500  -9107.2776     -9186.3418      79.064174      7894.6836      318.74261      14349.807      1.3342183      0.69664794   
     56600  -9108.4114     -9187.8299      79.41852       8870.5381      320.17113      14359.329      1.3333335      0.69664794   
     56700  -9108.7271     -9188.0754      79.348362      8363.9013      319.8883       14375.487      1.3318349      0.69664794   
     56800  -9109.8674     -9186.5978      76.730464      7618.7953      309.33439      14388.824      1.3306004      0.69664794   
     56900  -9109.8384     -9188.0805      78.242043      8165.9855      315.42824      14397.378      1.3298098      0.69664794   
     57000  -9112.2752     -9192.1141      79.838835      5136.331       321.86561      14398.501      1.3297061      0.64503659   
     57100  -9109.0571     -9189.8706      80.813465      7289.2654      325.79478      14386.546      1.3308111      0.64503659   
     57200  -9109.0899     -9189.075       79.985099      5093.2907      322.45527      14370.021      1.3323415      0.64503659   
[...]
    386300  -9112.1637     -9191.3462      79.182576      10355.751      319.21994      14263.34       1.3423066      0.76261649   
    386400  -9109.5483     -9189.9238      80.37548       10573.128      324.02907      14270.649      1.341619       0.76261649   
    386500  -9110.3395     -9188.4195      78.079978      7876.6426      314.77488      14300.214      1.3388453      0.76261649   
    386600  -9110.9238     -9187.5382      76.614339      9460.8911      308.86625      14343.208      1.3348321      0.76261649   
    386700  -9111.003      -9189.4962      78.493222      9969.0953      316.44085      14386.499      1.3308154      0.76261649   
    386800  -9110.7236     -9189.9931      79.269548      8470.0827      319.57056      14419.959      1.3277274      0.76261649   
    386900  -9111.8279     -9189.5502      77.722263      8171.9514      313.33277      14432.065      1.3266137      0.76261649   
    387000  -9111.4088     -9189.8991      78.49032       5102.8767      316.42915      14423.756      1.3273778      0.69783244   
    387100  -9112.1855     -9191.7897      79.604134      8180.0938      320.91943      14401.936      1.3293889      0.69783244   
    387200  -9112.8783     -9191.1039      78.225637      9949.0071      315.3621       14372.395      1.3321214      0.69783244   
    387300  -9113.196      -9191.2254      78.029418      9274.095       314.57105      14341.948      1.3349494      0.69783244   
    387400  -9112.7195     -9190.0037      77.284174      8717.253       311.56664      14312.179      1.3377261      0.69783244   
    387500  -9112.3492     -9188.8047      76.455525      8689.9993      308.22599      14289.909      1.3398108      0.69783244   
    387600  -9111.6093     -9189.2941      77.684794      8575.343       313.18172      14279.978      1.3407426      0.69783244   
    387700  -9112.1767     -9190.1272      77.950553      8802.0882      314.25311      14286.618      1.3401194      0.69783244   
    387800  -9112.191      -9190.7861      78.595097      7371.6381      316.85155      14308.206      1.3380975      0.69783244   
    387900  -9112.134      -9187.4285      75.294451      8324.4137      303.54519      14335.051      1.3355916      0.69783244   
    388000  -9113.6904     -9190.7154      77.024962      7798.703       310.52164      14363.778      1.3329205      0.67796577   
    388100  -9114.1215     -9191.4703      77.34886       7015.5969      311.82742      14385.009      1.3309532      0.67796577   
    388200  -9114.1674     -9188.326       74.158587      5680.7463      298.96602      14395.512      1.3299822      0.67796577   
    388300  -9114.9848     -9193.1187      78.133905      7134.709       314.99229      14398.677      1.3296898      0.67796577   
    388400  -9114.6667     -9191.9881      77.321422      7393.0985      311.71681      14388.812      1.3306015      0.67796577   
    388500  -9115.3484     -9192.9519      77.603507      8420.2979      312.85401      14366.511      1.332667       0.67796577   
    388600  -9113.6681     -9191.37        77.701907      9821.2459      313.25071      14333.014      1.3357815      0.67796577   
    388700  -9111.8061     -9188.4628      76.656731      8982.0918      309.03714      14299.318      1.3389292      0.67796577   
    388800  -9110.1093     -9189.2962      79.186881      8787.4324      319.2373       14278.97       1.3408372      0.67796577   
    388900  -9109.1157     -9187.3149      78.199252      12755.324      315.25573      14271.963      1.3414955      0.67796577   
    389000  -9107.9325     -9185.8685      77.935941      11841.564      314.1942       14284.68       1.3403013      0.64205688   
    389100  -9109.3359     -9187.5136      78.177645      7169.9261      315.16862      14320.013      1.3369942      0.64205688   
    389200  -9112.5804     -9190.0285      77.448098      7390.4268      312.22749      14369.967      1.3323464      0.64205688   
    389300  -9114.4065     -9191.5385      77.132049      6906.6046      310.95336      14415.913      1.3281         0.64205688   
    389400  -9114.6736     -9191.9637      77.290045      6653.3758      311.59031      14442.429      1.3256617      0.64205688   
    389500  -9112.9084     -9190.4415      77.533102      6370.6756      312.57018      14441.655      1.3257327      0.64205688   
    389600  -9111.7171     -9188.7373      77.020184      8405.6283      310.50238      14414.896      1.3281938      0.64205688   
    389700  -9110.8523     -9191.6058      80.753489      5014.906       325.55298      14372.504      1.3321113      0.64205688   
    389800  -9108.4196     -9187.4548      79.035142      8823.2787      318.62557      14316.81       1.3372933      0.64205688   
    389900  -9106.9843     -9185.7716      78.787301      9042.6527      317.62641      14268.327      1.3418374      0.64205688   
    390000  -9107.1222     -9188.4512      81.329027      8716.654       327.87323      14239.765      1.3445288      0.64661362   
    390100  -9109.7188     -9186.3287      76.609933      7432.8932      308.84848      14235.055      1.3449737      0.64661362   
    390200  -9110.4403     -9190.9657      80.525346      7972.9294      324.63324      14250.875      1.3434807      0.64661362   
    390300  -9110.95       -9190.0798      79.1298        12728.383      319.00718      14288.691      1.3399251      0.64661362   
    390400  -9111.0354     -9187.9127      76.877275      9373.5656      309.92625      14340.045      1.3351266      0.64661362   
    390500  -9112.3571     -9190.1725      77.815372      7782.9324      313.70814      14396.169      1.3299215      0.64661362   
    390600  -9115.7177     -9193.0751      77.357322      7762.5672      311.86153      14438.292      1.3260415      0.64661362   
    390700  -9115.2165     -9189.2008      73.984282      8954.2445      298.26332      14450.772      1.3248964      0.64661362   
    390800  -9113.7428     -9192.0326      78.289778      8952.8765      315.62068      14432.72       1.3265535      0.64661362   
    390900  -9117.04       -9193.2236      76.18362       8897.7422      307.12982      14383.636      1.3310803      0.64661362   
    391000  -9114.8443     -9191.1411      76.29688       8859.1858      307.58642      14314.468      1.3375121      0.68649397   
    391100  -9112.3002     -9188.5621      76.261888      11744.678      307.44536      14250.95       1.3434736      0.68649397   
    391200  -9112.0766     -9188.7556      76.679         7476.6724      309.12692      14209.336      1.3474081      0.68649397   
    391300  -9111.2723     -9188.8239      77.551519      7147.118       312.64443      14193.949      1.3488687      0.68649397   
    391400  -9112.3282     -9191.8762      79.547982      8870.2535      320.69306      14206.798      1.3476489      0.68649397   
    391500  -9112.4192     -9189.9575      77.538309      10225.306      312.59117      14245.075      1.3440276      0.68649397   
    391600  -9111.9592     -9187.9918      76.032601      8650.8537      306.521        14303.281      1.3385583      0.68649397   
    391700  -9110.7472     -9188.6406      77.893337      6191.8312      314.02245      14369.845      1.3323578      0.68649397   
    391800  -9110.0618     -9189.0468      78.984995      9007.5239      318.4234       14427.036      1.3270761      0.68649397   
    391900  -9111.0012     -9190.5323      79.531057      10703.01       320.62482      14468.339      1.3232877      0.68649397   
    392000  -9113.7285     -9190.5139      76.785402      9391.0329      309.55587      14482.076      1.3220324      0.71177891   
    392100  -9111.9834     -9191.3645      79.381111      5025.3528      320.02032      14462.042      1.3238638      0.71177891   
    392200  -9112.1036     -9188.8882      76.784548      7324.6641      309.55243      14410.735      1.3285773      0.71177891   
    392300  -9109.8467     -9188.2661      78.419392      6727.0662      316.14321      14343.264      1.3348269      0.71177891   
    392400  -9110.0719     -9188.7889      78.716999      8115.6057      317.34299      14279.641      1.3407742      0.71177891   
    392500  -9110.8934     -9190.1113      79.217874      8063.8221      319.36224      14236.186      1.3448669      0.71177891   
    392600  -9110.316      -9190.0537      79.737613      8627.7292      321.45754      14217.057      1.3466763      0.71177891   
    392700  -9109.7711     -9190.3625      80.591404      8763.0405      324.89955      14224.339      1.3459869      0.71177891   
    392800  -9109.679      -9187.4491      77.770193      8064.8187      313.526        14253.534      1.34323        0.71177891   
    392900  -9110.6797     -9188.2391      77.559318      8596.5906      312.67587      14302.242      1.3386555      0.71177891   
    393000  -9111.0518     -9189.0616      78.009836      7785.9215      314.49211      14358.607      1.3334006      0.61126078   
    393100  -9112.9372     -9191.4764      78.539188      7375.799       316.62616      14404.059      1.329193       0.61126078   
    393200  -9112.4799     -9188.9183      76.438389      7850.8354      308.15691      14428.897      1.3269049      0.61126078   
    393300  -9113.5891     -9189.6842      76.095056      4506.3414      306.77278      14428.343      1.3269559      0.61126078   
    393400  -9113.1168     -9189.2063      76.089484      5318.261       306.75032      14405.221      1.3290858      0.61126078   
    393500  -9113.2635     -9189.3216      76.058114      7345.9621      306.62385      14362.391      1.3330493      0.61126078   
    393600  -9111.0028     -9188.1205      77.117751      7036.4602      310.89572      14308.736      1.338048       0.61126078   
    393700  -9110.79       -9190.5783      79.788303      8784.0899      321.66189      14258.553      1.3427572      0.61126078   
    393800  -9110.511      -9188.2878      77.776808      9662.1807      313.55267      14222.823      1.3461304      0.61126078   
    393900  -9112.7916     -9190.1724      77.380762      10967.522      311.95603      14209.822      1.347362       0.61126078   
    394000  -9109.8589     -9189.816       79.957024      12494.489      322.34208      14220.372      1.3463625      0.70134154   
    394100  -9110.229      -9189.5651      79.336057      10124.141      319.83869      14258.2        1.3427905      0.70134154   
    394200  -9112.149      -9191.613       79.464051      8249.6253      320.35469      14314.317      1.3375262      0.70134154   
    394300  -9110.5059     -9187.9404      77.434488      5777.5282      312.17263      14375.735      1.3318119      0.70134154   
    394400  -9113.0376     -9192.1609      79.123264      4654.0373      318.98083      14426.487      1.3271266      0.70134154   
    394500  -9112.1644     -9190.606       78.441559      6360.4884      316.23257      14453.238      1.3246702      0.70134154   
    394600  -9111.6203     -9187.7139      76.093575      8851.1434      306.76682      14447.147      1.3252288      0.70134154   
    394700  -9110.7065     -9189.5391      78.832674      8636.0539      317.80933      14414.454      1.3282344      0.70134154   
    394800  -9110.7794     -9188.7453      77.965919      6477.1551      314.31506      14364.794      1.3328263      0.70134154   
    394900  -9112.669      -9189.1582      76.489212      6498.3222      308.3618       14310.813      1.3378537      0.70134154   
    395000  -9112.1792     -9190.6825      78.503274      9366.0151      316.48138      14258.574      1.3427552      0.65345723   
    395100  -9113.7314     -9189.7266      75.9952        9780.5783      306.37022      14220.519      1.3463486      0.65345723   
    395200  -9114.6131     -9191.8987      77.285676      10784.49       311.5727       14199.68       1.3483244      0.65345723   
    395300  -9114.2417     -9192.0952      77.853486      11070.672      313.86179      14201.424      1.3481588      0.65345723   
    395400  -9115.6067     -9192.5828      76.976087      7106.9742      310.32461      14231.453      1.3453142      0.65345723   
    395500  -9116.4532     -9191.494       75.04087       10185.657      302.52289      14277.22       1.3410016      0.65345723   
    395600  -9113.4386     -9192.0486      78.610071      8743.9929      316.91192      14329.583      1.3361013      0.65345723   
    395700  -9112.9496     -9189.1647      76.21518       9480.7897      307.25706      14382.276      1.3312062      0.65345723   
    395800  -9112.6295     -9190.6599      78.030477      8669.5513      314.57532      14426.235      1.3271497      0.65345723   
    395900  -9113.695      -9193.6907      79.995704      8323.1497      322.49802      14444.26       1.3254936      0.65345723   
    396000  -9112.4603     -9189.645       77.184695      7000.6808      311.1656       14430.788      1.3267311      0.67054828   
    396100  -9110.1329     -9187.7395      77.606645      7685.5815      312.86667      14394.847      1.3300436      0.67054828   
    396200  -9110.783      -9191.1778      80.394766      7110.0382      324.10681      14346.668      1.3345101      0.67054828   
    396300  -9113.7287     -9190.5025      76.773781      8334.59        309.50902      14289.611      1.3398387      0.67054828   
    396400  -9110.4776     -9190.0173      79.539709      10882.862      320.6597       14237.518      1.344741       0.67054828   
    396500  -9109.6648     -9188.2858      78.621012      8243.1492      316.95603      14204.179      1.3478973      0.67054828   
    396600  -9112.2796     -9189.9864      77.706765      7305.1882      313.2703       14200.83       1.3482152      0.67054828   
    396700  -9111.7349     -9190.3977      78.662849      6831.7927      317.12469      14227.196      1.3457167      0.67054828   
    396800  -9111.5193     -9189.352       77.832643      8482.355       313.77776      14273.987      1.3413053      0.67054828   
    396900  -9111.8276     -9190.0402      78.212535      9035.6817      315.30928      14332.868      1.3357951      0.67054828   
    397000  -9112.2609     -9190.0138      77.752876      7043.96        313.45619      14389.976      1.3304938      0.66156509   
    397100  -9113.3345     -9190.1891      76.854588      5302.7493      309.83479      14434.657      1.3263754      0.66156509   
    397200  -9112.3094     -9192.5004      80.191037      5535.1906      323.28549      14459.688      1.3240794      0.66156509   
    397300  -9113.0503     -9188.5348      75.484544      7621.966       304.31154      14456.597      1.3243625      0.66156509   
    397400  -9111.1097     -9188.8938      77.784115      5612.2111      313.58213      14427.13       1.3270674      0.66156509   
    397500  -9111.7834     -9187.4958      75.712404      7700.2846      305.23015      14372.935      1.3320713      0.66156509   
    397600  -9112.5497     -9190.2508      77.701099      7919.2927      313.24745      14312.68       1.3376792      0.66156509   
    397700  -9112.9305     -9190.5494      77.618862      8539.6416      312.91592      14260.843      1.3425416      0.66156509   
    397800  -9113.9969     -9192.6696      78.672665      7873.0617      317.16426      14227.061      1.3457295      0.66156509   
    397900  -9114.8245     -9192.4484      77.623829      5521.244       312.93594      14214.991      1.3468721      0.66156509   
    398000  -9114.8116     -9190.306       75.494468      10237.504      304.35155      14226.377      1.3457942      0.62174669   
    398100  -9114.1723     -9190.8155      76.643212      11150.449      308.98264      14261.053      1.3425218      0.62174669   
    398200  -9115.7747     -9192.8346      77.059893      10497.951      310.66247      14308.824      1.3380397      0.62174669   
    398300  -9116.2359     -9192.4007      76.164874      6944.239       307.05425      14356.711      1.3335767      0.62174669   
    398400  -9114.4401     -9190.1903      75.750113      8400.9913      305.38217      14396.219      1.3299169      0.62174669   
    398500  -9111.8426     -9187.5669      75.724275      7612.5749      305.278        14422.203      1.3275209      0.62174669   
    398600  -9113.0331     -9191.2601      78.226982      5196.7905      315.36752      14432.662      1.3265587      0.62174669   
    398700  -9110.9336     -9187.8362      76.902663      8454.1383      310.02861      14424.839      1.3272782      0.62174669   
    398800  -9111.3429     -9189.4939      78.15094       8577.2281      315.06096      14405.208      1.329087       0.62174669   
    398900  -9110.6405     -9189.4334      78.792862      6961.2814      317.64883      14376.555      1.3317359      0.62174669   
    399000  -9108.8628     -9187.7235      78.860732      10190.42       317.92245      14343.877      1.3347698      0.69115117   
    399100  -9107.5458     -9186.8685      79.322673      12790.903      319.78473      14316.276      1.3373433      0.69115117   
    399200  -9108.462      -9190.3907      81.928734      11421.724      330.29092      14299.664      1.3388968      0.69115117   
    399300  -9110.5372     -9190.8116      80.274377      6894.1992      323.62147      14293.703      1.3394552      0.69115117   
    399400  -9112.7085     -9189.5662      76.857734      10131.344      309.84748      14294.031      1.3394244      0.69115117   
    399500  -9111.4864     -9189.438       77.951691      7201.8546      314.2577       14297.925      1.3390597      0.69115117   
    399600  -9110.9285     -9190.5129      79.584374      5621.1068      320.83976      14307.094      1.3382015      0.69115117   
    399700  -9111.9073     -9190.4322      78.524829      5386.4049      316.56827      14317.968      1.3371852      0.69115117   
    399800  -9111.8284     -9188.6922      76.86372       10169.574      309.87161      14327.2        1.3363235      0.69115117   
    399900  -9111.8525     -9191.4664      79.613856      10727.427      320.95862      14337.079      1.3354027      0.69115117   
    400000  -9111.4486     -9190.1508      78.702103      11126.409      317.28294      14345.931      1.3345787      0.62047773   
    400100  -9112.4443     -9191.0749      78.630563      6581.097       316.99453      14354.337      1.3337973      0.62047773   
    400200  -9111.6295     -9188.6948      77.065352      7223.3948      310.68448      14358.924      1.3333711      0.62047773   
    400300  -9111.942      -9190.6009      78.65883       8245.0208      317.10849      14361.125      1.3331668      0.62047773   
    400312  -9112.2438     -9188.7988      76.554988      9730.0902      308.62697      14361.179      1.3331617      0.62047773   
Loop time of 558.901 on 4 procs for 200000 steps with 1920 atoms

Performance: 15.459 ns/day, 1.553 hours/ns, 357.845 timesteps/s, 687.063 katom-step/s
99.5% CPU use with 4 MPI tasks x 1 OpenMP threads

MPI task timing breakdown:
Section |  min time  |  avg time  |  max time  |%varavg| %total
---------------------------------------------------------------
Pair    | 272.03     | 275.89     | 278.87     |  15.6 | 49.36
Neigh   | 7.9006     | 7.999      | 8.0779     |   2.5 |  1.43
Comm    | 66.221     | 73.389     | 79.393     |  54.8 | 13.13
Output  | 0.32245    | 0.32888    | 0.33689    |   0.9 |  0.06
Modify  | 196.42     | 198.73     | 203.11     |  19.3 | 35.56
Other   |            | 2.562      |            |       |  0.46

Nlocal:            480 ave         484 max         478 min
Histogram: 1 2 0 0 0 0 0 0 0 1
Nghost:        2659.75 ave        2663 max        2656 min
Histogram: 1 0 0 0 0 2 0 0 0 1
Neighs:              0 ave           0 max           0 min
Histogram: 4 0 0 0 0 0 0 0 0 0
FullNghs:      75206.5 ave       76026 max       74775 min
Histogram: 1 1 1 0 0 0 0 0 0 1

Total # of neighbors = 300826
Ave neighs/atom = 156.68021
Neighbor list builds = 20000
Dangerous builds = 20000
Total wall time: 0:18:38
