LAMMPS (7 Feb 2024 - Update 1)
KOKKOS mode with Kokkos version 4.2.0 is enabled (src/KOKKOS/kokkos.cpp:72)
  will use up to 2 GPU(s) per node
  using 1 OpenMP thread(s) per MPI task
Reading data file ...
  orthogonal box = (0 0 0) to (18.207572 23.629178 22.213196)
  1 by 2 by 1 MPI processor grid
  reading atoms ...
  864 atoms
  read_data CPU = 0.011 seconds
ACE/AL version: 2023.11.25
Loading /home/cicn/cicn607503/pd/pot_dir/interim_potential_ladder_step_5.yaml
Total number of basis functions
	H: 24 (r=1) 863 (r>1)
	O: 24 (r=1) 863 (r>1)
Mapping LAMMPS atom type #1(H) -> ACE species type #0
Mapping LAMMPS atom type #2(O) -> ACE species type #1
Loading ASI /home/cicn/cicn607503/pd/pot_dir/interim_potential_ladder_step_5.asi
LINEAR ASI is loaded
Switching to 'neigh_modify every 1 delay 0 check yes' setting during minimization
Neighbor list info ...
  update: every = 1 steps, delay = 0 steps, check = yes
  max neighbors/atom: 2000, page size: 100000
  master list distance cutoff = 6.5
  ghost atom cutoff = 6.5
  binsize = 6.5, bins = 3 4 4
  1 neighbor lists, perpetual/occasional/extra = 1 0 0
  (1) pair pace/extrapolation/kk, perpetual
      attributes: full, newton on, kokkos_device
      pair build: full/bin/kk/device
      stencil: full/bin/3d
      bin: kk/device
Setting up cg/kk style minimization ...
  Unit style    : metal
  Current step  : 0
WARNING: Fix with atom-based arrays not compatible with sending data in Kokkos communication, switching to classic exchange/border communication (src/KOKKOS/comm_kokkos.cpp:666)
WARNING: Fix with atom-based arrays not compatible with Kokkos sorting on device, switching to classic host sorting (src/KOKKOS/atom_kokkos.cpp:218)
Per MPI rank memory allocation (min/avg/max) = 449.3 | 453 | 456.7 Mbytes
   Step         TotEng         PotEng         KinEng         Press           Temp          Volume        Density     c_max_pace_gamma
         0  -4180.7249     -4180.7249      0              931.57303      0              9556.7825      0.90151666     0.51848279   
       100  -4182.8568     -4182.8568      0             -5818.1351      0              9556.7825      0.90151666     0.51848279   
       191  -4182.8571     -4182.8571      0             -5809.5218      0              9556.7825      0.90151666     0.51848279   
Loop time of 0.668651 on 2 procs for 191 steps with 864 atoms

99.6% CPU use with 2 MPI tasks x 1 OpenMP threads

Minimization stats:
  Stopping criterion = force tolerance
  Energy initial, next-to-last, final = 
      -4180.7249004513  -4182.85708343912  -4182.85708344367
  Force two-norm initial, final = 6.5563152 0.00040677855
  Force max component initial, final = 0.28078875 3.6224289e-05
  Final line search alpha, max atom move = 1 3.6224289e-05
  Iterations, force evaluations = 191 382

MPI task timing breakdown:
Section |  min time  |  avg time  |  max time  |%varavg| %total
---------------------------------------------------------------
Pair    | 0.45964    | 0.46096    | 0.46228    |   0.2 | 68.94
Neigh   | 0          | 0          | 0          |   0.0 |  0.00
Comm    | 0.06757    | 0.069411   | 0.071253   |   0.7 | 10.38
Output  | 0.0001523  | 0.00015292 | 0.00015354 |   0.0 |  0.02
Modify  | 0.088599   | 0.08986    | 0.091121   |   0.4 | 13.44
Other   |            | 0.04827    |            |       |  7.22

Nlocal:            432 ave         436 max         428 min
Histogram: 1 0 0 0 0 0 0 0 0 1
Nghost:           2169 ave        2174 max        2164 min
Histogram: 1 0 0 0 0 0 0 0 0 1
Neighs:              0 ave           0 max           0 min
Histogram: 2 0 0 0 0 0 0 0 0 0
FullNghs:        45636 ave       46083 max       45189 min
Histogram: 1 0 0 0 0 0 0 0 0 1

Total # of neighbors = 91272
Ave neighs/atom = 105.63889
Neighbor list builds = 0
Dangerous builds = 0
Setting up Verlet run ...
  Unit style    : metal
  Current step  : 191
  Time step     : 0.0005
WARNING: Fix with atom-based arrays not compatible with sending data in Kokkos communication, switching to classic exchange/border communication (src/KOKKOS/comm_kokkos.cpp:666)
WARNING: Fix with atom-based arrays not compatible with Kokkos sorting on device, switching to classic host sorting (src/KOKKOS/atom_kokkos.cpp:218)
Per MPI rank memory allocation (min/avg/max) = 453.3 | 454.9 | 456.4 Mbytes
   Step         TotEng         PotEng         KinEng         Press           Temp          Volume        Density     c_max_pace_gamma
       191  -4150.5071     -4182.8571      32.349936     -2193.9181      290            9556.7825      0.90151666     0.51848279   
       200  -4149.7006     -4172.963       23.262396     -10476.658      208.53502      9556.3673      0.90155583     0.51848279   
       300  -4142.1593     -4163.2549      21.095586     -2022.8847      189.11072      9519.7601      0.90502266     0.51848279   
       400  -4135.8197     -4157.2278      21.408075     -976.37435      191.91202      9440.0125      0.91266814     0.51848279   
       500  -4131.7069     -4156.0396      24.332652     -1029.3416      218.12931      9328.595       0.92356873     0.51848279   
       600  -4127.4119     -4155.7995      28.387591      669.51565      254.47968      9220.6521      0.93438061     0.51848279   
       700  -4123.7281     -4152.9025      29.174439      6248.8026      261.53335      9151.3245      0.94145919     0.51848279   
       800  -4121.6658     -4152.3944      30.728655      4241.9258      275.46607      9144.1205      0.9422009      0.51848279   
       900  -4120.4735     -4150.4339      29.960495      4204.5312      268.57993      9197.7258      0.93670966     0.51848279   
      1000  -4120.3845     -4150.7137      30.329232      1644.8695      271.88546      9295.4349      0.92686342     0.68627623   
      1100  -4119.1792     -4149.3466      30.167396      2127.3585      270.43469      9410.1253      0.91556683     0.68627623   
      1200  -4118.285      -4148.9523      30.667284     -69.660808      274.91592      9516.3306      0.90534881     0.68627623   
      1300  -4117.8554     -4148.8016      30.946237      1423.425       277.41658      9597.5503      0.89768725     0.68627623   
      1400  -4118.4513     -4149.2921      30.840756     -396.26099      276.471        9647.7614      0.8930153      0.68627623   
      1500  -4118.503      -4149.7032      31.200203     -2510.2664      279.69325      9663.0131      0.89160581     0.68627623   
      1600  -4118.905      -4149.9735      31.068502     -1357.6577      278.51262      9640.9412      0.89364704     0.68627623   
      1700  -4117.9841     -4148.7898      30.805708      1154.1291      276.15681      9587.6631      0.89861299     0.68627623   
      1800  -4116.9014     -4147.9882      31.086775      1936.4691      278.67642      9512.7605      0.90568858     0.68627623   
      1900  -4116.5615     -4149.2251      32.663562      3461.184       292.81148      9437.0224      0.91295731     0.68627623   
      2000  -4117.5423     -4149.3427      31.800404      1161.8955      285.07373      9379.7799      0.91852886     0.76321353   
      2100  -4117.647      -4149.0921      31.445136      2681.4699      281.88895      9346.9144      0.92175859     0.76321353   
      2200  -4116.9799     -4148.9462      31.96629       2646.8114      286.56081      9342.9182      0.92215284     0.76321353   
      2300  -4116.0918     -4147.5138      31.421992     -370.88637      281.68147      9361.8562      0.92028743     0.76321353   
      2400  -4115.977      -4147.8852      31.908286      1284.6996      286.04083      9399.6675      0.91658546     0.76321353   
      2500  -4115.6645     -4148.8307      33.166137      975.75452      297.31681      9449.6396      0.91173832     0.76321353   
      2600  -4116.6011     -4148.4114      31.810285      2411.9609      285.16231      9504.8112      0.90644605     0.76321353   
      2700  -4116.9476     -4149.7028      32.755221      358.37288      293.63316      9558.8814      0.9013187      0.76321353   
      2800  -4118.298      -4149.7576      31.459649      438.41081      282.01905      9600.9808      0.89736651     0.76321353   
      2900  -4119.1285     -4148.267       29.138543     -2577.1408      261.21156      9619.4806      0.89564072     0.76321353   
      3000  -4118.3057     -4149.3753      31.069599     -44.482586      278.52245      9609.031       0.89661472     0.75073957   
      3100  -4116.7469     -4148.0744      31.327541      1680.19        280.83477      9569.7574      0.90029436     0.75073957   
      3200  -4115.5489     -4148.4749      32.925967     -1088.3521      295.1638       9512.7953      0.90568527     0.75073957   
      3300  -4117.5913     -4149.5703      31.978974     -65.589657      286.67452      9456.4617      0.91108057     0.75073957   
      3400  -4116.975      -4149.546       32.57098       1697.0641      291.98154      9408.9894      0.91567736     0.75073957   
      3500  -4118.814      -4150.1985      31.38455       3253.3214      281.34582      9378.0318      0.91870008     0.75073957   
      3600  -4119.5391     -4150.5518      31.012726      1641.2588      278.01262      9361.5159      0.92032089     0.75073957   
      3700  -4118.732      -4149.4294      30.697374      2516.6345      275.18566      9357.5661      0.92070935     0.75073957   
      3800  -4117.6203     -4150.0704      32.450139      1476.6085      290.89826      9371.4979      0.91934061     0.75073957   
      3900  -4115.7231     -4148.5329      32.80983       933.99559      294.1227       9405.2652      0.91603994     0.75073957   
      4000  -4115.4409     -4149.3008      33.859878     -962.29631      303.53583      9455.9635      0.91112858     0.74204406   
      4100  -4115.4387     -4149.0866      33.647872      3061.5898      301.6353       9514.8302      0.90549158     0.74204406   
      4200  -4114.4387     -4146.448       32.009214     -837.14073      286.9456       9566.7889      0.90057371     0.74204406   
      4300  -4113.8296     -4146.2506      32.421076     -1664.6797      290.63772      9600.1758      0.89744175     0.74204406   
      4400  -4114.2088     -4147.3652      33.156385      1237.269       297.22939      9609.7457      0.89654803     0.74204406   
      4500  -4113.4179     -4146.8658      33.447874      445.12521      299.84243      9595.4678      0.89788208     0.74204406   
      4600  -4112.4334     -4146.1186      33.685245     -2414.4762      301.97034      9565.267       0.900717       0.74204406   
      4700  -4111.0303     -4145.353       34.32271       2432.6312      307.68487      9523.4431      0.90467266     0.74204406   
      4800  -4110.3866     -4144.6061      34.21954       2637.6879      306.76         9480.7788      0.90874376     0.74204406   
      4900  -4110.234      -4145.258       35.023982      3827.7155      313.9714       9442.5974      0.91241829     0.74204406   
      5000  -4111.0108     -4145.7722      34.761398     -426.33058      311.61748      9413.6047      0.91522842     0.79626327   
      5100  -4112.6073     -4146.1767      33.569406      57.134394      300.93189      9398.5391      0.91669551     0.79626327   
      5200  -4111.5308     -4146.7037      35.172946      6104.2258      315.30678      9400.5805      0.91649645     0.79626327   
      5300  -4113.5271     -4146.6548      33.127737     -427.19783      296.97257      9419.5985      0.91464605     0.79626327   
      5400  -4113.8863     -4146.6762      32.789904     -2.7021917      293.94407      9452.5314      0.9114594      0.79626327   
      5500  -4115.3623     -4147.7633      32.400965      575.5515       290.45745      9493.6136      0.90751519     0.79626327   
      5600  -4115.0185     -4147.8561      32.83761      -2137.912       294.37174      9533.8839      0.90368193     0.79626327   
      5700  -4114.9065     -4147.637       32.73045       186.3268       293.4111       9567.3141      0.90052428     0.79626327   
      5800  -4116.3084     -4148.7548      32.446462      1321.2154      290.8653       9588.744       0.89851169     0.79626327   
      5900  -4114.725      -4147.2582      32.533196     -944.10925      291.64282      9593.5747      0.89805926     0.79626327   
      6000  -4114.3911     -4147.4152      33.024049      1059.2283      296.04306      9576.1514      0.89969323     0.72974862   
      6100  -4114.6735     -4145.7012      31.027742      1371.9782      278.14723      9534.5719      0.90361672     0.72974862   
      6200  -4114.6091     -4146.9321      32.322923      1198.0904      289.75784      9477.7789      0.90903139     0.72974862   
      6300  -4116.4644     -4148.0255      31.561132      1280.7982      282.92879      9416.8856      0.91490955     0.72974862   
      6400  -4116.8036     -4148.9808      32.177222      3961.4474      288.45171      9365.0778      0.91997085     0.72974862   
      6500  -4118.0647     -4150.1554      32.090761      1926.299       287.67663      9332.7177      0.92316074     0.72974862   
      6600  -4116.417      -4149.0441      32.62706       3785.7643      292.48427      9328.4234      0.92358571     0.72974862   
      6700  -4117.2209     -4148.0932      30.872355      1314.7379      276.75427      9350.9714      0.92135868     0.72974862   
      6800  -4117.3159     -4150.0227      32.706715      356.0638       293.19833      9396.0652      0.91693687     0.72974862   
      6900  -4116.9156     -4149.3755      32.459874      2525.0668      290.98554      9459.6537      0.91077315     0.72974862   
      7000  -4116.6287     -4149.245       32.616259      244.42851      292.38744      9533.6932      0.90370001     0.74468161   
      7100  -4115.3493     -4147.4656      32.11631      -738.58587      287.90566      9604.1904      0.89706661     0.74468161   
      7200  -4114.9927     -4146.5644      31.571738     -2347.8938      283.02387      9657.3628      0.89212746     0.74468161   
      7300  -4115.7472     -4147.4151      31.667943     -1527.2184      283.88629      9681.5087      0.88990248     0.74468161   
      7400  -4115.1499     -4148.0454      32.895579     -1500.0389      294.89139      9669.9791      0.89096351     0.74468161   
      7500  -4114.0603     -4146.1197      32.059392      551.91028      287.39543      9624.1625      0.89520502     0.74468161   
      7600  -4114.1942     -4147.5754      33.381274      824.14751      299.24539      9551.2471      0.90203913     0.74468161   
      7700  -4115.6003     -4148.4596      32.859245      1535.5442      294.56568      9463.5741      0.91039585     0.74468161   
      7800  -4117.2953     -4148.4109      31.115643      3150.1968      278.93521      9379.724       0.91853434     0.74468161   
      7900  -4116.8468     -4148.1476      31.300783      3377.5594      280.5949       9311.9414      0.92522044     0.74468161   
      8000  -4116.0594     -4149.2658      33.206428      1914.0549      297.67799      9274.5017      0.92895541     0.77576757   
      8100  -4115.1448     -4148.5902      33.445342      2036.9206      299.81973      9278.3153      0.92857359     0.77576757   
      8200  -4114.6874     -4147.2356      32.54825       2418.2826      291.77778      9325.3699      0.92388813     0.77576757   
      8300  -4115.2541     -4146.7721      31.51806       29.381428      282.54267      9404.2225      0.91614151     0.77576757   
      8400  -4115.7443     -4147.3513      31.607003      1231.2082      283.33999      9497.59        0.90713524     0.77576757   
      8500  -4116.676      -4148.5294      31.853372     -1135.9844      285.54857      9579.7457      0.89935567     0.77576757   
      8600  -4115.9399     -4147.8522      31.912306     -1000.0406      286.07687      9631.5384      0.89451947     0.77576757   
      8700  -4114.7901     -4147.7632      32.973119     -804.6585       295.5865       9653.7968      0.892457       0.77576757   
      8800  -4114.7162     -4147.9744      33.258142     -2774.6144      298.14158      9646.2337      0.89315674     0.77576757   
      8900  -4115.0691     -4146.4249      31.355802     -1122.933       281.08812      9609.614       0.89656032     0.77576757   
      9000  -4115.3706     -4146.2755      30.904905      346.0438       277.04606      9553.1792      0.90185669     0.82121893   
      9100  -4116.1163     -4149.4749      33.358643      368.05453      299.04252      9485.5558      0.90828611     0.82121893   
      9200  -4115.2568     -4148.6175      33.360723      2380.6789      299.06117      9418.589       0.91474408     0.82121893   
      9300  -4115.2702     -4147.9969      32.726637      2793.9793      293.37692      9366.2957      0.91985122     0.82121893   
      9400  -4115.6915     -4148.8608      33.169332      3807.921       297.34545      9338.1172      0.92262695     0.82121893   
      9500  -4115.2702     -4148.275       33.004799      338.32768      295.87049      9337.1424      0.92272327     0.82121893   
      9600  -4113.8829     -4146.8729      32.989994      2888.2029      295.73778      9359.3598      0.9205329      0.82121893   
      9700  -4114.0685     -4146.5015      32.432926      147.84817      290.74395      9404.5002      0.91611446     0.82121893   
      9800  -4116.0685     -4148.7276      32.659095      401.49439      292.77144      9462.4253      0.91050638     0.82121893   
      9900  -4115.0998     -4147.7961      32.696298      1586.7579      293.10495      9519.4328      0.90505378     0.82121893   
     10000  -4114.9889     -4147.1368      32.147828     -1452.3988      288.18821      9570.1361      0.90025873     0.71706952   
     10100  -4116.6449     -4148.2879      31.642999      1310.5298      283.66268      9602.4142      0.89723255     0.71706952   
     10200  -4116.416      -4148.3699      31.953863     -78.747326      286.44941      9612.0528      0.89633284     0.71706952   
     10300  -4116.3769     -4149.3074      32.930475     -1054.653       295.20422      9599.4493      0.89750967     0.71706952   
     10400  -4116.8196     -4148.4443      31.624695      1295.1756      283.4986       9565.8023      0.9006666      0.71706952   
     10500  -4116.3931     -4149.2035      32.810353      2356.564       294.12739      9521.519       0.90485547     0.71706952   
     10600  -4115.4945     -4147.4474      31.952934      948.73668      286.44109      9472.783       0.90951082     0.71706952   
     10700  -4115.5236     -4148.7897      33.266134      2151.3811      298.21322      9429.2886      0.9137061      0.71706952   
     10800  -4115.1111     -4147.9605      32.849459      1626.3363      294.47795      9399.6231      0.9165898      0.71706952   
     10900  -4115.5798     -4147.7309      32.151014      2570.0322      288.21677      9387.9318      0.91773127     0.71706952   
     11000  -4115.2182     -4147.5592      32.340928     -410.20711      289.91924      9389.9204      0.91753692     0.72039194   
     11100  -4114.5581     -4146.4694      31.91135       1831.8121      286.0683       9405.2985      0.9160367      0.72039194   
     11200  -4113.3615     -4146.9713      33.609825      4219.5661      301.29423      9432.6344      0.91338201     0.72039194   
     11300  -4113.1185     -4146.2367      33.118189     -598.06531      296.88698      9469.737       0.90980336     0.72039194   
     11400  -4114.5227     -4146.3328      31.810031      210.37204      285.16004      9508.8179      0.9060641      0.72039194   
     11500  -4113.9023     -4148.4538      34.551548     -554.41414      309.73627      9545.1944      0.90261112     0.72039194   
     11600  -4116.1246     -4147.4343      31.309689     -228.83976      280.67474      9572.1401      0.90007025     0.72039194   
     11700  -4118.0006     -4149.1489      31.148262      1132.1564      279.22762      9584.6579      0.89889475     0.72039194   
     11800  -4117.7621     -4149.3488      31.586644      443.12922      283.15749      9575.3195      0.89977139     0.72039194   
     11900  -4117.5235     -4149.6761      32.152571      573.43882      288.23073      9544.1403      0.9027108      0.72039194   
     12000  -4116.9873     -4148.9685      31.981232      1944.9132      286.69476      9501.2162      0.90678903     0.76455125   
     12100  -4116.4927     -4149.2692      32.776447      1016.065       293.82344      9454.6019      0.91125979     0.76455125   
     12200  -4115.879      -4147.6622      31.783199      2815.9886      284.9195       9411.9161      0.91539263     0.76455125   
     12300  -4116.2798     -4147.7824      31.502584      1509.1675      282.40394      9381.1884      0.91839096     0.76455125   
     12400  -4116.6108     -4148.8386      32.227797      2946.2627      288.90508      9374.8861      0.91900835     0.76455125   
     12500  -4115.5647     -4147.3499      31.785205      4129.8256      284.93748      9392.475       0.91728736     0.76455125   
     12600  -4114.7718     -4146.5399      31.768134      2361.7292      284.78445      9433.2432      0.91332306     0.76455125   
     12700  -4113.293      -4146.6391      33.346049      627.03212      298.92962      9486.4995      0.90819576     0.76455125   
     12800  -4113.1199     -4146.4958      33.375852     -0.92184389     299.19679      9544.1875      0.90270635     0.76455125   
     12900  -4112.9762     -4145.5087      32.532536     -2262.8307      291.63691      9593.947       0.89802441     0.76455125   
     13000  -4113.293      -4145.5876      32.294696      157.24571      289.5048       9624.9388      0.89513282     0.72912488   
     13100  -4112.8305     -4147.7054      34.874917      784.66858      312.63511      9633.4013      0.89434649     0.72912488   
     13200  -4112.618      -4146.9256      34.307623     -357.17193      307.54962      9619.2422      0.89566292     0.72912488   
     13300  -4112.3869     -4146.7093      34.322347      557.78021      307.68161      9582.3145      0.89911457     0.72912488   
     13400  -4112.5957     -4145.2273      32.631655      4452.1482      292.52546      9527.9169      0.90424788     0.72912488   
     13500  -4113.2636     -4145.8714      32.60775       3745.3214      292.31116      9460.2366      0.91071704     0.72912488   
     13600  -4112.8993     -4147.5494      34.650075     -69.378748      310.61952      9391.089       0.91742274     0.72912488   
     13700  -4113.981      -4147.8529      33.871968      4225.9851      303.6442       9339.1153      0.92252834     0.72912488   
     13800  -4114.0344     -4147.0509      33.016492      3794.2879      295.97531      9320.2351      0.92439713     0.72912488   
     13900  -4114.6014     -4147.6201      33.018769      1859.521       295.99573      9337.6517      0.92267295     0.72912488   
     14000  -4114.3961     -4147.7771      33.381027      1673.92        299.24318      9388.6338      0.91766265     0.77140283   
     14100  -4114.4941     -4147.4663      32.972161      144.93341      295.57791      9462.8404      0.91046644     0.77140283   
     14200  -4113.502      -4146.1032      32.601142      674.83287      292.25192      9545.349       0.9025965      0.77140283   
     14300  -4114.9064     -4148.1276      33.221283     -339.02032      297.81116      9620.8365      0.8955145      0.77140283   
     14400  -4114.9675     -4148.4687      33.501152     -1785.3724      300.32004      9674.9552      0.89050527     0.77140283   
     14500  -4114.6545     -4148.1909      33.536338      1588.3249      300.63546      9692.5829      0.88888572     0.77140283   
     14600  -4113.7954     -4146.5158      32.720418     -441.47927      293.32117      9674.0364      0.89058984     0.77140283   
     14700  -4113.7265     -4145.7874      32.06097       2063.7907      287.40956      9622.9866      0.89531442     0.77140283   
     14800  -4113.6971     -4147.1518      33.454744     -1427.8685      299.90401      9549.1541      0.90223684     0.77140283   
     14900  -4113.8884     -4146.6853      32.796904     -403.89851      294.00683      9462.0313      0.91054429     0.77140283   
     15000  -4114.8289     -4147.7776      32.948612      2337.5137      295.36681      9378.7453      0.91863019     0.75580389   
     15100  -4114.9598     -4148.2998      33.339965      3424.999       298.87508      9318.3309      0.92458603     0.75580389   
     15200  -4115.1563     -4149.0064      33.850026      5201.8465      303.44751      9293.7167      0.92703478     0.75580389   
     15300  -4115.6117     -4148.5125      32.900809      761.79298      294.93828      9308.8934      0.92552339     0.75580389   
     15400  -4116.4723     -4148.0211      31.548742      2862.6321      282.81772      9357.2675      0.92073873     0.75580389   
     15500  -4116.3094     -4147.8971      31.587711      783.66548      283.16706      9422.9623      0.91431955     0.75580389   
     15600  -4114.9382     -4147.261       32.322862      258.45636      289.75729      9491.8928      0.90767972     0.75580389   
     15700  -4115.1091     -4148.0216      32.912533     -777.93224      295.04338      9557.9515      0.90140639     0.75580389   
     15800  -4113.8555     -4147.3954      33.53992       856.53184      300.66757      9607.9945      0.89671144     0.75580389   
     15900  -4115.1847     -4147.4853      32.300563     -13.813449      289.55739      9635.0067      0.89419746     0.75580389   
     16000  -4115.5318     -4146.8527      31.320886      1992.852       280.77511      9631.4053      0.89453183     0.79778791   
     16100  -4115.5747     -4148.0957      32.521069     -324.84826      291.53411      9596.1264      0.89782046     0.79778791   
     16200  -4115.3579     -4146.8567      31.498751      154.26309      282.36957      9537.225       0.90336535     0.79778791   
     16300  -4116.3808     -4148.4066      32.025743      1328.9834      287.09377      9471.546       0.9096296      0.79778791   
     16400  -4114.5341     -4148.2096      33.675519      323.21877      301.88315      9414.3496      0.91515601     0.79778791   
     16500  -4114.2368     -4149.0943      34.857493      2287.6199      312.47892      9382.0769      0.91830398     0.79778791   
     16600  -4114.4552     -4147.9446      33.489421      3059.3832      300.21487      9375.0328      0.91899397     0.79778791   
     16700  -4113.9169     -4146.5556      32.63863       3365.7454      292.58798      9388.2878      0.91769647     0.79778791   
     16800  -4114.0108     -4146.4454      32.434621      2028.1553      290.75915      9413.3792      0.91525035     0.79778791   
     16900  -4114.8981     -4147.9724      33.074235      1934.2211      296.49296      9449.0581      0.91179443     0.79778791   
     17000  -4115.9585     -4148.9142      32.955713      1255.4824      295.43046      9490.998       0.90776529     0.703746     
     17100  -4116.5729     -4148.6576      32.084631     -2080.2728      287.62168      9528.789       0.90416511     0.703746     
     17200  -4116.4678     -4148.8577      32.389963      1059.6636      290.35882      9550.925       0.90206955     0.703746     
     17300  -4116.7324     -4147.8898      31.157406     -681.35068      279.3096       9555.3319      0.90165351     0.703746     
     17400  -4116.9688     -4147.6009      30.632084      696.52835      274.60036      9543.4944      0.9027719      0.703746     
     17500  -4115.9901     -4146.8893      30.899209      702.92273      276.99499      9515.9485      0.90538517     0.703746     
     17600  -4115.3647     -4149.2457      33.880973      2038.0057      303.72493      9479.7927      0.90883829     0.703746     
     17700  -4114.8444     -4148.6936      33.849193      3319.8218      303.44004      9447.8974      0.91190645     0.703746     
     17800  -4115.545      -4147.9249      32.379943      1164.0695      290.269        9431.7398      0.91346865     0.703746     
     17900  -4114.1963     -4147.9606      33.764296      3786.7335      302.67898      9433.1226      0.91333474     0.703746     
     18000  -4114.8402     -4148.219       33.378783      1844.501       299.22306      9449.9546      0.91170793     0.78602634   
     18100  -4114.4119     -4146.79        32.378031     -690.39768      290.25185      9475.4486      0.90925496     0.78602634   
     18200  -4115.1052     -4147.7908      32.685569     -44.606609      293.00877      9496.9603      0.90719539     0.78602634   
     18300  -4114.0467     -4146.3192      32.272551      4096.3075      289.30628      9513.723       0.90559696     0.78602634   
     18400  -4114.2816     -4146.2655      31.983852     -1811.7151      286.71824      9525.6198      0.90446593     0.78602634   
     18500  -4113.3439     -4147.1421      33.798219      2338.101       302.98308      9530.8107      0.90397332     0.78602634   
     18600  -4113.1273     -4147.1043      33.976932      829.27093      304.58515      9533.3393      0.90373356     0.78602634   
     18700  -4113.3997     -4147.6063      34.206576     -1676.4797      306.64378      9535.5117      0.90352766     0.78602634   
     18800  -4114.3625     -4146.2562      31.893666     -839.96251      285.90977      9532.487       0.90381435     0.78602634   
     18900  -4114.9254     -4147.5595      32.634054     -443.37027      292.54696      9525.7879      0.90444997     0.78602634   
     19000  -4116.2052     -4148.4348      32.229577      561.95036      288.92104      9517.1875      0.9052673      0.7329581    
     19100  -4115.9986     -4147.9457      31.94704       2708.1017      286.38825      9504.1625      0.90650792     0.7329581    
     19200  -4114.5025     -4148.3841      33.881579      1943.4151      303.73036      9491.2015      0.90774583     0.7329581    
     19300  -4114.4866     -4147.5425      33.055818      567.41394      296.32785      9483.3945      0.90849312     0.7329581    
     19400  -4113.0771     -4145.1518      32.074656      45.869775      287.53225      9481.2053      0.90870288     0.7329581    
     19500  -4114.0302     -4146.9221      32.891891     -715.75791      294.85834      9483.8128      0.90845304     0.7329581    
     19600  -4115.1556     -4146.8235      31.66787       418.67533      283.88564      9486.6728      0.90817917     0.7329581    
     19700  -4115.9987     -4147.7278      31.729134      2551.4126      284.43483      9488.4069      0.90801319     0.7329581    
     19800  -4115.3664     -4147.7521      32.385715      2717.5844      290.32074      9493.2744      0.90754762     0.7329581    
     19900  -4114.7753     -4146.9223      32.147057      532.61159      288.18129      9500.1693      0.90688895     0.7329581    
     20000  -4114.8883     -4147.9843      33.095982      1174.1483      296.6879       9510.0445      0.90594724     0.71237477   
     20100  -4115.0976     -4148.2885      33.190829      1944.7165      297.53816      9519.4577      0.9050514      0.71237477   
     20200  -4115.0691     -4146.6712      31.602135      1930.1215      283.29635      9524.6428      0.90455871     0.71237477   
     20300  -4115.0959     -4148.4122      33.316276      4075.8077      298.66272      9525.4537      0.9044817      0.71237477   
     20400  -4116.0368     -4148.2175      32.180745      2104.4728      288.48329      9520.5639      0.90494625     0.71237477   
     20500  -4115.2118     -4148.4852      33.273391     -1205.2478      298.27828      9512.6627      0.9056979      0.71237477   
     20600  -4114.5916     -4146.4921      31.900493     -1137.434       285.97098      9501.9757      0.90671654     0.71237477   
     20700  -4114.9694     -4148.2981      33.328682     -1132.0138      298.77394      9488.8946      0.90796652     0.71237477   
     20800  -4115.093      -4146.8332      31.740202      354.88004      284.53406      9473.7626      0.90941677     0.71237477   
     20900  -4114.4634     -4147.7187      33.255267      4070.2969      298.11581      9458.0196      0.91093051     0.71237477   
     21000  -4113.832      -4146.5939      32.761875     -528.50103      293.69281      9445.803       0.91210864     0.74664165   
     21100  -4113.5549     -4148.2339      34.679032     -1568.3633      310.8791       9446.8558      0.91200699     0.74664165   
     21200  -4114.0132     -4147.129       33.115825      2245.8774      296.86579      9464.7564      0.91028213     0.74664165   
     21300  -4113.0824     -4145.5991      32.516737      744.29501      291.49528      9493.4745      0.90752849     0.74664165   
     21400  -4113.0024     -4146.6938      33.691418      2676.5752      302.02567      9526.6436      0.90436873     0.74664165   
     21500  -4114.5363     -4147.9085      33.372183      5.5126985      299.1639       9557.0951      0.90148716     0.74664165   
     21600  -4115.1937     -4147.6897      32.495939     -1011.8103      291.30883      9573.5579      0.89993696     0.74664165   
     21700  -4114.6352     -4147.8459      33.210697     -1409.97        297.71626      9571.3847      0.90014129     0.74664165   
     21800  -4116.5466     -4147.443       30.896384      2119.4696      276.96967      9554.4723      0.90173464     0.74664165   
     21900  -4116.8682     -4148.0186      31.150336     -1903.0452      279.24622      9521.3381      0.90487266     0.74664165   
     22000  -4116.8407     -4147.8652      31.024534      3609.1045      278.11847      9475.7322      0.90922774     0.67928166   
     22100  -4116.0597     -4147.9869      31.92718      -707.1467       286.21022      9426.6718      0.91395974     0.67928166   
     22200  -4116.8438     -4149.1169      32.273129      2102.9637      289.31146      9386.4489      0.91787626     0.67928166   
     22300  -4117.1509     -4148.3544      31.20343       2621.6435      279.72217      9363.2247      0.92015292     0.67928166   
     22400  -4116.7499     -4148.7814      32.031479     -656.91478      287.14519      9360.488       0.92042195     0.67928166   
     22500  -4116.401      -4148.4847      32.083642      2787.2137      287.61281      9381.5189      0.9183586      0.67928166   
     22600  -4115.2314     -4147.4783      32.246973      1061.8925      289.07699      9425.0468      0.91411733     0.67928166   
     22700  -4116.01       -4148.0215      32.011571      1091.0109      286.96673      9482.047       0.90862221     0.67928166   
     22800  -4117.1379     -4148.6098      31.471855      1251.7055      282.12846      9533.9595      0.90367476     0.67928166   
     22900  -4117.3894     -4147.6198      30.230477      1973.6579      271.00018      9570.6372      0.90021159     0.67928166   
     23000  -4117.1683     -4148.9442      31.775886      2400.1136      284.85394      9587.7515      0.8986047      0.6218544    
     23100  -4116.6509     -4148.0772      31.426257      1963.1801      281.7197       9587.5537      0.89862324     0.6218544    
     23200  -4115.5641     -4147.6588      32.094725     -27.215927      287.71216      9573.2677      0.89996424     0.6218544    
     23300  -4115.1563     -4147.7388      32.582447      443.87525      292.08433      9544.584       0.90266884     0.6218544    
     23400  -4115.6685     -4148.3686      32.700156      913.42287      293.13953      9509.2579      0.90602218     0.6218544    
     23500  -4115.1702     -4147.628       32.457822      2234.9608      290.96713      9476.9863      0.90910742     0.6218544    
     23600  -4115.192      -4147.2608      32.068847      1685.947       287.48018      9453.9505      0.91132259     0.6218544    
     23700  -4116.0628     -4147.616       31.553258      831.66472      282.8582       9438.0798      0.91285503     0.6218544    
     23800  -4117.4663     -4148.5171      31.05085       36.409717      278.35438      9428.4548      0.91378691     0.6218544    
     23900  -4115.7804     -4148.3274      32.547013      3332.9311      291.76669      9429.7033      0.91366592     0.6218544    
     24000  -4114.7696     -4147.8141      33.044439      1825.8503      296.22585      9447.0156      0.91199157     0.698478     
     24100  -4114.3948     -4146.6125      32.217779      574.64715      288.81528      9476.7819      0.90912703     0.698478     
     24200  -4114.2347     -4147.8415      33.606765     -263.11921      301.2668       9511.3088      0.90582682     0.698478     
     24300  -4113.949      -4146.8838      32.934851      16.323382      295.24345      9538.3669      0.9032572      0.698478     
     24400  -4114.0631     -4147.3562      33.293158      904.63679      298.45548      9555.9123      0.90159875     0.698478     
     24500  -4113.8702     -4145.5942      31.723989      2658.8922      284.38872      9561.4176      0.90107962     0.698478     
     24600  -4114.4558     -4147.9033      33.44743      -142.35133      299.83844      9557.0526      0.90149118     0.698478     
     24700  -4115.5156     -4147.8593      32.343664     -635.7611       289.94377      9545.1981      0.90261077     0.698478     
     24800  -4114.0625     -4145.7985      31.735989      497.64177      284.49628      9527.4466      0.90429251     0.698478     
     24900  -4113.9091     -4147.5586      33.649492      1761.9821      301.64983      9509.0515      0.90604184     0.698478     
     25000  -4113.9563     -4147.3992      33.44287       1470.9708      299.79757      9492.3573      0.9076353      0.70169275   
     25100  -4113.64       -4146.5097      32.869627      1399.937       294.65875      9486.4725      0.90819834     0.70169275   
     25200  -4113.6858     -4147.5696      33.883822      1545.1537      303.75047      9488.4219      0.90801175     0.70169275   
     25300  -4113.8892     -4147.2275      33.338356      2548.6392      298.86066      9494.3334      0.90744639     0.70169275   
     25400  -4113.3241     -4147.6218      34.297757     -230.34626      307.46117      9508.0077      0.90614131     0.70169275   
     25500  -4113.3816     -4146.232       32.850432      714.2082       294.48668      9522.6124      0.90475158     0.70169275   
     25600  -4113.3931     -4146.0703      32.677199      1084.9652      292.93373      9537.4195      0.90334693     0.70169275   
     25700  -4113.6148     -4147.5778      33.962992      841.24725      304.46018      9548.9833      0.90225297     0.70169275   
     25800  -4113.2195     -4145.789       32.569515     -2476.3021      291.96841      9557.3037      0.9014675      0.70169275   
     25900  -4114.1528     -4146.3445      32.191713      1894.1493      288.58161      9560.9524      0.90112346     0.70169275   
     26000  -4112.6408     -4145.7422      33.101488      926.99844      296.73726      9554.3483      0.90174634     0.74480875   
     26100  -4113.1215     -4146.4458      33.324265      1960.31        298.73433      9539.8737      0.90311454     0.74480875   
     26200  -4113.5803     -4148.264       34.683671     -1168.5953      310.92069      9525.7937      0.90444942     0.74480875   
     26300  -4113.2606     -4146.3596      33.099016      1120.7849      296.7151       9510.8255      0.90587285     0.74480875   
     26400  -4114.1637     -4146.7869      32.623223      1731.1902      292.44987      9497.7777      0.90711731     0.74480875   
     26500  -4114.4401     -4147.4835      33.043416     -794.15507      296.21668      9488.3686      0.90801685     0.74480875   
     26600  -4114.6948     -4146.8574      32.162597      1039.7134      288.3206       9482.9037      0.90854014     0.74480875   
     26700  -4114.8682     -4147.8546      32.986384      2162.8605      295.70541      9483.7849      0.90845571     0.74480875   
     26800  -4115.4787     -4149.0018      33.523046      2724.961       300.51631      9494.6336      0.9074177      0.74480875   
     26900  -4116.3892     -4148.2602      31.871007      1907.6468      285.70665      9511.7503      0.90578477     0.74480875   
     27000  -4117.3431     -4148.5659      31.2228       -2329.7653      279.89582      9531.6836      0.90389054     0.69988991   
     27100  -4117.3845     -4147.7857      30.401158      1132.3793      272.53024      9542.5115      0.90286489     0.69988991   
     27200  -4116.4781     -4148.3261      31.848052      684.26512      285.50087      9542.2113      0.90289329     0.69988991   
     27300  -4115.6308     -4147.2579      31.627116      504.88464      283.5203       9530.3823      0.90401395     0.69988991   
     27400  -4118          -4148.4349      30.43482       2226.5198      272.832        9505.9167      0.90634064     0.69988991   
     27500  -4117.4414     -4149.3129      31.871502      253.79111      285.71109      9475.9892      0.90920308     0.69988991   
     27600  -4116.2716     -4148.0634      31.791819      1686.1869      284.99677      9447.5193      0.91194295     0.69988991   
     27700  -4115.6146     -4148.758       33.143483      2871.8489      297.11372      9431.681       0.91347434     0.69988991   
     27800  -4115.343      -4148.8011      33.458105     -249.14225      299.93414      9433.2298      0.91332436     0.69988991   
     27900  -4114.8378     -4147.2443      32.406534      3717.6573      290.50736      9446.6475      0.9120271      0.69988991   
     28000  -4114.4697     -4146.7428      32.273115      4963.4318      289.31134      9472.3012      0.90955707     0.68313322   
     28100  -4115.3597     -4147.8517      32.491967      1112.9823      291.27323      9508.2323      0.90611991     0.68313322   
     28200  -4117.3374     -4149.6439      32.30651      -2906.9262      289.6107       9543.103       0.90280893     0.68313322   
     28300  -4117.3625     -4149.1495      31.787033     -753.22712      284.95387      9564.0724      0.9008295      0.68313322   
     28400  -4117.9897     -4148.4902      30.500572      502.95015      273.42143      9569.5983      0.90030933     0.68313322   
     28500  -4117.8289     -4149.7507      31.921785      70.044928      286.16185      9566.2129      0.90062794     0.68313322   
     28600  -4117.514      -4148.2094      30.695373      214.76092      275.16771      9546.1478      0.90252097     0.68313322   
     28700  -4116.6385     -4148.7274      32.088883      889.54097      287.65979      9514.4623      0.90552659     0.68313322   
     28800  -4115.9767     -4147.2427      31.266005      148.96341      280.28313      9473.4799      0.9094439      0.68313322   
     28900  -4116.4781     -4148.542       32.063872      2437.9361      287.43559      9433.2744      0.91332004     0.68313322   
     29000  -4116.5978     -4147.6858      31.087943      2128.5121      278.6869       9406.8542      0.9158852      0.72429319   
     29100  -4116.3839     -4147.9417      31.557849      1632.3096      282.89935      9404.7674      0.91608843     0.72429319   
     29200  -4114.0263     -4146.5343      32.50803       4733.1809      291.41723      9426.5579      0.91397079     0.72429319   
     29300  -4114.7526     -4148.6136      33.860952     -586.07848      303.54545      9463.9336      0.91036127     0.72429319   
     29400  -4114.7427     -4147.8155      33.07289       1156.2855      296.48089      9505.1586      0.90641293     0.72429319   
     29500  -4113.6715     -4147.1097      33.438235     -595.59102      299.75602      9544.2852      0.9026971      0.72429319   
     29600  -4113.6213     -4146.9644      33.343148      1110.0839      298.90362      9572.2396      0.9000609      0.72429319   
     29700  -4113.2781     -4146.5152      33.237105      1444.6469      297.95299      9590.4146      0.89835517     0.72429319   
     29800  -4113.4102     -4146.1414      32.731164      1308.156       293.4175       9595.4429      0.89788441     0.72429319   
     29900  -4113.8843     -4147.1554      33.271146     -3227.2836      298.25816      9586.8375      0.89869038     0.72429319   
     30000  -4115.423      -4145.4614      30.038311     -416.55741      269.2775       9560.107       0.90120315     0.76998325   
     30100  -4114.7975     -4147.0706      32.27308      -790.18775      289.31102      9521.1195      0.90489344     0.76998325   
     30200  -4115.3104     -4147.2166      31.906207     -703.73174      286.0222       9475.4835      0.9092516      0.76998325   
     30300  -4115.6814     -4147.8605      32.179125      2211.1682      288.46877      9439.7443      0.91269406     0.76998325   
     30400  -4116.064      -4148.8509      32.786923      2308.8099      293.91735      9424.1094      0.91420825     0.76998325   
     30500  -4114.7838     -4147.0769      32.293102     -934.21414      289.49051      9423.1758      0.91429883     0.76998325   
     30600  -4114.5254     -4148.0337      33.508315      929.96248      300.38425      9434.711       0.91318098     0.76998325   
     30700  -4115.5351     -4148.1585      32.623428      1425.0361      292.4517       9454.9652      0.91122478     0.76998325   
     30800  -4114.1709     -4147.7864      33.615471     -1208.0865      301.34484      9475.6096      0.90923951     0.76998325   
     30900  -4114.6963     -4148.215       33.518665      861.09076      300.47703      9496.475       0.90724174     0.76998325   
     31000  -4114.7838     -4147.8721      33.088265     -176.39968      296.61873      9515.4479      0.9054328      0.69619349   
     31100  -4115.0488     -4146.9175      31.868627     -625.21056      285.68531      9525.2684      0.9044993      0.69619349   
     31200  -4115.2657     -4147.4613      32.195634      25.755718      288.61676      9524.0648      0.90461361     0.69619349   
     31300  -4114.8407     -4146.0703      31.229616     -1633.1937      279.95693      9509.7798      0.90597246     0.69619349   
     31400  -4114.5125     -4147.3663      32.853837      1112.9769      294.5172       9490.9309      0.90777171     0.69619349   
     31500  -4114.2054     -4147.9495      33.744148      600.25053      302.49837      9477.3871      0.90906898     0.69619349   
     31600  -4114.1578     -4147.5391      33.381323      4171.412       299.24584      9471.0909      0.9096733      0.69619349   
     31700  -4113.7252     -4146.3816      32.656419     -1525.1923      292.74745      9472.3089      0.90955634     0.69619349   
     31800  -4112.3935     -4145.4603      33.066768     -433.18592      296.42602      9475.7005      0.90923078     0.69619349   
     31900  -4113.914      -4145.9054      31.991398     -430.39449      286.7859       9483.2916      0.90850297     0.69619349   
     32000  -4113.3058     -4146.1434      32.837606     -3123.4936      294.37169      9484.7858      0.90835984     0.72117255   
     32100  -4113.4428     -4145.6578      32.214947      1462.7978      288.78989      9481.5657      0.90866834     0.72117255   
     32200  -4113.6778     -4146.6352      32.957412      483.14436      295.4457       9477.8749      0.90902219     0.72117255   
     32300  -4114.8587     -4148.7287      33.870036     -32.180971      303.62688      9475.0244      0.90929566     0.72117255   
     32400  -4114.9917     -4147.684       32.692314     -404.56553      293.06923      9469.8655      0.90979102     0.72117255   
     32500  -4115.1162     -4147.2486      32.132369      3270.9883      288.04963      9466.0974      0.91015317     0.72117255   
     32600  -4115.8261     -4148.1833      32.357194      459.37013      290.06506      9466.6244      0.91010251     0.72117255   
     32700  -4115.2056     -4147.6791      32.473497      263.84549      291.10766      9470.7743      0.90970371     0.72117255   
     32800  -4114.8902     -4146.2254      31.335208      4752.7131      280.9035       9478.6893      0.90894409     0.72117255   
     32900  -4115.2414     -4147.8737      32.63229      -830.01917      292.53115      9488.5465      0.90799983     0.72117255   
     33000  -4115.745      -4148.0956      32.350585      923.01791      290.00582      9493.4844      0.90752755     0.72264371   
     33100  -4116.2446     -4148.019       31.774367     -1077.0111      284.84033      9494.3428      0.9074455      0.72264371   
     33200  -4117.8183     -4148.1261      30.307763     -939.75764      271.693        9484.716       0.90836654     0.72264371   
     33300  -4117.2514     -4148.9973      31.745918      63.216055      284.58529      9469.6973      0.90980718     0.72264371   
     33400  -4116.9787     -4149.4696      32.490887      3318.0532      291.26355      9453.7781      0.9113392      0.72264371   
     33500  -4116.2859     -4147.4729      31.187029     -573.08328      279.57515      9440.9928      0.91257337     0.72264371   
     33600  -4117.0285     -4149.6708      32.642321      1075.2802      292.62107      9434.9164      0.91316109     0.72264371   
     33700  -4116.211      -4148.2714      32.06046      -229.03541      287.405        9433.0129      0.91334536     0.72264371   
     33800  -4116.8438     -4148.7142      31.870408      1085.0491      285.70128      9436.0669      0.91304975     0.72264371   
     33900  -4117.3968     -4148.3156      30.918827     -381.29486      277.17086      9444.0338      0.91227951     0.72264371   
     34000  -4117.4261     -4149.2405      31.814336      1742.0977      285.19862      9459.1155      0.91082497     0.78327648   
     34100  -4118.2583     -4149.2807      31.022371      11.660746      278.09908      9479.2005      0.90889507     0.78327648   
     34200  -4116.856      -4148.3211      31.465156      1149.9037      282.06841      9496.9673      0.90719472     0.78327648   
     34300  -4117.0024     -4148.3528      31.350397      52.737442      281.03966      9510.7383      0.90588115     0.78327648   
     34400  -4115.9958     -4148.3164      32.320589     -192.99753      289.73692      9514.0673      0.90556419     0.78327648   
     34500  -4115.5668     -4149.2358      33.669009      721.79262      301.82479      9504.9468      0.90643312     0.78327648   
     34600  -4114.593      -4148.3643      33.771341      2386.4782      302.74214      9489.5729      0.90790161     0.78327648   
     34700  -4114.2674     -4146.3999      32.132479      2419.0924      288.05061      9476.8567      0.90911986     0.78327648   
     34800  -4115.4493     -4148.1585      32.70916       2022.7341      293.22025      9461.9139      0.91055559     0.78327648   
     34900  -4115.4881     -4148.0773      32.589154      1498.4563      292.14446      9440.7143      0.91260028     0.78327648   
     35000  -4115.4995     -4146.3495      30.850008      1424.6382      276.55394      9411.4724      0.91543578     0.72365973   
     35100  -4115.5318     -4149.7295      34.197682      2850.0137      306.56406      9384.6914      0.91804815     0.72365973   
     35200  -4116.3252     -4149.2441      32.918933      3582.6885      295.10075      9369.8531      0.91950199     0.72365973   
     35300  -4116.2034     -4148.3594      32.156016      816.35905      288.26161      9377.1419      0.91878727     0.72365973   
     35400  -4115.6656     -4147.5092      31.843616      847.15822      285.4611       9403.1502      0.91624598     0.72365973   
     35500  -4116.4415     -4147.9346      31.49313      -294.6632       282.31919      9440.6481      0.91260668     0.72365973   
     35600  -4114.9952     -4148.4481      33.452885     -494.96565      299.88735      9483.2703      0.90850501     0.72365973   
     35700  -4114.7456     -4148.1049      33.359254      639.01909      299.04799      9526.5908      0.90437375     0.72365973   
     35800  -4115.3051     -4147.7285      32.423377     -1842.0168      290.65835      9566.8499      0.90056797     0.72365973   
     35900  -4114.9337     -4146.4337      31.499973      959.7813       282.38053      9588.7183      0.8985141      0.72365973   
     36000  -4114.841      -4146.803       31.961947     -599.21553      286.52188      9586.1741      0.89875257     0.73715976   
     36100  -4115.0261     -4148.1186      33.09256       2618.1446      296.65723      9560.5798      0.90115859     0.73715976   
     36200  -4114.0259     -4148.16        34.134109     -1853.3117      305.99416      9517.334       0.90525337     0.73715976   
     36300  -4114.9133     -4147.9357      33.022337     -2679.8444      296.02771      9466.4522      0.91011906     0.73715976   
     36400  -4114.152      -4145.7556      31.603596      2199.929       283.30945      9416.1299      0.91498298     0.73715976   
     36500  -4113.8342     -4147.9264      34.092133      390.86218      305.61787      9379.4925      0.91855701     0.73715976   
     36600  -4114.238      -4147.326       33.087981      1333.211       296.61617      9359.2993      0.92053885     0.73715976   
     36700  -4115.4499     -4146.6817      31.231848      1963.5765      279.97693      9365.1302      0.9199657      0.73715976   
     36800  -4114.5486     -4146.9506      32.401989      1775.1673      290.46662      9390.0329      0.91752592     0.73715976   
     36900  -4115.3416     -4147.8886      32.547022      3239.6391      291.76677      9425.5172      0.91407171     0.73715976   
     37000  -4114.5215     -4148.4776      33.956078      1839.8199      304.39821      9473.2478      0.90946619     0.77469924   
     37100  -4115.1295     -4148.2123      33.082805      2992.5502      296.56978      9530.3096      0.90402085     0.77469924   
     37200  -4115.5925     -4147.6069      32.014309     -151.39392      286.99128      9582.6469      0.89908338     0.77469924   
     37300  -4115.0304     -4146.7478      31.717404     -1141.7029      284.32968      9613.6268      0.89618609     0.77469924   
     37400  -4115.4081     -4147.0477      31.639592      715.28744      283.63214      9618.7451      0.89570921     0.77469924   
     37500  -4116.3649     -4147.6966      31.331703     -409.8743       280.87208      9597.1813      0.89772177     0.77469924   
     37600  -4116.8805     -4148.6896      31.809105      283.48006      285.15173      9553.8274      0.9017955      0.77469924   
     37700  -4117.3987     -4149.2735      31.874791      2332.7588      285.74057      9504.0643      0.90651728     0.77469924   
     37800  -4117.2888     -4148.0434      30.754583     -619.55839      275.6985       9451.8857      0.91152166     0.77469924   
     37900  -4117.322      -4148.2379      30.915892      1895.6352      277.14455      9402.5603      0.91630346     0.77469924   
     38000  -4116.9656     -4148.8303      31.864708      350.03183      285.65018      9367.2754      0.91975502     0.76823934   
     38100  -4117.2387     -4147.7404      30.501714      427.35607      273.43166      9353.8154      0.92107853     0.76823934   
     38200  -4118.5051     -4149.0281      30.522983      1687.5201      273.62233      9366.4313      0.91983791     0.76823934   
     38300  -4118.3976     -4149.0974      30.69976      -141.28544      275.20704      9394.0905      0.91712961     0.76823934   
     38400  -4118.1441     -4150.2444      32.100329     -1586.1621      287.7624       9431.6955      0.91347294     0.76823934   
     38500  -4117.3237     -4148.4834      31.159724      1044.0481      279.33038      9468.4057      0.90993128     0.76823934   
     38600  -4115.2251     -4148.0869      32.861734      1088.1293      294.58799      9501.0497      0.90680492     0.76823934   
     38700  -4115.3417     -4148.0419      32.700172      1636.3125      293.13968      9531.1648      0.90393974     0.76823934   
     38800  -4114.8223     -4147.6287      32.806437     -1172.1341      294.09228      9552.975       0.90187597     0.76823934   
     38900  -4114.4378     -4145.6685      31.230758      735.46695      279.96716      9557.716       0.90142861     0.76823934   
     39000  -4116.0018     -4148.2706      32.268826      2704.2512      289.27289      9545.5457      0.9025779      0.67227586   
     39100  -4115.7792     -4148.2187      32.439511      2946.4724      290.80299      9521.9182      0.90481754     0.67227586   
     39200  -4115.7858     -4146.8433      31.057531     -1607.7065      278.41427      9489.6825      0.90789114     0.67227586   
     39300  -4116.6982     -4148.44        31.741819      2282.4315      284.54855      9457.0333      0.91102551     0.67227586   
     39400  -4116.4269     -4148.052       31.625086      1757.6012      283.5021       9429.072       0.91372709     0.67227586   
     39500  -4116.4099     -4148.868       32.458074      1805.2038      290.9694       9411.6969      0.91541395     0.67227586   
     39600  -4116.5309     -4147.5556      31.024703      2120.1643      278.11999      9409.1099      0.91566564     0.67227586   
     39700  -4116.8072     -4147.8141      31.006928      989.55752      277.96064      9419.3295      0.91467217     0.67227586   
     39800  -4117.5375     -4148.4181      30.880615      1472.0685      276.82831      9438.9677      0.91276916     0.67227586   
     39900  -4117.8387     -4150.0071      32.168402     -70.313861      288.37264      9469.4976      0.90982636     0.67227586   
     40000  -4117.0123     -4150.026       33.013729     -275.89995      295.95055      9500.5872      0.90684906     0.74285674   
     40100  -4116.6409     -4148.2869      31.646045      1425.7629      283.68999      9527.1762      0.90431817     0.74285674   
     40200  -4117.3155     -4147.9101      30.594596     -395.58277      274.26431      9544.3781      0.90268831     0.74285674   
     40300  -4116.2668     -4147.6017      31.334874      1023.3213      280.9005       9544.0038      0.90272372     0.74285674   
     40400  -4115.7428     -4148.0644      32.321652      183.34755      289.74644      9529.4118      0.90410602     0.74285674   
     40500  -4116.8228     -4149.5544      32.731583      1878.1764      293.42126      9509.5839      0.90599112     0.74285674   
     40600  -4117.5279     -4148.8387      31.310736     -602.79327      280.68412      9487.3165      0.90811754     0.74285674   
     40700  -4117.3876     -4149.2015      31.813898     -1376.8738      285.1947       9461.5389      0.91059168     0.74285674   
     40800  -4116.5696     -4147.8569      31.28738      -1338.7625      280.47475      9433.5127      0.91329697     0.74285674   
     40900  -4116.5911     -4147.1862      30.595052      2343.5808      274.26839      9404.6501      0.91609986     0.74285674   
     41000  -4114.4973     -4147.8124      33.315086      2481.5719      298.65205      9386.2502      0.91789569     0.85619358   
     41100  -4116.2986     -4149.2068      32.90814       2752.1002      295.00399      9389.7102      0.91755745     0.85619358   
     41200  -4117.2744     -4150.0838      32.809437      2833.2346      294.11918      9413.9867      0.91519129     0.85619358   
     41300  -4117.3791     -4149.173       31.793898      2449.5545      285.01541      9454.4069      0.91127859     0.85619358   
     41400  -4117.5812     -4149.645       32.063755      453.8925       287.43454      9499.1783      0.90698357     0.85619358   
     41500  -4117.5547     -4147.9264      30.371636     -1443.7069      272.26559      9538.5081      0.90324383     0.85619358   
     41600  -4117.3775     -4149.2197      31.842201      195.26518      285.44842      9566.1059      0.90063801     0.85619358   
     41700  -4116.5282     -4148.6954      32.167158      80.46254       288.36149      9575.4366      0.8997604      0.85619358   
     41800  -4116.3632     -4147.756       31.39279       1275.42        281.41969      9564.3353      0.90080474     0.85619358   
     41900  -4115.1618     -4147.7397      32.577908      2764.3201      292.04365      9536.4727      0.90343661     0.85619358   
     42000  -4116.234      -4147.2059      30.971909     -443.40522      277.64672      9498.6719      0.90703192     0.79131761   
     42100  -4114.516      -4146.9376      32.421561      4394.1163      290.64207      9458.2785      0.91090558     0.79131761   
     42200  -4115.1195     -4148.058       32.938533      1688.2659      295.27645      9423.184       0.91429804     0.79131761   
     42300  -4114.8609     -4147.8562      32.995293      3343.1608      295.78528      9401.9535      0.91636261     0.79131761   
     42400  -4115.6037     -4149.2633      33.659573      2535.8552      301.74019      9404.7764      0.91608755     0.79131761   
     42500  -4115.8466     -4147.7824      31.935769      2718.9434      286.28721      9429.6493      0.91367116     0.79131761   
     42600  -4113.5941     -4147.8445      34.250373      3186.5461      307.0364       9473.4445      0.90944731     0.79131761   
     42700  -4114.5317     -4146.7511      32.219326     -1174.4384      288.82915      9526.0704      0.90442315     0.79131761   
     42800  -4114.7484     -4146.8621      32.113746      2399.4124      287.88268      9572.0928      0.9000747      0.79131761   
     42900  -4115.6347     -4148.3098      32.675104     -39.057228      292.91495      9606.9109      0.89681258     0.79131761   
     43000  -4116.716      -4148.0714      31.355328     -817.0928       281.08386      9624.7765      0.89514792     0.78603572   
     43100  -4117.8262     -4147.3203      29.494127     -1977.2289      264.39919      9620.0122      0.89559124     0.78603572   
     43200  -4116.5667     -4148.7475      32.180802     -1451.5375      288.4838       9584.7749      0.89888377     0.78603572   
     43300  -4116.8335     -4147.9133      31.079786      3403.8551      278.61378      9525.776       0.9044511      0.78603572   
     43400  -4116.9332     -4148.174       31.240765      1603.4373      280.05687      9459.4719      0.91079065     0.78603572   
     43500  -4117.2741     -4149.6774      32.40327       3229.8015      290.47811      9397.146       0.9168314      0.78603572   
     43600  -4115.7381     -4148.325       32.58699       3581.2251      292.12506      9348.383       0.92161378     0.78603572   
     43700  -4115.1352     -4147.6622      32.527008     -1179.8229      291.58735      9330.3152      0.92339845     0.78603572   
     43800  -4116.1914     -4147.7161      31.524671      2839.0477      282.60194      9344.7283      0.92197422     0.78603572   
     43900  -4116.1595     -4147.5995      31.439924      3238.1515      281.84222      9385.1306      0.91800519     0.78603572   
     44000  -4116.0799     -4148.2007      32.120813     -341.1654       287.94603      9446.6121      0.91203053     0.78576836   
     44100  -4113.8609     -4145.9604      32.099588      917.2787       287.75576      9515.248       0.90545182     0.78576836   
     44200  -4113.9482     -4147.179       33.230819     -424.2947       297.89664      9580.2172      0.89931141     0.78576836   
     44300  -4114.2395     -4146.8456      32.606104     -1114.2156      292.29641      9627.299       0.89491337     0.78576836   
     44400  -4115.1856     -4147.5648      32.379275     -1297.7454      290.263        9652.5521      0.89257209     0.78576836   
     44500  -4116.6191     -4147.6983      31.07925      -568.21176      278.60897      9650.1698      0.89279243     0.78576836   
     44600  -4116.4165     -4148.5265      32.110043     -2404.7171      287.84948      9622.1405      0.89539314     0.78576836   
     44700  -4115.2005     -4147.624       32.423511      236.66526      290.65956      9573.3331      0.89995809     0.78576836   
     44800  -4115.4024     -4148.2651      32.862755      125.72439      294.59715      9514.6007      0.90551342     0.78576836   
     44900  -4115.8154     -4148.034       32.218575      323.65713      288.82241      9457.3485      0.91099514     0.78576836   
     45000  -4115.815      -4148.3079      32.492821      1168.1911      291.28088      9412.652       0.91532106     0.72664858   
     45100  -4115.0432     -4148.8097      33.766519      528.53135      302.69891      9386.9158      0.91783061     0.72664858   
     45200  -4115.9107     -4148.3952      32.484498      2465.1819      291.20627      9385.4822      0.9179708      0.72664858   
     45300  -4116.5742     -4147.4775      30.903357      2121.526       277.03219      9404.2037      0.91614334     0.72664858   
     45400  -4117.3342     -4149.3285      31.994292      160.54392      286.81184      9434.4574      0.91320552     0.72664858   
     45500  -4115.9909     -4147.9339      31.942934      3252.8189      286.35144      9469.8736      0.90979024     0.72664858   
     45600  -4115.4609     -4147.6486      32.187681      955.87071      288.54547      9505.5587      0.90637477     0.72664858   
     45700  -4114.2311     -4146.9246      32.693464     -1838.5574      293.07954      9534.775       0.90359747     0.72664858   
     45800  -4115.8299     -4146.4592      30.629294     -213.16369      274.57536      9552.3952      0.90193071     0.72664858   
     45900  -4115.9954     -4147.5482      31.552786     -173.20296      282.85397      9555.2407      0.90166212     0.72664858   
     46000  -4116.2822     -4148.1655      31.883331     -882.35639      285.81713      9545.1725      0.90261319     0.67273883   
     46100  -4116.4307     -4147.6987      31.26804      -1115.6174      280.30137      9530.0925      0.90404145     0.67273883   
     46200  -4117.3759     -4148.1057      30.72976      -2347.2165      275.47598      9509.1466      0.90603278     0.67273883   
     46300  -4116.4501     -4148.0619      31.61187       1727.4326      283.38363      9484.3393      0.90840262     0.67273883   
     46400  -4116.1186     -4148.0278      31.909184      4082.2305      286.04889      9463.3215      0.91042015     0.67273883   
     46500  -4116.2802     -4149.0498      32.769575     -320.09624      293.76184      9449.6838      0.91173406     0.67273883   
     46600  -4115.8029     -4148.523       32.720164      1149.3773      293.31889      9444.3695      0.91224709     0.67273883   
     46700  -4115.6803     -4148.411       32.730716      1604.6473      293.41348      9447.456       0.91194905     0.67273883   
     46800  -4116.2902     -4148.9942      32.704064      898.88047      293.17457      9456.7101      0.91105665     0.67273883   
     46900  -4115.3404     -4147.5185      32.178066      2157.6448      288.45928      9467.8262      0.90998698     0.67273883   
     47000  -4116.2428     -4148.4594      32.216612      1420.8716      288.80481      9482.2513      0.90860265     0.80641259   
     47100  -4114.5583     -4146.619       32.060703     -286.63451      287.40718      9497.3748      0.90715579     0.80641259   
     47200  -4114.9211     -4147.4055      32.484382      1207.8275      291.20523      9511.5804      0.90580095     0.80641259   
     47300  -4114.3921     -4147.0658      32.673759      1241.8336      292.90289      9522.4331      0.90476862     0.80641259   
     47400  -4114.6692     -4147.1291      32.459959     -81.444863      290.98629      9529.5367      0.90409417     0.80641259   
     47500  -4114.6389     -4147.3692      32.730338      1670.0461      293.4101       9534.0461      0.90366655     0.80641259   
     47600  -4114.6943     -4146.3061      31.611822      2597.9104      283.3832       9529.8935      0.90406032     0.80641259   
     47700  -4114.5881     -4147.6392      33.051123     -893.52804      296.28576      9515.645       0.90541404     0.80641259   
     47800  -4115.5098     -4146.9086      31.39881       2158.0004      281.47365      9492.205       0.90764986     0.80641259   
     47900  -4114.633      -4146.4528      31.819798      424.05208      285.24759      9465.3116      0.91022874     0.80641259   
     48000  -4114.2609     -4148.7003      34.439446      2391.6965      308.73135      9444.0704      0.91227598     0.68423504   
     48100  -4114.1201     -4146.4233      32.303141      1753.8783      289.5805       9429.1614      0.91371844     0.68423504   
     48200  -4114.7556     -4147.3398      32.584232      906.72758      292.10034      9424.9445      0.91412725     0.68423504   
     48300  -4115.4084     -4148.999       33.590581      3771.6292      301.12172      9430.5191      0.91358689     0.68423504   
     48400  -4116.8017     -4147.5192      30.717575     -640.32856      275.36675      9445.2996      0.91215726     0.68423504   
     48500  -4117.9834     -4149.0652      31.081764     -1359.6648      278.63151      9468.8773      0.90988597     0.68423504   
     48600  -4117.2408     -4147.784       30.543202      1267.4693      273.80358      9494.0938      0.9074693      0.68423504   
     48700  -4116.6498     -4149.2139      32.564157      1965.0747      291.92037      9517.8904      0.90520044     0.68423504   
     48800  -4116.9313     -4148.1702      31.238931     -1910.2385      280.04043      9532.9019      0.90377502     0.68423504   
     48900  -4117.1252     -4149.6195      32.494355      2041.7169      291.29464      9536.7681      0.90340862     0.68423504   
     49000  -4117.0615     -4148.5913      31.529774     -857.40545      282.64768      9526.6888      0.90436444     0.73502436   
     49100  -4116.0145     -4147.2006      31.186151      2411.0686      279.56728      9505.1174      0.90641685     0.73502436   
     49200  -4115.7204     -4148.0486      32.328237      1006.8077      289.80548      9476.8599      0.90911955     0.73502436   
     49300  -4116.2929     -4146.6983      30.4054        1398.963       272.56826      9447.4283      0.91195173     0.73502436   
     49400  -4116.068      -4147.2986      31.230628      1427.1985      279.96599      9418.0257      0.9147988      0.73502436   
     49500  -4115.1349     -4148.1704      33.035488      2580.1998      296.1456       9397.1256      0.9168334      0.73502436   
     49600  -4114.7493     -4148.512       33.762663      1121.7691      302.66435      9398.6345      0.91668621     0.73502436   
     49700  -4116.1011     -4148.5408      32.439691      1957.6535      290.8046       9420.2804      0.91457985     0.73502436   
     49800  -4116.6329     -4147.7546      31.121664      3901.5373      278.98919      9455.0553      0.9112161      0.73502436   
     49900  -4116.6384     -4148.2441      31.605747      748.27224      283.32874      9499.5303      0.90694996     0.73502436   
     50000  -4115.8627     -4148.2215      32.358789      3153.8982      290.07936      9545.8053      0.90255336     0.70788334   
     50100  -4115.8683     -4147.3255      31.457235     -791.69567      281.99741      9589.1035      0.89847801     0.70788334   
     50200  -4114.9263     -4147.1084      32.182119      537.66301      288.49561      9615.4824      0.89601314     0.70788334   
     50300  -4115.7075     -4147.5665      31.858995      447.01909      285.59897      9619.9463      0.89559737     0.70788334   
     50400  -4115.7039     -4148.4686      32.76477       1591.2373      293.71876      9600.6081      0.89740134     0.70788334   
     50500  -4117.4634     -4149.0851      31.621661      1884.543       283.4714       9559.7193      0.9012397      0.70788334   
     50600  -4117.5641     -4148.5162      30.952062     -823.66496      277.46879      9502.8726      0.90663097     0.70788334   
     50700  -4117.0331     -4148.8367      31.803667      453.54685      285.10298      9442.2474      0.91245211     0.70788334   
     50800  -4116.1779     -4147.7332      31.555259     -108.14753      282.87614      9392.39        0.91729567     0.70788334   
     50900  -4115.4816     -4148.4335      32.951939      4782.1636      295.39663      9363.1196      0.92016325     0.70788334   
     51000  -4114.4054     -4147.5191      33.113739      1019.4473      296.84708      9364.5895      0.92001882     0.71052486   
     51100  -4114.9542     -4147.7362      32.781961      2639.5365      293.87287      9391.8122      0.91735209     0.71052486   
     51200  -4113.8563     -4146.7138      32.857535      986.15467      294.55035      9442.466       0.91243099     0.71052486   
     51300  -4114.1844     -4147.1498      32.965323     -835.0295       295.51661      9506.0915      0.90632397     0.71052486   
     51400  -4112.2515     -4146.6249      34.37349      -1182.3268      308.14009      9572.8885      0.89999989     0.71052486   
     51500  -4112.4846     -4145.5861      33.10151       400.19974      296.73746      9631.3567      0.89453634     0.71052486   
     51600  -4113.0616     -4145.2261      32.164472     -1138.4464      288.33741      9671.9478      0.89078216     0.71052486   
     51700  -4113.3497     -4146.6616      33.31181      -687.80165      298.62269      9689.017       0.88921287     0.71052486   
     51800  -4114.6117     -4146.6498      32.038125     -4280.5774      287.20478      9674.5817      0.89053965     0.71052486   
     51900  -4113.4999     -4147.9353      34.435403     -268.89508      308.6951       9629.9959      0.89466275     0.71052486   
     52000  -4115.1511     -4146.6435      31.492436     -1815.934       282.31296      9565.0447      0.90073793     0.71368493   
     52100  -4114.5736     -4146.4144      31.840848      1299.8593      285.43629      9486.6984      0.90817671     0.71368493   
     52200  -4113.9403     -4146.3363      32.395973      5062.7193      290.41269      9413.3434      0.91525383     0.71368493   
     52300  -4115.2064     -4147.5253      32.31885       2087.2313      289.72133      9363.3929      0.92013639     0.71368493   
     52400  -4115.1382     -4148.9056      33.767392      2811.9728      302.70673      9343.0397      0.92214086     0.71368493   
     52500  -4117.2423     -4148.5677      31.325349      367.3836       280.81511      9354.3937      0.92102159     0.71368493   
     52600  -4117.0573     -4148.2454      31.188084      2785.632       279.58461      9393.9266      0.91714561     0.71368493   
     52700  -4115.595      -4147.7216      32.126674      1493.7054      287.99857      9458.0849      0.91092422     0.71368493   
     52800  -4116.2976     -4147.0935      30.795961      2504.7552      276.06944      9534.1322      0.9036584      0.71368493   
     52900  -4116.2738     -4147.1384      30.864504     -636.46796      276.68389      9602.1753      0.89725487     0.71368493   
     53000  -4115.7472     -4147.1794      31.432129     -1565.7323      281.77234      9642.7025      0.89348381     0.68432029   
     53100  -4115.1515     -4147.2547      32.1032        171.37846      287.78814      9652.7539      0.89255343     0.68432029   
     53200  -4114.805      -4147.0282      32.223228     -565.54036      288.86412      9635.3921      0.8941617      0.68432029   
     53300  -4115.8943     -4148.5939      32.699614      577.5079       293.13468      9598.5777      0.89759117     0.68432029   
     53400  -4114.8753     -4147.2329      32.357627      608.44431      290.06894      9552.4698      0.90192366     0.68432029   
     53500  -4114.995      -4147.7978      32.802728      1899.9905      294.05904      9507.6661      0.90617387     0.68432029   
     53600  -4114.0968     -4147.2187      33.121927      2184.7206      296.92049      9472.4646      0.90954138     0.68432029   
     53700  -4112.3527     -4145.8531      33.500382      2332.9425      300.31313      9452.1826      0.91149304     0.68432029   
     53800  -4113.0695     -4146.1459      33.076423      2604.6123      296.51257      9448.4626      0.9118519      0.68432029   
     53900  -4113.9281     -4146.3077      32.379655      2840.3669      290.26641      9459.1166      0.91082486     0.68432029   
     54000  -4115.0269     -4147.0762      32.049317      2226.3073      287.30511      9483.5523      0.90847799     0.81407266   
     54100  -4115.5183     -4147.5423      32.024083      746.36204      287.0789       9520.0709      0.90499311     0.81407266   
     54200  -4115.6336     -4147.295       31.661423     -3531.9365      283.82784      9558.1327      0.9013893      0.81407266   
     54300  -4114.5677     -4146.2326      31.664909      513.8273       283.85909      9593.3381      0.89808141     0.81407266   
     54400  -4116.2919     -4148.1212      31.829249      187.04665      285.33231      9616.9915      0.89587254     0.81407266   
     54500  -4116.317      -4147.169       30.851921      805.04502      276.57109      9620.9641      0.89550262     0.81407266   
     54600  -4115.2597     -4147.9246      32.664914     -202.10861      292.82361      9606.2503      0.89687425     0.81407266   
     54700  -4115.4466     -4148.8148      33.368148      1997.8654      299.12773      9575.8681      0.89971985     0.81407266   
     54800  -4115.929      -4147.9672      32.038277     -143.6765       287.20614      9539.077       0.90318996     0.81407266   
     54900  -4115.3901     -4147.813       32.422913      4359.3886      290.6542       9504.4167      0.90648368     0.81407266   
     55000  -4115.343      -4148.0403      32.697331      2432.9755      293.1142       9473.172       0.90947346     0.77005804   
     55100  -4114.5753     -4147.3647      32.789461     -62.912649      293.9401       9448.1618      0.91188093     0.77005804   
     55200  -4113.764      -4146.6889      32.924936      3974.5785      295.15456      9434.9904      0.91315393     0.77005804   
     55300  -4113.4444     -4145.0446      31.600164      3707.0439      283.27869      9439.0166      0.91276443     0.77005804   
     55400  -4113.4721     -4147.8389      34.366805     -146.69695      308.08015      9459.5359      0.91078449     0.77005804   
     55500  -4113.8506     -4147.6513      33.800637     -638.64782      303.00476      9490.0832      0.9078528      0.77005804   
     55600  -4113.6342     -4147.2446      33.610391      727.62769      301.29931      9528.1701      0.90422384     0.77005804   
     55700  -4113.3147     -4147.0445      33.729744      1218.0383      302.36924      9567.0844      0.9005459      0.77005804   
     55800  -4112.7014     -4146.8538      34.152426      1087.2986      306.15836      9600.8172      0.8973818      0.77005804   
     55900  -4113.8813     -4146.7628      32.881446      889.18556      294.7647       9624.2272      0.895199       0.77005804   
     56000  -4113.555      -4145.716       32.161019     -557.49761      288.30646      9626.0255      0.89503176     0.74385824   
     56100  -4114.2679     -4147.2923      33.024458      997.90289      296.04672      9608.7237      0.89664339     0.74385824   
     56200  -4115.6828     -4147.433       31.750159     -3280.1632      284.62331      9571.8444      0.90009806     0.74385824   
     56300  -4114.6616     -4147.5704      32.908763      1962.9662      295.00958      9524.9876      0.90452596     0.74385824   
     56400  -4115.6421     -4147.4529      31.810753      2689.5769      285.1665       9479.4703      0.9088692      0.74385824   
     56500  -4115.9849     -4148.6872      32.70231       4008.9652      293.15884      9447.0983      0.91198358     0.74385824   
     56600  -4115.9609     -4147.9086      31.947732      1422.9618      286.39445      9430.9018      0.91354981     0.74385824   
     56700  -4116.4328     -4147.685       31.252177      602.03208      280.15916      9429.9951      0.91363765     0.74385824   
     56800  -4117.3737     -4149.2768      31.903033      4218.4158      285.99374      9442.0697      0.91246929     0.74385824   
     56900  -4117.1702     -4150.243       33.072818      1341.1613      296.48025      9466.7737      0.91008815     0.74385824   
     57000  -4116.7373     -4148.8075      32.070186     -257.97147      287.49219      9503.5778      0.9065637      0.76770283   
     57100  -4117.6622     -4149.3643      31.702123     -776.05161      284.1927       9548.9153      0.9022594      0.76770283   
     57200  -4116.6492     -4149.2491      32.599916      394.87329      292.24093      9589.2944      0.89846012     0.76770283   
[...]
    386100  -4115.8599     -4149.0231      33.163181      2050.8578      297.2903       9497.202       0.90717231     0.75816471   
    386200  -4115.5133     -4147.0604      31.547113      726.11198      282.80311      9482.4626      0.9085824      0.75816471   
    386300  -4113.9989     -4147.4184      33.419513      2330.8277      299.58818      9465.0395      0.9102549      0.75816471   
    386400  -4114.1908     -4146.4983      32.3075        1797.4936      289.61958      9449.5982      0.91174233     0.75816471   
    386500  -4114.657      -4146.7197      32.06268       3089.2655      287.42489      9439.0991      0.91275645     0.75816471   
    386600  -4114.7965     -4147.0886      32.292085      2529.1515      289.48139      9441.7875      0.91249656     0.75816471   
    386700  -4115.265      -4147.6878      32.422858      2245.6674      290.6537       9456.2847      0.91109763     0.75816471   
    386800  -4116.496      -4147.8008      31.304782      4893.2603      280.63075      9475.4624      0.90925363     0.75816471   
    386900  -4116.294      -4149.5996      33.30558       727.47471      298.56683      9494.4227      0.90743786     0.75816471   
    387000  -4116.2991     -4148.6616      32.362494      2026.3525      290.11257      9508.8645      0.90605966     0.79551453   
    387100  -4116.2584     -4147.4243      31.16588       2294.545       279.38556      9515.753       0.90540376     0.79551453   
    387200  -4114.7948     -4147.9391      33.144271     -331.07476      297.12079      9516.4978      0.90533291     0.79551453   
    387300  -4115.0496     -4147.291       32.241403     -1934.521       289.02705      9511.5164      0.90580705     0.79551453   
    387400  -4116.0422     -4148.8148      32.772576      1982.8291      293.78874      9504.1436      0.90650973     0.79551453   
    387500  -4116.3721     -4149.45        33.077903      1500.5003      296.52583      9494.1615      0.90746282     0.79551453   
    387600  -4115.0142     -4148.3911      33.376868      3259.4045      299.20589      9482.853       0.90854499     0.79551453   
    387700  -4115.1522     -4147.6976      32.545333      1800.8353      291.75163      9478.5089      0.90896138     0.79551453   
    387800  -4114.9323     -4147.5067      32.574426      1894.2941      292.01243      9483.3704      0.90849542     0.79551453   
    387900  -4114.3747     -4146.3732      31.998534      2684.8037      286.84986      9496.1998      0.90726804     0.79551453   
    388000  -4113.4814     -4147.4151      33.933725      1829.5827      304.19782      9512.4144      0.90572154     0.73978982   
    388100  -4113.9512     -4147.3798      33.428581     -692.4951       299.66947      9527.2677      0.90430949     0.73978982   
    388200  -4114.9551     -4148.6644      33.709328      2997.687       302.18623      9536.329       0.90345022     0.73978982   
    388300  -4113.6134     -4146.5561      32.94265      -637.99371      295.31337      9538.6804      0.90322751     0.73978982   
    388400  -4114.2243     -4147.568       33.343643      1272.8369      298.90805      9535.3593      0.9035421      0.73978982   
    388500  -4114.3241     -4147.1034      32.779268      2871.5717      293.84873      9525.4453      0.9044825      0.73978982   
    388600  -4115.0776     -4147.5669      32.489353      1842.4342      291.24979      9511.1516      0.90584179     0.73978982   
    388700  -4114.328      -4146.8773      32.549294      254.3876       291.78713      9499.4087      0.90696156     0.73978982   
    388800  -4113.5146     -4147.4683      33.953698      604.94146      304.37687      9495.9283      0.90729398     0.73978982   
    388900  -4114.7029     -4147.9481      33.245197     -256.22249      298.02553      9502.2492      0.90669045     0.73978982   
    389000  -4115.1629     -4146.7534      31.590434     -587.5424       283.19147      9509.683       0.90598168     0.8433151    
    389100  -4115.3281     -4147.4591      32.131044      659.15662      288.03775      9511.6227      0.90579692     0.8433151    
    389200  -4115.0009     -4149.1614      34.160515      3608.3079      306.23088      9512.7203      0.90569241     0.8433151    
    389300  -4115.558      -4148.0873      32.529264     -223.59149      291.60757      9511.7865      0.90578133     0.8433151    
    389400  -4114.5617     -4148.1497      33.588049      597.24089      301.09902      9504.5607      0.90646994     0.8433151    
    389500  -4116.2076     -4148.2626      32.054969      4363.2043      287.35578      9492.3626      0.9076348      0.8433151    
    389600  -4114.9088     -4147.4526      32.543833      3995.1921      291.73818      9482.4922      0.90857956     0.8433151    
    389700  -4116.0401     -4149.0585      33.018409      2020.3249      295.9925       9475.6054      0.90923991     0.8433151    
    389800  -4114.9861     -4146.4189      31.43284       24.281842      281.77872      9470.7019      0.90971067     0.8433151    
    389900  -4114.6402     -4147.7735      33.133266     -1708.4187      297.02213      9472.9003      0.90949955     0.8433151    
    390000  -4114.6437     -4146.7753      32.131579      3072.9549      288.04255      9478.1283      0.90899788     0.66354016   
    390100  -4113.5921     -4146.0978      32.505765      1162.3439      291.39692      9487.5623      0.90809402     0.66354016   
    390200  -4113.0416     -4148.352       35.310415      957.40651      316.53912      9497.962       0.90709971     0.66354016   
    390300  -4112.36       -4146.4163      34.056306      2622.7307      305.2967       9508.3466      0.90610902     0.66354016   
    390400  -4113.4526     -4146.4202      32.967579     -2822.0598      295.53683      9520.9083      0.90491351     0.66354016   
    390500  -4112.4639     -4146.7816      34.317696      87.581074      307.63992      9531.1197      0.90394401     0.66354016   
    390600  -4114.283      -4145.9965      31.713502      1735.8518      284.2947       9535.7661      0.90350356     0.66354016   
    390700  -4114.0069     -4146.3897      32.382726      1806.9753      290.29394      9534.3652      0.90363631     0.66354016   
    390800  -4114.7263     -4148.6329      33.906616     -683.3761       303.95481      9525.7395      0.90445457     0.66354016   
    390900  -4114.3505     -4147.1235      32.773081      1007.3363      293.79326      9509.0276      0.90604413     0.66354016   
    391000  -4115.133      -4147.2656      32.132664     -612.53315      288.05227      9492.0503      0.90766466     0.71770047   
    391100  -4116.4726     -4147.9654      31.492868      1654.9983      282.31683      9477.4433      0.90906358     0.71770047   
    391200  -4116.9552     -4148.5212      31.565978     -276.61431      282.97223      9470.2938      0.90974987     0.71770047   
    391300  -4117.0614     -4148.8789      31.817454     -160.8971       285.22657      9466.1276      0.91015027     0.71770047   
    391400  -4118.058      -4149.1691      31.111131      614.40989      278.89476      9466.4077      0.91012333     0.71770047   
    391500  -4117.6489     -4149.5631      31.914277     -139.48133      286.09454      9468.9252      0.90988137     0.71770047   
    391600  -4116.2404     -4148.6152      32.374789      1238.7099      290.22279      9474.4905      0.9093469      0.71770047   
    391700  -4116.6331     -4148.3997      31.76664       778.21377      284.77106      9482.8298      0.90854722     0.71770047   
    391800  -4116.519      -4148.379       31.859963     -238.15101      285.60765      9491.0694      0.90775847     0.71770047   
    391900  -4117.7847     -4148.8263      31.041595      1593.9528      278.27141      9499.2543      0.90697631     0.71770047   
    392000  -4117.717      -4149.3164      31.599419      437.23989      283.27201      9508.8865      0.90605756     0.68747365   
    392100  -4116.0317     -4148.3855      32.353817     -1793.4042      290.03478      9513.1239      0.90565399     0.68747365   
    392200  -4115.943      -4147.9202      31.977215      1978.8596      286.65875      9512.3974      0.90572315     0.68747365   
    392300  -4115.3689     -4148.3979      33.029044      1160.7656      296.08784      9510.7903      0.9058762      0.68747365   
    392400  -4114.5723     -4146.902       32.329669      1079.4282      289.81831      9510.3119      0.90592177     0.68747365   
    392500  -4115.4246     -4148.1844      32.759767      362.70838      293.67391      9510.9784      0.90585829     0.68747365   
    392600  -4114.7451     -4147.7087      32.963575      1514.0829      295.50094      9506.8949      0.90624738     0.68747365   
    392700  -4114.6637     -4147.6078      32.944099     -335.34962      295.32636      9502.329       0.90668284     0.68747365   
    392800  -4114.0525     -4147.9972      33.944676     -1345.8205      304.29599      9494.3792      0.90744202     0.68747365   
    392900  -4113.1422     -4147.216       34.07381      -1161.5457      305.45361      9481.7479      0.90865088     0.68747365   
    393000  -4113.9908     -4146.4931      32.502255      227.67197      291.36545      9465.3957      0.91022064     0.68385173   
    393100  -4114.7673     -4145.6375      30.870148      1014.8181      276.73448      9449.1625      0.91178436     0.68385173   
    393200  -4113.3388     -4147.4109      34.072107      1632.7605      305.43835      9436.591       0.91299904     0.68385173   
    393300  -4113.5377     -4146.5848      33.047067      978.3718       296.2494       9432.0561      0.91343801     0.68385173   
    393400  -4113.9182     -4145.7388      31.820612     -215.40845      285.25489      9439.7296      0.91269548     0.68385173   
    393500  -4113.1807     -4146.2857      33.105072      2194.7069      296.76938      9461.9061      0.91055634     0.68385173   
    393600  -4113.8885     -4147.434       33.545572      1395.9566      300.71824      9493.5034      0.90752573     0.68385173   
    393700  -4114.1903     -4147.0865      32.896223      272.39345      294.89717      9522.7976      0.90473398     0.68385173   
    393800  -4114.8654     -4147.7431      32.877734      267.90057      294.73142      9543.7533      0.90274741     0.68385173   
    393900  -4115.5923     -4147.0934      31.501185     -359.77176      282.39139      9551.0033      0.90206215     0.68385173   
    394000  -4116.1551     -4148.3982      32.243037      3527.3162      289.04171      9542.4748      0.90286836     0.71328293   
    394100  -4115.3495     -4147.7787      32.429144      2629.4384      290.71006      9516.8407      0.90530029     0.71328293   
    394200  -4116.3546     -4148.6125      32.257887      334.48849      289.17482      9483.7256      0.90846139     0.71328293   
    394300  -4115.5938     -4147.5272      31.9334        2255.0193      286.26597      9451.909       0.91151942     0.71328293   
    394400  -4115.1139     -4148.144       33.030117     -1130.2377      296.09745      9427.5611      0.91387354     0.71328293   
    394500  -4116.0919     -4148.5675      32.475526      2911.6264      291.12584      9415.745       0.91502038     0.71328293   
    394600  -4115.9091     -4146.4296      30.520403      2414.1101      273.5992       9417.3194      0.91486741     0.71328293   
    394700  -4114.1962     -4147.354       33.157786      2315.4765      297.24194      9429.4969      0.91368592     0.71328293   
    394800  -4115.0168     -4147.5734      32.556585      48.061259      291.8525       9449.7268      0.91172991     0.71328293   
    394900  -4115.854      -4147.9514      32.097404      2963.9215      287.73618      9469.8008      0.90979724     0.71328293   
    395000  -4115.5588     -4148.6012      33.042423      3077.8395      296.20777      9491.4861      0.90771861     0.76740566   
    395100  -4114.8199     -4148.3552      33.535236     -479.9259       300.62558      9512.6001      0.90570386     0.76740566   
    395200  -4116.7189     -4148.5762      31.857355      2020.7451      285.58427      9532.5265      0.90381061     0.76740566   
    395300  -4116.995      -4148.8369      31.84185       1176.8641      285.44528      9541.5296      0.9029578      0.76740566   
    395400  -4116.914      -4148.4697      31.555768      2231.5327      282.8807       9533.0947      0.90375674     0.76740566   
    395500  -4118.5562     -4149.2366      30.680366     -223.69723      275.03319      9515.0712      0.90546864     0.76740566   
    395600  -4117.4096     -4148.6952      31.285586      1781.6081      280.45866      9487.6872      0.90808207     0.76740566   
    395700  -4118.1928     -4150.0964      31.903625      842.6906       285.99905      9458.2427      0.91090902     0.76740566   
    395800  -4117.8318     -4149.2158      31.384006      3559.4239      281.34094      9434.6108      0.91319067     0.76740566   
    395900  -4118.1062     -4147.735       29.628861     -148.56002      265.60701      9421.7533      0.91443687     0.76740566   
    396000  -4117.1456     -4147.9514      30.805786      112.26353      276.15751      9418.784       0.91472515     0.79516589   
    396100  -4115.0459     -4146.9877      31.941839      1543.2557      286.34162      9424.0702      0.91421205     0.79516589   
    396200  -4115.0042     -4148.1111      33.10688       4467.6522      296.78559      9441.7508      0.9125001      0.79516589   
    396300  -4115.1988     -4147.718       32.519231      180.22757      291.51764      9470.4241      0.90973735     0.79516589   
    396400  -4115.7889     -4148.5833      32.794399      1717.8502      293.98437      9506.7823      0.90625811     0.79516589   
    396500  -4115.657      -4148.1639      32.506859     -1781.2783      291.40673      9545.0887      0.90262112     0.79516589   
    396600  -4114.4876     -4147.8328      33.345208     -636.79239      298.92208      9571.1521      0.90016317     0.79516589   
    396700  -4113.6329     -4146.892       33.259122      3132.2171      298.15037      9584.4539      0.89891387     0.79516589   
    396800  -4114.0431     -4147.1799      33.136777      1274.1129      297.0536       9585.8586      0.89878215     0.79516589   
    396900  -4111.8799     -4146.1453      34.265391     -2003.9409      307.17103      9577.0585      0.89960802     0.79516589   
    397000  -4112.7546     -4145.6589      32.904374     -337.17181      294.97024      9561.0438      0.90111486     0.79596603   
    397100  -4113.239      -4146.2926      33.053539      2250.4799      296.30742      9540.6788      0.90303832     0.79596603   
    397200  -4113.55       -4146.3844      32.83436      -1855.8172      294.3426       9516.3611      0.90534591     0.79596603   
    397300  -4114.9096     -4148.2327      33.323102      789.42188      298.72391      9489.4811      0.9079104      0.79596603   
    397400  -4116.2727     -4147.5428      31.27013       484.7004       280.32011      9461.5265      0.91059287     0.79596603   
    397500  -4115.8705     -4148.5102      32.639748      1494.8728      292.598        9436.5595      0.91300209     0.79596603   
    397600  -4116.8117     -4148.5464      31.734718      1765.5712      284.4849       9419.6886      0.91463731     0.79596603   
    397700  -4116.8223     -4150.0918      33.269545      2452.9307      298.2438       9414.9753      0.91509519     0.79596603   
    397800  -4116.4252     -4147.6508      31.225604      2663.4431      279.92096      9419.6436      0.91464167     0.79596603   
    397900  -4116.8959     -4150.1018      33.205902      2791.9962      297.67328      9434.5589      0.9131957      0.79596603   
    398000  -4117.7969     -4149.1113      31.314356      1049.7221      280.71657      9455.7363      0.91115047     0.65774301   
    398100  -4117.0063     -4148.6721      31.665847     -957.12585      283.8675       9483.2074      0.90851104     0.65774301   
    398200  -4116.4802     -4148.5677      32.087456      1131.6287      287.647        9513.0999      0.90565627     0.65774301   
    398300  -4116.2891     -4148.9392      32.650086     -1096.4059      292.69068      9536.4312      0.90344054     0.65774301   
    398400  -4115.3125     -4147.3664      32.053839      93.336763      287.34564      9544.7609      0.90265211     0.65774301   
    398500  -4114.4215     -4147.8277      33.406228      288.95812      299.46909      9540.413       0.90306348     0.65774301   
    398600  -4114.339      -4147.601       33.262002     -2498.7456      298.17618      9528.432       0.90419899     0.65774301   
    398700  -4114.7833     -4147.1176      32.334299      1380.8539      289.85981      9507.3513      0.90620388     0.65774301   
    398800  -4113.1014     -4145.74        32.638531      2216.7052      292.5871       9481.0466      0.90871809     0.65774301   
    398900  -4113.9729     -4149.3523      35.379316     -41.231834      317.15678      9460.5689      0.91068504     0.65774301   
    399000  -4114.9496     -4146.3986      31.449022      1042.0357      281.92378      9448.6492      0.91183389     0.74610184   
    399100  -4113.8202     -4146.7263      32.906098      547.69984      294.9857       9440.2315      0.91264696     0.74610184   
    399200  -4112.2278     -4146.0802      33.85243       12.969032      303.46905      9439.3739      0.91272988     0.74610184   
    399300  -4113.3205     -4146.2921      32.971531      3942.9688      295.57227      9449.8946      0.91171372     0.74610184   
    399400  -4113.3742     -4146.5236      33.149415     -716.03562      297.1669       9474.1145      0.90938299     0.74610184   
    399500  -4113.7549     -4145.9049      32.15001       2326.4865      288.20777      9506.5483      0.90628042     0.74610184   
    399600  -4112.7839     -4146.6439      33.859999     -184.90275      303.53691      9542.1422      0.90289983     0.74610184   
    399700  -4112.8142     -4146.3112      33.497051     -151.28562      300.28327      9572.532       0.90003341     0.74610184   
    399800  -4112.9392     -4146.949       34.00976       2587.8014      304.87944      9594.9932      0.89792649     0.74610184   
    399900  -4114.3207     -4148.0994      33.778736     -1844.4296      302.80843      9599.9686      0.89746112     0.74610184   
    400000  -4113.5407     -4145.6994      32.158729      1291.769       288.28592      9579.9885      0.89933287     0.71484328   
    400100  -4113.7399     -4145.7886      32.048649      2348.642       287.29911      9541.3631      0.90297356     0.71484328   
    400191  -4112.9669     -4147.9583      34.991423      923.63544      313.67952      9498.5642      0.9070422      0.71484328   
Loop time of 502.214 on 2 procs for 200000 steps with 864 atoms

Performance: 17.204 ns/day, 1.395 hours/ns, 398.236 timesteps/s, 344.076 katom-step/s
99.7% CPU use with 2 MPI tasks x 1 OpenMP threads

MPI task timing breakdown:
Section |  min time  |  avg time  |  max time  |%varavg| %total
---------------------------------------------------------------
Pair    | 256.97     | 261.63     | 266.3      |  28.8 | 52.10
Neigh   | 7.4345     | 7.4952     | 7.5558     |   2.2 |  1.49
Comm    | 38.081     | 43.295     | 48.509     |  79.2 |  8.62
Output  | 0.29043    | 0.29362    | 0.29681    |   0.6 |  0.06
Modify  | 187.04     | 187.53     | 188.02     |   3.6 | 37.34
Other   |            | 1.964      |            |       |  0.39

Nlocal:            432 ave         432 max         432 min
Histogram: 2 0 0 0 0 0 0 0 0 0
Nghost:         2181.5 ave        2190 max        2173 min
Histogram: 1 0 0 0 0 0 0 0 0 1
Neighs:              0 ave           0 max           0 min
Histogram: 2 0 0 0 0 0 0 0 0 0
FullNghs:        45000 ave       45043 max       44957 min
Histogram: 1 0 0 0 0 0 0 0 0 1

Total # of neighbors = 90000
Ave neighs/atom = 104.16667
Neighbor list builds = 19897
Dangerous builds = 19383
Total wall time: 0:16:46
