LAMMPS (7 Feb 2024 - Update 1)
KOKKOS mode with Kokkos version 4.2.0 is enabled (src/KOKKOS/kokkos.cpp:72)
  will use up to 4 GPU(s) per node
  using 1 OpenMP thread(s) per MPI task
Reading data file ...
  triclinic box = (0 0 0) to (24.989956 24.989919 23.167336) with tilt (-0.22207236 -0.16357316 -0.098737559)
  2 by 2 by 1 MPI processor grid
  reading atoms ...
  1920 atoms
  read_data CPU = 0.011 seconds
ACE/AL version: 2023.11.25
Loading /home/cicn/cicn607503/pd/pot_dir/interim_potential_ladder_step_1.yaml
Total number of basis functions
	H: 23 (r=1) 664 (r>1)
	O: 23 (r=1) 664 (r>1)
Mapping LAMMPS atom type #1(H) -> ACE species type #0
Mapping LAMMPS atom type #2(O) -> ACE species type #1
Loading ASI /home/cicn/cicn607503/pd/pot_dir/interim_potential_ladder_step_1.asi
LINEAR ASI is loaded
Switching to 'neigh_modify every 1 delay 0 check yes' setting during minimization
Neighbor list info ...
  update: every = 1 steps, delay = 0 steps, check = yes
  max neighbors/atom: 2000, page size: 100000
  master list distance cutoff = 6.5
  ghost atom cutoff = 6.5
  binsize = 6.5, bins = 4 4 4
  1 neighbor lists, perpetual/occasional/extra = 1 0 0
  (1) pair pace/extrapolation/kk, perpetual
      attributes: full, newton on, kokkos_device
      pair build: full/bin/kk/device
      stencil: full/bin/3d
      bin: kk/device
Setting up cg/kk style minimization ...
  Unit style    : metal
  Current step  : 0
WARNING: Fix with atom-based arrays not compatible with sending data in Kokkos communication, switching to classic exchange/border communication (src/KOKKOS/comm_kokkos.cpp:666)
WARNING: Fix with atom-based arrays not compatible with Kokkos sorting on device, switching to classic host sorting (src/KOKKOS/atom_kokkos.cpp:218)
Per MPI rank memory allocation (min/avg/max) = 423.1 | 425.1 | 428.5 Mbytes
   Step         TotEng         PotEng         KinEng         Press           Temp          Volume        Density     c_max_pace_gamma
         0  -9257.6624     -9257.6624      0              4199.2215      0              14467.932      1.3233249      0.59040827   
       100  -9273.0754     -9273.0754      0             -8062.4723      0              14467.932      1.3233249      0.59040827   
       200  -9273.115      -9273.115       0             -8132.5793      0              14467.932      1.3233249      0.59040827   
       300  -9273.1151     -9273.1151      0             -8129.1373      0              14467.932      1.3233249      0.59040827   
       330  -9273.1151     -9273.1151      0             -8129.2551      0              14467.932      1.3233249      0.59040827   
Loop time of 1.31927 on 4 procs for 330 steps with 1920 atoms

99.6% CPU use with 4 MPI tasks x 1 OpenMP threads

Minimization stats:
  Stopping criterion = force tolerance
  Energy initial, next-to-last, final = 
     -9257.66239234843  -9273.11512032474  -9273.11512032964
  Force two-norm initial, final = 10.318152 0.00048118279
  Force max component initial, final = 0.72934274 3.9574737e-05
  Final line search alpha, max atom move = 1 3.9574737e-05
  Iterations, force evaluations = 330 660

MPI task timing breakdown:
Section |  min time  |  avg time  |  max time  |%varavg| %total
---------------------------------------------------------------
Pair    | 0.85656    | 0.87212    | 0.884      |   1.3 | 66.11
Neigh   | 0.0020843  | 0.002154   | 0.0022311  |   0.1 |  0.16
Comm    | 0.19376    | 0.20577    | 0.22167    |   2.4 | 15.60
Output  | 0.0004455  | 0.00044727 | 0.00045087 |   0.0 |  0.03
Modify  | 0.14708    | 0.15057    | 0.15438    |   0.7 | 11.41
Other   |            | 0.08821    |            |       |  6.69

Nlocal:            480 ave         483 max         478 min
Histogram: 1 0 1 0 1 0 0 0 0 1
Nghost:         2633.5 ave        2637 max        2632 min
Histogram: 2 0 1 0 0 0 0 0 0 1
Neighs:              0 ave           0 max           0 min
Histogram: 4 0 0 0 0 0 0 0 0 0
FullNghs:        75282 ave       75862 max       74860 min
Histogram: 1 0 0 2 0 0 0 0 0 1

Total # of neighbors = 301128
Ave neighs/atom = 156.8375
Neighbor list builds = 5
Dangerous builds = 0
Setting up Verlet run ...
  Unit style    : metal
  Current step  : 330
  Time step     : 0.0005
WARNING: Fix with atom-based arrays not compatible with sending data in Kokkos communication, switching to classic exchange/border communication (src/KOKKOS/comm_kokkos.cpp:666)
WARNING: Fix with atom-based arrays not compatible with Kokkos sorting on device, switching to classic host sorting (src/KOKKOS/atom_kokkos.cpp:218)
Per MPI rank memory allocation (min/avg/max) = 424.6 | 426.3 | 427.6 Mbytes
   Step         TotEng         PotEng         KinEng         Press           Temp          Volume        Density     c_max_pace_gamma
       330  -9183.817      -9273.1151      89.298079     -1536.6849      360            14467.932      1.3233249      0.59040827   
       400  -9171.4855     -9218.2249      46.739382     -5590.1952      188.42709      14401.09       1.3294671      0.59040827   
       500  -9151.0166     -9205.161       54.144433      6407.4595      218.28012      14147.89       1.3532601      0.59040827   
       600  -9136.3803     -9204.4802      68.099935      9719.032       274.54092      13847.019      1.382664       0.59040827   
       700  -9127.3583     -9200.8039      73.445582      15612.545      296.09158      13625.346      1.4051588      0.59040827   
       800  -9119.4152     -9192.4509      73.035657      16173.526      294.43899      13504.343      1.4177495      0.59040827   
       900  -9112.931      -9192.4499      79.518968      20956.41       320.57609      13470.132      1.4213502      0.59040827   
      1000  -9108.3863     -9190.9536      82.567316      18549.048      332.86532      13508.189      1.4173458      0.71294375   
      1100  -9107.1192     -9187.656       80.536821      16481.689      324.6795       13604.003      1.4073633      0.71294375   
      1200  -9104.3674     -9184.8613      80.493847      14741.705      324.50626      13735.498      1.3938901      0.71294375   
      1300  -9103.9117     -9186.1846      82.27293       14378.907      331.67852      13867.261      1.3806457      0.71294375   
      1400  -9102.2517     -9184.4494      82.197637      14064.966      331.37499      13972.224      1.370274       0.71294375   
      1500  -9100.6309     -9186.2638      85.632877      12958.707      345.22395      14039.968      1.3636622      0.71294375   
      1600  -9097.2597     -9181.7522      84.492569      11682.99       340.62687      14062.928      1.3614359      0.71294375   
      1700  -9097.4047     -9182.5323      85.127541      10437.875      343.18672      14050.728      1.362618       0.71294375   
      1800  -9095.2755     -9181.1627      85.887141      15128.156      346.249        14013.031      1.3662837      0.71294375   
      1900  -9094.2629     -9180.9726      86.70966       14288.956      349.56494      13965.861      1.3708982      0.71294375   
      2000  -9092.3979     -9180.7341      88.336182      15647.569      356.12217      13921.044      1.3753117      0.68328277   
      2100  -9090.0868     -9178.8324      88.745626      15583.257      357.77282      13889.173      1.3784676      0.68328277   
      2200  -9088.5729     -9178.2281      89.655265      14964.68       361.43998      13877.306      1.3796464      0.68328277   
      2300  -9090.6846     -9180.1411      89.456503      12780.153      360.63868      13886.849      1.3786983      0.68328277   
      2400  -9089.2022     -9178.9876      89.785383      14123.087      361.96454      13909.638      1.3764395      0.68328277   
      2500  -9089.7283     -9178.304       88.575658      15234.999      357.0876       13942.423      1.3732029      0.68328277   
      2600  -9090.4299     -9177.4049      86.974953      15349.014      350.63446      13977.123      1.3697937      0.68328277   
      2700  -9091.982      -9179.2895      87.307475      13760.935      351.975        14006.415      1.366929       0.68328277   
      2800  -9090.9151     -9180.3704      89.455283      15066.656      360.63376      14019.87       1.3656171      0.68328277   
      2900  -9092.645      -9179.4526      86.807612      12204.927      349.95983      14019.456      1.3656574      0.68328277   
      3000  -9092.0514     -9181.5737      89.522219      13638.861      360.90361      14004.058      1.367159       0.73036413   
      3100  -9089.3423     -9177.5154      88.173129      17774.934      355.46483      13979.454      1.3695652      0.73036413   
      3200  -9090.0645     -9179.0896      89.025122      16569.045      358.89959      13958.268      1.371644       0.73036413   
      3300  -9089.867      -9179.2036      89.336592      14119.715      360.15527      13943.235      1.3731228      0.73036413   
      3400  -9093.428      -9180.136       86.707961      16184.598      349.55809      13935.269      1.3739078      0.73036413   
      3500  -9093.4203     -9181.3455      87.925199      15416.466      354.46532      13933.114      1.3741203      0.73036413   
      3600  -9094.0846     -9179.8933      85.808707      13989.468      345.9328       13928.81       1.3745448      0.73036413   
      3700  -9090.8051     -9178.9038      88.098712      13738.083      355.16482      13920.427      1.3753727      0.73036413   
      3800  -9089.3556     -9175.8839      86.528283      20504.557      348.83373      13917.814      1.3756309      0.73036413   
      3900  -9091.114      -9180.1905      89.07655       16300.541      359.10692      13928.122      1.3746128      0.73036413   
      4000  -9091.3882     -9180.6143      89.226082      14600.238      359.70975      13944.854      1.3729635      0.65545468   
      4100  -9091.1313     -9179.6229      88.491529      16701.529      356.74844      13961.815      1.3712955      0.65545468   
      4200  -9089.2521     -9180.7784      91.526288      16495.114      368.9829       13979.385      1.369572       0.65545468   
      4300  -9090.4814     -9179.7311      89.249709      15953.88       359.805        13999.19       1.3676345      0.65545468   
      4400  -9088.9349     -9179.9557      91.020814      16102.924      366.94511      14011.959      1.3663881      0.65545468   
      4500  -9088.4903     -9178.0731      89.582821      11997.324      361.14792      14011.972      1.3663868      0.65545468   
      4600  -9090.1739     -9177.2318      87.057922      16377.718      350.96894      13996.446      1.3679025      0.65545468   
      4700  -9087.1978     -9176.657       89.459135      15490.442      360.64929      13968.147      1.3706739      0.65545468   
      4800  -9088.7013     -9176.8978      88.196472      13700.603      355.55894      13928.067      1.3746182      0.65545468   
      4900  -9086.4016     -9177.5156      91.113946      12851.955      367.32056      13891.383      1.3782483      0.65545468   
      5000  -9085.4869     -9175.4607      89.973784      12915.67       362.72407      13864.974      1.3808735      0.69530298   
      5100  -9088.1587     -9177.4281      89.269405      17270.221      359.88441      13857.432      1.381625       0.69530298   
      5200  -9087.4439     -9178.1189      90.675027      19448.982      365.55109      13870.603      1.380313       0.69530298   
      5300  -9087.9074     -9178.935       91.027586      13887.008      366.97241      13898.831      1.3775097      0.69530298   
      5400  -9087.5978     -9175.3465      87.748673      14090.149      353.75366      13938.39       1.3736002      0.69530298   
      5500  -9088.6174     -9179.2862      90.668773      13956.564      365.52588      13983.354      1.3691833      0.69530298   
      5600  -9085.6299     -9175.0724      89.442496      13321.089      360.58221      14021.625      1.3654462      0.69530298   
      5700  -9088.2526     -9178.1726      89.920064      11008.348      362.5075       14045.486      1.3631265      0.69530298   
      5800  -9088.9891     -9177.107       88.117884      13567.419      355.24212      14051.069      1.3625849      0.69530298   
      5900  -9087.5255     -9177.656       90.130494      14539.239      363.35583      14034.73       1.3641712      0.69530298   
      6000  -9090.245      -9179.6962      89.451144      13769.559      360.61707      13998.236      1.3677277      0.66840932   
      6100  -9090.097      -9179.0021      88.905081      13619.539      358.41565      13942.606      1.3731848      0.66840932   
      6200  -9089.8912     -9178.0513      88.160112      14802.567      355.41235      13886.426      1.3787402      0.66840932   
      6300  -9087.5352     -9176.69        89.154804      16257.347      359.4224       13843.772      1.3829883      0.66840932   
      6400  -9088.5303     -9175.6848      87.154496      17026.658      351.35827      13824.806      1.3848856      0.66840932   
      6500  -9090.4435     -9178.9348      88.491355      16571.796      356.74774      13830.533      1.3843122      0.66840932   
      6600  -9091.9493     -9180.7279      88.778584      14649.931      357.90569      13861.095      1.3812599      0.66840932   
      6700  -9094.6984     -9183.5728      88.874389      15130.596      358.29192      13905.576      1.3768415      0.66840932   
      6800  -9092.9938     -9182.3696      89.375764      15187.247      360.31318      13948.444      1.3726101      0.66840932   
      6900  -9093.2486     -9180.5117      87.263109      16234.541      351.79614      13980.368      1.3694758      0.66840932   
      7000  -9091.265      -9177.5788      86.313801      16780.858      347.96906      13997.152      1.3678336      0.74319511   
      7100  -9093.0339     -9180.2423      87.208417      17436.266      351.57565      14000.228      1.3675331      0.74319511   
      7200  -9093.45       -9180.2832      86.833195      13635.3        350.06297      13988.911      1.3686394      0.74319511   
      7300  -9092.4064     -9180.8522      88.445793      15494.67       356.56406      13964.783      1.3710041      0.74319511   
      7400  -9091.4665     -9179.0931      87.626511      14551.867      353.26117      13934.787      1.3739554      0.74319511   
      7500  -9092.0556     -9181.0268      88.971226      17786.127      358.68231      13905.721      1.3768271      0.74319511   
      7600  -9095.6557     -9181.8012      86.145442      13495.604      347.29033      13883.603      1.3790206      0.74319511   
      7700  -9094.8384     -9180.8764      86.037994      14984.13       346.85716      13866.342      1.3807372      0.74319511   
      7800  -9093.4302     -9180.7807      87.350448      14614.725      352.14824      13856.641      1.3817038      0.74319511   
      7900  -9091.2149     -9181.6573      90.442407      15671.107      364.6133       13858.997      1.381469       0.74319511   
      8000  -9092.118      -9180.4974      88.37945       15682.239      356.2966       13874.093      1.3799659      0.66233875   
      8100  -9091.8547     -9180.1649      88.310127      16839.924      356.01713      13895.279      1.3778618      0.66233875   
      8200  -9090.1017     -9181.5849      91.48324       17213.334      368.80935      13921.092      1.3753069      0.66233875   
      8300  -9089.4373     -9181.3178      91.88056       13642.628      370.41112      13950.951      1.3723634      0.66233875   
      8400  -9090.1915     -9176.4053      86.213889      16980.475      347.56627      13976.856      1.3698198      0.66233875   
      8500  -9089.1584     -9178.7217      89.563278      14851.618      361.06914      13994.521      1.3680907      0.66233875   
      8600  -9085.7018     -9178.0229      92.321123      16190.5        372.18723      14002.526      1.3673086      0.66233875   
      8700  -9086.5822     -9176.7141      90.13187       11404.04       363.36138      14004.659      1.3671004      0.66233875   
      8800  -9087.0967     -9177.5714      90.474667      13317.638      364.74335      13996.946      1.3678537      0.66233875   
      8900  -9087.8925     -9178.2469      90.354403      14526.452      364.25851      13983.037      1.3692144      0.66233875   
      9000  -9086.09       -9175.0761      88.986124      16547.676      358.74237      13965.347      1.3709487      0.67996765   
      9100  -9086.2634     -9175.5431      89.279749      14924.435      359.92611      13954.093      1.3720544      0.67996765   
      9200  -9089.0518     -9178.3706      89.318815      14359.904      360.0836       13948.694      1.3725855      0.67996765   
      9300  -9092.1402     -9179.662       87.521813      14236.583      352.83909      13946.674      1.3727843      0.67996765   
      9400  -9090.6577     -9180.972       90.314374      15607.365      364.09713      13946.258      1.3728252      0.67996765   
      9500  -9088.562      -9177.8117      89.249746      14638.455      359.80515      13948.153      1.3726387      0.67996765   
      9600  -9087.2942     -9177.1214      89.827173      15631.682      362.13301      13958.298      1.371641       0.67996765   
      9700  -9086.5143     -9175.1308      88.616453      16082.024      357.25207      13980.683      1.3694449      0.67996765   
      9800  -9085.1759     -9174.6079      89.431918      14595.222      360.53957      14007.986      1.3667757      0.67996765   
      9900  -9086.2278     -9176.5058      90.278078      16346.243      363.95081      14035.662      1.3640806      0.67996765   
     10000  -9088.4196     -9179.732       91.312441      14382.98       368.12078      14054.21       1.3622804      0.70309796   
     10100  -9088.8315     -9176.8152      87.98363       15453.517      354.70088      14055.14       1.3621902      0.70309796   
     10200  -9088.5199     -9178.2442      89.724308      14483.454      361.71832      14036.27       1.3640215      0.70309796   
     10300  -9090.5584     -9178.4973      87.938966      13377.062      354.52082      13997.79       1.3677713      0.70309796   
     10400  -9091.0418     -9178.2856      87.243856      16852.855      351.71852      13947.787      1.3726747      0.70309796   
     10500  -9092.7827     -9178.2123      85.429589      16530.873      344.40441      13896.001      1.3777903      0.70309796   
     10600  -9091.1833     -9180.4641      89.280838      15148.327      359.9305       13848.926      1.3824736      0.70309796   
     10700  -9091.9088     -9180.0809      88.172116      18854.643      355.46075      13816.769      1.3856912      0.70309796   
     10800  -9091.1864     -9178.449       87.262552      17880.603      351.79389      13808.081      1.3865631      0.70309796   
     10900  -9091.8766     -9180.1065      88.229951      15547.276      355.69391      13823.424      1.3850241      0.70309796   
     11000  -9091.5439     -9181.0352      89.491301      16000.534      360.77897      13858.532      1.3815153      0.66145941   
     11100  -9091.4745     -9177.6646      86.190115      17214.038      347.47042      13912.467      1.3761596      0.66145941   
     11200  -9089.6593     -9178.8489      89.189686      13786.653      359.56302      13976.259      1.3698784      0.66145941   
     11300  -9091.3763     -9181.2168      89.8405        12439.186      362.18674      14036.107      1.3640374      0.66145941   
     11400  -9090.9308     -9180.007       89.076235      11913.98       359.10565      14073.33       1.3604296      0.66145941   
     11500  -9091.3638     -9178.7383      87.374497      11555.6        352.24519      14080.771      1.3597106      0.66145941   
     11600  -9090.5765     -9180.2793      89.702711      11260.613      361.63125      14058.215      1.3618923      0.66145941   
     11700  -9086.228      -9175.2354      89.007403      11543.377      358.82816      14013.34       1.3662535      0.66145941   
     11800  -9087.1346     -9177.2175      90.082877      14523.242      363.16387      13963.916      1.3710892      0.66145941   
     11900  -9087.1562     -9179.0457      91.889499      15147.545      370.44716      13920.56       1.3753595      0.66145941   
     12000  -9087.2641     -9179.2471      91.982995      14887.808      370.82408      13887.477      1.3786359      0.74535513   
     12100  -9087.1986     -9177.0835      89.884906      19142.528      362.36576      13870.066      1.3803666      0.74535513   
     12200  -9088.4878     -9178.1402      89.652474      16822.799      361.42872      13877.922      1.3795851      0.74535513   
     12300  -9089.6444     -9179.5878      89.943378      14853.29       362.60149      13906.323      1.3767676      0.74535513   
     12400  -9089.7757     -9178.2724      88.496784      15016.995      356.76963      13941.229      1.3733204      0.74535513   
     12500  -9093.374      -9179.7707      86.396723      17269.573      348.30335      13977.702      1.369737       0.74535513   
     12600  -9093.5618     -9180.3677      86.805874      12847.886      349.95282      14007.798      1.366794       0.74535513   
     12700  -9092.7026     -9181.1407      88.438122      11881.559      356.53313      14018.467      1.3657538      0.74535513   
     12800  -9092.4953     -9179.5913      87.096026      13910.331      351.12255      14012.899      1.3662965      0.74535513   
     12900  -9091.8013     -9177.7383      85.936929      14108.985      346.44972      13993.075      1.3682321      0.74535513   
     13000  -9089.4112     -9177.8725      88.461223      14523.469      356.62626      13962.342      1.3712438      0.7214399    
     13100  -9088.2237     -9178.2013      89.977623      16147.154      362.73954      13930.167      1.374411       0.7214399    
     13200  -9088.0675     -9178.1587      90.091185      15627.018      363.19736      13904.875      1.3769109      0.7214399    
     13300  -9087.0878     -9177.645       90.557212      15728.827      365.07612      13892.366      1.3781508      0.7214399    
     13400  -9089.5876     -9179.7159      90.128285      14177.224      363.34693      13894.946      1.3778948      0.7214399    
     13500  -9088.6978     -9177.5785      88.880795      17514.131      358.31774      13908.504      1.3765517      0.7214399    
     13600  -9088.2038     -9180.4011      92.197367      16395.033      371.68831      13929.071      1.3745191      0.7214399    
     13700  -9087.0432     -9176.6549      89.61178       15132.792      361.26467      13956.377      1.3718299      0.7214399    
     13800  -9091.0343     -9178.542       87.507691      15901.666      352.78216      13985.9        1.3689341      0.7214399    
     13900  -9093.6263     -9180.2933      86.666976      15403.264      349.39286      14009.472      1.3666307      0.7214399    
     14000  -9092.1434     -9179.2392      87.095784      14464.852      351.12158      14016.549      1.3659407      0.68874033   
     14100  -9093.3382     -9182.4921      89.153854      14185.88       359.41857      14008.944      1.3666822      0.68874033   
     14200  -9093.4486     -9179.164       85.715444      15756.343      345.55682      13984.876      1.3690343      0.68874033   
     14300  -9092.1835     -9179.5109      87.327363      14730.619      352.05517      13947.84       1.3726695      0.68874033   
     14400  -9089.3983     -9179.0272      89.62897       17305.241      361.33397      13908.32       1.3765699      0.68874033   
     14500  -9088.7501     -9178.9024      90.152294      17042.35       363.44372      13878.217      1.3795558      0.68874033   
     14600  -9088.523      -9181.678       93.154991      16265.965      375.54892      13867.472      1.3806247      0.68874033   
     14700  -9089.6917     -9178.502       88.810317      19644.562      358.03362      13877.267      1.3796503      0.68874033   
     14800  -9089.3092     -9176.8728      87.563559      12918.789      353.00739      13908.767      1.3765256      0.68874033   
     14900  -9088.871      -9178.6012      89.730172      14583.255      361.74196      13955.652      1.3719012      0.68874033   
     15000  -9091.5179     -9177.7071      86.189196      16075.871      347.46672      14002.68       1.3672936      0.71561473   
     15100  -9092.2842     -9180.4763      88.192099      14270.879      355.54131      14039.527      1.3637051      0.71561473   
     15200  -9092.6548     -9178.6668      86.011919      12500.847      346.75204      14057.759      1.3619365      0.71561473   
     15300  -9094.874      -9182.6549      87.780897      14144.728      353.88357      14049.12       1.3627739      0.71561473   
     15400  -9091.0113     -9178.4618      87.450483      13778.591      352.55153      14011.986      1.3663855      0.71561473   
     15500  -9088.6692     -9177.2008      88.531594      18577.727      356.90996      13957.05       1.3717637      0.71561473   
     15600  -9087.9564     -9178.7501      90.793682      18123.694      366.02944      13904.988      1.3768998      0.71561473   
     15700  -9087.1559     -9178.3993      91.243424      16898.124      367.84255      13867.025      1.3806692      0.71561473   
     15800  -9087.1051     -9174.6655      87.560423      20315.472      352.99474      13853.054      1.3820617      0.71561473   
     15900  -9087.1475     -9180.3606      93.213168      15051.133      375.78345      13870.323      1.380341       0.71561473   
     16000  -9088.4112     -9178.082       89.670793      15312.395      361.50258      13908.966      1.376506       0.7056284    
     16100  -9088.412      -9179.4079      90.995868      13463.752      366.84454      13965.399      1.3709436      0.7056284    
     16200  -9091.7069     -9178.0726      86.365647      13972.663      348.17807      14026.563      1.3649655      0.7056284    
     16300  -9091.4906     -9179.3547      87.864116      15343.601      354.21907      14071.248      1.3606308      0.7056284    
     16400  -9091.4051     -9180.5741      89.168981      13150.51       359.47955      14092.109      1.3586167      0.7056284    
     16500  -9091.4383     -9177.5119      86.073629      16797.91       347.00082      14079.916      1.3597933      0.7056284    
     16600  -9088.418      -9178.7022      90.284237      16173.199      363.97564      14044.062      1.3632648      0.7056284    
     16700  -9090.1344     -9179.406       89.271618      16085.534      359.89332      13993.676      1.3681734      0.7056284    
     16800  -9089.2361     -9179.7876      90.551583      15259.462      365.05343      13933.888      1.3740439      0.7056284    
     16900  -9091.7002     -9179.3437      87.643537      17706.427      353.32981      13877.901      1.3795872      0.7056284    
     17000  -9091.3053     -9181.4748      90.169564      16672.777      363.51334      13839.357      1.3834295      0.72435893   
     17100  -9091.8747     -9180.3838      88.509091      16882.143      356.81924      13823.413      1.3850252      0.72435893   
     17200  -9093.1039     -9178.6643      85.560393      15842.264      344.93174      13829.988      1.3843667      0.72435893   
     17300  -9093.9855     -9183.7325      89.747         12389.323      361.8098       13861.246      1.3812448      0.72435893   
     17400  -9092.4747     -9180.5847      88.109983      15974.197      355.21026      13900.182      1.3773758      0.72435893   
     17500  -9092.6271     -9180.4083      87.781236      14235.357      353.88494      13944.312      1.3730168      0.72435893   
     17600  -9090.9634     -9177.0912      86.127797      13438.868      347.21919      13988.139      1.368715       0.72435893   
     17700  -9093.0507     -9182.1973      89.146596      12947.645      359.38931      14024.065      1.3652086      0.72435893   
     17800  -9090.3961     -9176.507       86.110952      11267.839      347.15128      14042.704      1.3633966      0.72435893   
     17900  -9091.5465     -9179.0903      87.543745      11288.554      352.92751      14037.493      1.3639027      0.72435893   
     18000  -9087.6021     -9177.1603      89.558194      12707.532      361.04864      14007.992      1.3667751      0.66938731   
     18100  -9087.7519     -9177.6687      89.916822      15070.309      362.49443      13961.621      1.3713146      0.66938731   
     18200  -9086.2712     -9177.8883      91.617162      15569.03       369.34925      13909.649      1.3764384      0.66938731   
     18300  -9087.5584     -9179.0228      91.464449      15238.581      368.7336       13864.193      1.3809513      0.66938731   
     18400  -9088.9173     -9176.9267      88.009452      16864.492      354.80498      13835.117      1.3838535      0.66938731   
     18500  -9089.6677     -9179.8235      90.155843      16499.361      363.45803      13831.641      1.3842012      0.66938731   
     18600  -9089.4851     -9179.6582      90.173066      15198.364      363.52746      13850.187      1.3823477      0.66938731   
     18700  -9089.221      -9179.2331      90.012106      15772.607      362.87856      13884.827      1.3788991      0.66938731   
     18800  -9088.8814     -9177.6703      88.788811      15084.969      357.94692      13925.305      1.3748909      0.66938731   
     18900  -9088.1889     -9176.8148      88.625841      15186.051      357.28991      13964.809      1.3710015      0.66938731   
     19000  -9089.3798     -9177.6739      88.294041      15684.899      355.95228      13997.42       1.3678074      0.73134769   
     19100  -9088.9531     -9176.3568      87.403686      11074.156      352.36287      14016.794      1.3659168      0.73134769   
     19200  -9088.7931     -9179.4845      90.691376      10781.547      365.617        14023.828      1.3652317      0.73134769   
     19300  -9091.304      -9179.0417      87.737647      14259.238      353.70921      14015.601      1.3660331      0.73134769   
     19400  -9090.1241     -9179.9047      89.780586      14712.121      361.9452       13989.96       1.3685368      0.73134769   
     19500  -9089.3451     -9177.4414      88.096298      18562.091      355.15509      13953.002      1.3721617      0.73134769   
     19600  -9088.1016     -9176.8128      88.711158      16446.33       357.63386      13917.058      1.3757056      0.73134769   
     19700  -9088.659      -9178.2448      89.585764      13741.019      361.15979      13890.259      1.3783598      0.73134769   
     19800  -9089.6261     -9179.8972      90.271125      15691.831      363.92278      13877.849      1.3795924      0.73134769   
     19900  -9087.9907     -9175.8088      87.818073      13872.963      354.03345      13880.568      1.3793221      0.73134769   
     20000  -9086.8395     -9176.8627      90.023183      14210.872      362.92322      13902.123      1.3771836      0.73124828   
     20100  -9089.2895     -9180.0818      90.792269      16463.881      366.02374      13938.641      1.3735754      0.73124828   
     20200  -9087.595      -9177.3287      89.73374       15426.417      361.75634      13980.505      1.3694623      0.73124828   
     20300  -9088.0016     -9176.9591      88.957571      12255.854      358.62726      14019.65       1.3656385      0.73124828   
     20400  -9088.6654     -9179.7951      91.129781      9481.9878      367.3844       14049.707      1.362717       0.73124828   
     20500  -9087.884      -9177.3572      89.473147      12983.15       360.70578      14059.508      1.361767       0.73124828   
     20600  -9087.4409     -9176.8345      89.393634      17211.65       360.38523      14048.383      1.3628455      0.73124828   
     20700  -9088.9487     -9179.3431      90.394423      11833.72       364.41985      14019.163      1.365686       0.73124828   
     20800  -9087.1069     -9177.5631      90.456248      14587.083      364.66909      13975.031      1.3699987      0.73124828   
     20900  -9088.4593     -9178.636       90.1767        17519.684      363.54211      13928.528      1.3745728      0.73124828   
     21000  -9087.1931     -9178.3185      91.12539       16065.182      367.3667       13889.606      1.3784246      0.73502014   
     21100  -9088.0619     -9181.2973      93.23546       18504.545      375.87332      13865.492      1.3808219      0.73502014   
     21200  -9087.0546     -9176.9156      89.86093       18678.242      362.2691       13857.192      1.3816489      0.73502014   
     21300  -9089.377      -9177.9004      88.523354      16575.685      356.87674      13872.507      1.3801236      0.73502014   
     21400  -9089.1508     -9179.9012      90.750436      15794.448      365.85509      13906.566      1.3767435      0.73502014   
     21500  -9089.6093     -9177.3352      87.725823      18919.269      353.66154      13950.67       1.372391       0.73502014   
     21600  -9086.6483     -9176.314       89.665738      11747.202      361.4822       13999.221      1.3676315      0.73502014   
     21700  -9088.3464     -9176.4696      88.123216      12467.252      355.26361      14041.352      1.3635278      0.73502014   
     21800  -9090.108      -9178.9144      88.80638       11823.679      358.01774      14069.192      1.3608297      0.73502014   
     21900  -9089.8669     -9179.1112      89.2443        12322.863      359.78319      14072.611      1.3604991      0.73502014   
     22000  -9087.9716     -9177.7799      89.808328      11573.881      362.05704      14051.571      1.3625362      0.64265883   
     22100  -9086.5639     -9176.9585      90.3946        14033.613      364.42056      14012          1.3663841      0.64265883   
     22200  -9088.1612     -9178.0576      89.896458      17253.079      362.41233      13964.183      1.371063       0.64265883   
     22300  -9084.1336     -9174.3996      90.265938      20019.34       363.90187      13921.217      1.3752946      0.64265883   
     22400  -9084.9189     -9178.7742      93.855302      18584.194      378.37218      13897.34       1.3776575      0.64265883   
     22500  -9087.0242     -9177.606       90.581762      17437.465      365.1751       13895.373      1.3778525      0.64265883   
     22600  -9086.5513     -9177.6676      91.116328      13893.502      367.33017      13911.758      1.3762297      0.64265883   
     22700  -9086.9767     -9177.6375      90.660788      17500.374      365.49368      13942.513      1.373194       0.64265883   
     22800  -9086.7553     -9177.2655      90.510208      16242.735      364.88663      13983.485      1.3691705      0.64265883   
     22900  -9088.8853     -9178.5386      89.653318      13420.228      361.43213      14023.375      1.3652758      0.64265883   
     23000  -9089.4774     -9177.5667      88.089231      13463.448      355.1266       14053.883      1.3623121      0.72058738   
     23100  -9089.0129     -9178.4923      89.479335      11668.314      360.73072      14066.5        1.3610902      0.72058738   
     23200  -9091.0777     -9178.3311      87.253454      13854.235      351.75721      14059.446      1.361773       0.72058738   
     23300  -9091.051      -9179.5372      88.486273      12075.862      356.72725      14031.21       1.3645134      0.72058738   
     23400  -9091.3859     -9179.4333      88.047372      14431.964      354.95785      13989.894      1.3685433      0.72058738   
     23500  -9089.3341     -9178.4562      89.122056      15240.21       359.29038      13940.854      1.3733574      0.72058738   
     23600  -9089.7963     -9179.4159      89.61964       14417.681      361.29636      13894.155      1.3779733      0.72058738   
     23700  -9087.7105     -9176.9804      89.269929      14028.042      359.88652      13860.829      1.3812864      0.72058738   
     23800  -9086.8693     -9177.8865      91.017128      14659.027      366.93025      13850.187      1.3823478      0.72058738   
     23900  -9091.0275     -9179.2606      88.233131      13966.811      355.70673      13862.753      1.3810947      0.72058738   
     24000  -9092.3418     -9180.7687      88.426888      14651.909      356.48785      13892.024      1.3781847      0.7886892    
     24100  -9092.5472     -9181.1694      88.6222        15004.874      357.27523      13927.004      1.3747231      0.7886892    
     24200  -9094.5863     -9181.1829      86.596578      16334.808      349.10906      13958.647      1.3716067      0.7886892    
     24300  -9095.8267     -9181.8572      86.030456      13078.49       346.82677      13982.823      1.3692353      0.7886892    
     24400  -9092.3646     -9181.9338      89.569226      14747.041      361.09312      13990.243      1.368509       0.7886892    
     24500  -9095.2309     -9182.7205      87.489618      14523.087      352.70929      13982.718      1.3692455      0.7886892    
     24600  -9092.3035     -9178.9742      86.670711      13072.064      349.40792      13959.89       1.3714846      0.7886892    
     24700  -9089.6363     -9174.6056      84.969276      11940.228      342.54868      13931.606      1.374269       0.7886892    
     24800  -9086.8342     -9176.8705      90.036241      15335.225      362.97586      13907.543      1.3766468      0.7886892    
     24900  -9088.1945     -9178.2829      90.088388      19193.992      363.18608      13891.404      1.3782462      0.7886892    
     25000  -9090.3842     -9178.8608      88.476609      16792.794      356.68829      13893.296      1.3780585      0.65473831   
     25100  -9091.7321     -9179.3771      87.645013      13267.511      353.33576      13909.05       1.3764977      0.65473831   
     25200  -9090.6504     -9181.4119      90.761538      13450.238      365.89985      13932.307      1.3741998      0.65473831   
     25300  -9091.269      -9179.703       88.43397       12295.321      356.5164       13956.361      1.3718314      0.65473831   
     25400  -9089.8293     -9177.6541      87.824846      14920.519      354.06075      13973.971      1.3701027      0.65473831   
     25500  -9090.6964     -9180.0137      89.317314      12471.476      360.07755      13983.247      1.3691938      0.65473831   
     25600  -9089.0989     -9177.5964      88.497517      13540.357      356.77258      13980.285      1.3694838      0.65473831   
     25700  -9088.3207     -9177.4703      89.149653      12704.532      359.40163      13975.23       1.3699793      0.65473831   
     25800  -9089.2238     -9179.2097      89.985929      13587.476      362.77303      13967.693      1.3707184      0.65473831   
     25900  -9091.919      -9178.6989      86.779972      14371.589      349.8484       13953.489      1.3721138      0.65473831   
     26000  -9090.68       -9182.0083      91.328282      15300.978      368.18465      13934.506      1.373983       0.66518272   
     26100  -9090.4895     -9180.4623      89.972728      14936.544      362.71981      13915.942      1.375816       0.66518272   
     26200  -9091.0187     -9181.0279      90.009284      15725.924      362.86718      13901.571      1.3772382      0.66518272   
     26300  -9090.7732     -9180.7359      89.962686      15507.347      362.67933      13894.673      1.3779219      0.66518272   
     26400  -9090.9076     -9179.8843      88.976718      17253.149      358.70445      13896.039      1.3777865      0.66518272   
     26500  -9091.8753     -9179.3457      87.470438      13412.095      352.63197      13904.69       1.3769292      0.66518272   
     26600  -9090.6467     -9182.4165      91.769776      11406.03       369.96451      13919.211      1.3754928      0.66518272   
     26700  -9090.6899     -9178.8081      88.118237      11009.257      355.24354      13937.036      1.3737336      0.66518272   
     26800  -9089.9847     -9179.668       89.6833        14450.85       361.553        13957.972      1.3716731      0.66518272   
     26900  -9090.7399     -9178.2205      87.480601      14894.041      352.67295      13972.762      1.3702212      0.66518272   
     27000  -9089.3363     -9179.2886      89.952283      12004.535      362.63739      13979.543      1.3695565      0.67322967   
     27100  -9087.7907     -9177.0819      89.291148      13943.454      359.97206      13976.75       1.3698302      0.67322967   
     27200  -9088.3947     -9179.9565      91.56176       13825.393      369.1259       13966.924      1.3707939      0.67322967   
     27300  -9089.716      -9180.5687      90.852729      17251.538      366.26748      13950.427      1.372415       0.67322967   
     27400  -9088.7382     -9179.8043      91.066146      15256.89       367.12786      13932.477      1.3741831      0.67322967   
     27500  -9089.0149     -9179.3576      90.342702      13816.491      364.21134      13912.848      1.3761219      0.67322967   
     27600  -9089.0492     -9178.6891      89.639948      14232.397      361.37823      13898.316      1.3775607      0.67322967   
     27700  -9090.8522     -9178.7326      87.880382      15115.996      354.28464      13897.923      1.3775997      0.67322967   
     27800  -9088.7024     -9177.9776      89.275202      15387.307      359.90777      13905.763      1.3768231      0.67322967   
     27900  -9090.3349     -9178.5208      88.185893      13827.579      355.51629      13920.719      1.3753438      0.67322967   
     28000  -9089.3002     -9178.9892      89.689022      15018.405      361.57607      13941.089      1.3733342      0.66955306   
     28100  -9089.7888     -9179.8868      90.097984      13855.952      363.22477      13962.081      1.3712694      0.66955306   
     28200  -9091.4791     -9177.7119      86.232716      16018.3        347.64217      13981.393      1.3693754      0.66955306   
     28300  -9093.3602     -9183.5786      90.218435      12347.76       363.71036      13992.492      1.3682891      0.66955306   
     28400  -9095.3383     -9182.0246      86.686323      11715.695      349.47086      13987.196      1.3688072      0.66955306   
     28500  -9093.4345     -9182.3758      88.941289      15089.223      358.56162      13966.477      1.3708378      0.66955306   
     28600  -9091.8077     -9178.4578      86.650142      15968.031      349.325        13933.87       1.3740458      0.66955306   
     28700  -9091.4932     -9180.1709      88.677729      17027.8        357.4991       13903.589      1.3770383      0.66955306   
     28800  -9090.7612     -9182.1719      91.410666      16110.557      368.51677      13882.723      1.379108       0.66955306   
     28900  -9088.6662     -9179.8059      91.139673      15661.47       367.42428      13870.653      1.3803081      0.66955306   
     29000  -9090.0729     -9180.2627      90.18974       16729.343      363.59468      13875.705      1.3798055      0.69801856   
     29100  -9090.161      -9178.6863      88.52536       14190.783      356.88483      13896.445      1.3777463      0.69801856   
     29200  -9090.794      -9179.554       88.75997       17091.083      357.83065      13924.924      1.3749285      0.69801856   
     29300  -9089.6534     -9179.5791      89.925658      16207.558      362.53005      13955.332      1.3719326      0.69801856   
     29400  -9088.2671     -9177.9052      89.638148      13999.224      361.37097      13980.019      1.3695099      0.69801856   
     29500  -9087.8719     -9180.1753      92.303423      13082.257      372.11587      13995.898      1.3679562      0.69801856   
     29600  -9087.878      -9175.3092      87.4312        17003.916      352.47379      14001.645      1.3673947      0.69801856   
     29700  -9086.3883     -9177.9043      91.516014      16575.311      368.94148      14001.683      1.3673909      0.69801856   
     29800  -9086.3647     -9179.9303      93.565594      14759.471      377.20424      13997.71       1.367779       0.69801856   
     29900  -9088.6275     -9178.0286      89.401104      16997.572      360.41534      13986.382      1.3688869      0.69801856   
     30000  -9089.7141     -9177.5671      87.85306       14536.642      354.17449      13971.077      1.3703865      0.61849296   
     30100  -9090.101      -9178.8073      88.706337      14629.033      357.61443      13951.362      1.372323       0.61849296   
     30200  -9091.3342     -9178.3377      87.003486      16049.569      350.74948      13928.014      1.3746235      0.61849296   
     30300  -9092.6699     -9181.8531      89.183199      17345.496      359.53687      13909.86       1.3764175      0.61849296   
     30400  -9092.6332     -9181.6893      89.056092      15282.277      359.02444      13897.743      1.3776176      0.61849296   
     30500  -9094.4125     -9180.3196      85.907141      14641.314      346.32963      13895.577      1.3778323      0.61849296   
     30600  -9092.4455     -9180.0352      87.58973       16082.756      353.11289      13901.633      1.3772321      0.61849296   
     30700  -9090.8175     -9180.8416      90.024067      17160.302      362.92678      13919.184      1.3754955      0.61849296   
     30800  -9089.203      -9180.0639      90.860912      14361.366      366.30047      13944.277      1.3730202      0.61849296   
     30900  -9089.5468     -9176.9652      87.418386      16010.881      352.42213      13971.807      1.3703148      0.61849296   
     31000  -9091.8748     -9180.5294      88.654612      13282.25       357.4059       13996.59       1.3678885      0.69676518   
     31100  -9089.245      -9176.9281      87.683026      14426.23       353.48901      14009.098      1.3666672      0.69676518   
     31200  -9089.5306     -9179.8706      90.339975      15806.168      364.20034      14012.212      1.3663634      0.69676518   
     31300  -9088.2673     -9179.909       91.641657      15079.186      369.448        14006.314      1.3669388      0.69676518   
     31400  -9090.0318     -9179.4667      89.434933      13551.099      360.55172      13993.964      1.3681452      0.69676518   
     31500  -9088.5706     -9177.7803      89.209681      13814.733      359.64363      13977.025      1.3698033      0.69676518   
     31600  -9086.0055     -9175.2025      89.196936      16670.69       359.59225      13963.329      1.3711469      0.69676518   
     31700  -9089.0651     -9179.9345      90.869328      15160.873      366.3344       13956.604      1.3718075      0.69676518   
     31800  -9087.5157     -9177.5118      89.996099      15565.61       362.81403      13954.438      1.3720205      0.69676518   
     31900  -9086.9113     -9176.1002      89.188851      15603.309      359.55966      13956.873      1.3717811      0.69676518   
     32000  -9089.1947     -9178.1586      88.963872      15001.844      358.65267      13965.631      1.3709209      0.73949228   
     32100  -9090.4896     -9179.4629      88.973357      14528.779      358.6909       13976.108      1.3698931      0.73949228   
     32200  -9093.4206     -9182.6329      89.212388      16395.474      359.65454      13979.602      1.3695507      0.73949228   
     32300  -9094.0291     -9180.0571      86.02797       14598.738      346.81675      13972.421      1.3702546      0.73949228   
     32400  -9092.5275     -9179.7299      87.202384      13595.301      351.55133      13961.996      1.3712777      0.73949228   
     32500  -9091.9724     -9180.7208      88.74842       13568.809      357.78408      13946.209      1.3728301      0.73949228   
     32600  -9090.3805     -9179.9932      89.612704      15379.531      361.2684       13931.129      1.3743161      0.73949228   
     32700  -9089.6666     -9178.6049      88.938349      17311.935      358.54977      13921.79       1.375238       0.73949228   
     32800  -9089.6821     -9179.8813      90.199252      15197.283      363.63303      13922.794      1.3751388      0.73949228   
     32900  -9089.9518     -9179.2296      89.277812      14218.665      359.9183       13932.164      1.374214       0.73949228   
     33000  -9090.3814     -9181.115       90.733593      15337.918      365.78719      13945.781      1.3728722      0.68619103   
     33100  -9089.0964     -9176.6599      87.563509      13426.537      353.00718      13960.604      1.3714145      0.68619103   
     33200  -9089.3632     -9176.2389      86.875724      13747.971      350.23442      13978.085      1.3696994      0.68619103   
     33300  -9087.2992     -9178.9388      91.639626      12856.073      369.43981      13993.338      1.3682064      0.68619103   
     33400  -9088.2434     -9179.0765      90.833154      14900.157      366.18857      14003.688      1.3671951      0.68619103   
     33500  -9088.3291     -9176.8091      88.479923      15953.467      356.70165      14007.875      1.3667865      0.68619103   
     33600  -9088.8626     -9178.8895      90.02693       13353.867      362.93832      14010.178      1.3665619      0.68619103   
     33700  -9089.5237     -9179.8003      90.276639      9602.3597      363.94501      14011.483      1.3664346      0.68619103   
     33800  -9089.3748     -9179.8707      90.49592       13262.672      364.82903      14009.447      1.3666331      0.68619103   
     33900  -9090.3031     -9179.718       89.414894      14024.999      360.47094      13999.92       1.3675631      0.68619103   
     34000  -9090.0241     -9177.2008      87.176674      13888.344      351.44768      13984.422      1.3690788      0.74218937   
     34100  -9089.5112     -9179.0153      89.504147      13979.246      360.83075      13969.602      1.3705311      0.74218937   
     34200  -9088.2973     -9178.2809      89.983523      15289.77       362.76333      13953.981      1.3720654      0.74218937   
     34300  -9089.4174     -9179.6348      90.217409      16627.933      363.70623      13941.983      1.3732462      0.74218937   
     34400  -9088.6158     -9177.8486      89.232786      14440.284      359.73678      13934.048      1.3740281      0.74218937   
     34500  -9087.0628     -9177.2235      90.160699      16003.237      363.4776       13935.257      1.373909       0.74218937   
     34600  -9087.8144     -9175.4954      87.68102       13911.279      353.48092      13945.042      1.372945       0.74218937   
     34700  -9088.7459     -9179.4035      90.657584      13595.419      365.48077      13961.85       1.3712921      0.74218937   
     34800  -9088.6071     -9176.0712      87.46408       16103.391      352.60634      13980.084      1.3695035      0.74218937   
     34900  -9086.8508     -9177.3926      90.541836      15303.836      365.01414      13992.649      1.3682738      0.74218937   
     35000  -9089.0477     -9178.4412      89.39356       12037.616      360.38493      14000.946      1.3674629      0.7066686    
     35100  -9086.3957     -9175.9157      89.51995       15188.584      360.89446      14003.423      1.367221       0.7066686    
     35200  -9088.314      -9177.4719      89.157892      14827.034      359.43485      14004.787      1.3670879      0.7066686    
     35300  -9087.9976     -9178.9118      90.914185      14922.211      366.51524      13997.764      1.3677738      0.7066686    
     35400  -9089.3977     -9177.7113      88.313667      15348.419      356.0314       13980.702      1.369443       0.7066686    
     35500  -9088.0522     -9175.7849      87.732738      16601.85       353.68942      13958.984      1.3715736      0.7066686    
     35600  -9086.997      -9181.004       94.007058      17261.186      378.98398      13942.904      1.3731554      0.7066686    
     35700  -9087.5232     -9176.2928      88.769597      15226.888      357.86946      13932.428      1.3741879      0.7066686    
     35800  -9088.1817     -9178.1451      89.963441      14018.749      362.68237      13931.984      1.3742318      0.7066686    
     35900  -9088.8892     -9177.7885      88.899301      15232.668      358.39235      13940.595      1.3733829      0.7066686    
     36000  -9084.6365     -9175.2308      90.594287      11061.97       365.22559      13956.524      1.3718154      0.74153339   
     36100  -9086.4714     -9176.7446      90.273287      15698.493      363.9315       13975.663      1.3699367      0.74153339   
     36200  -9090.4377     -9178.865       88.427258      18179.032      356.48934      13993.471      1.3681934      0.74153339   
     36300  -9088.26       -9176.5968      88.336857      14531.612      356.12489      14008.193      1.3667555      0.74153339   
     36400  -9087.2929     -9175.6144      88.321506      15991.711      356.06301      14015.473      1.3660456      0.74153339   
     36500  -9087.7983     -9177.2866      89.488205      11365.122      360.76648      14018.368      1.3657635      0.74153339   
     36600  -9089.179      -9179.5586      90.379529      16342.712      364.3598       14014.544      1.3661361      0.74153339   
     36700  -9091.0261     -9177.8915      86.865378      15129.625      350.19271      14001.466      1.3674121      0.74153339   
     36800  -9089.9121     -9177.0512      87.139192      15938.136      351.29657      13980.151      1.369497       0.74153339   
     36900  -9091.5897     -9181.8931      90.303441      12182.322      364.05306      13953.652      1.3720978      0.74153339   
     37000  -9088.4849     -9178.5255      90.040565      15133.038      362.99329      13923.18       1.3751007      0.73159488   
     37100  -9089.108      -9178.5542      89.446173      14164.158      360.59703      13895.608      1.3778292      0.73159488   
     37200  -9089.2349     -9178.1358      88.900949      16936.604      358.39899      13880.61       1.379318       0.73159488   
     37300  -9087.1426     -9177.2444      90.101747      18337.444      363.23994      13883.599      1.379021       0.73159488   
     37400  -9087.8652     -9176.7607      88.895428      13399.544      358.37674      13906.131      1.3767866      0.73159488   
     37500  -9087.7341     -9179.5222      91.788111      14980.96       370.03842      13944.801      1.3729687      0.73159488   
     37600  -9087.989      -9177.9087      89.919752      13734.131      362.50624      13985.619      1.3689616      0.73159488   
     37700  -9088.5197     -9177.9844      89.464727      12405.16       360.67183      14020.81       1.3655256      0.73159488   
     37800  -9086.067      -9175.7714      89.704448      13874.684      361.63825      14045.37       1.3631378      0.73159488   
     37900  -9086.54       -9178.145       91.605043      14714.581      369.30039      14056.769      1.3620324      0.73159488   
     38000  -9087.8577     -9179.479       91.621249      17816.263      369.36573      14049.27       1.3627594      0.65163525   
     38100  -9086.5294     -9177.198       90.668545      12832.21       365.52495      14023.987      1.3652163      0.65163525   
     38200  -9086.3629     -9177.6762      91.313324      14161.536      368.12434      13987.98       1.3687305      0.65163525   
     38300  -9087.0538     -9176.8837      89.829893      14348.144      362.14398      13951.415      1.3723177      0.65163525   
     38400  -9086.9489     -9176.716       89.767094      15609.294      361.89081      13922.053      1.3752121      0.65163525   
     38500  -9088.2277     -9178.8976      90.669842      17185.938      365.53018      13902.67       1.3771293      0.65163525   
     38600  -9087.8361     -9178.0602      90.224106      16416.208      363.73323      13896.644      1.3777265      0.65163525   
     38700  -9088.5266     -9177.728       89.201354      15508.266      359.61006      13907.453      1.3766557      0.65163525   
     38800  -9088.0926     -9178.0338      89.94122       17467.851      362.59279      13931.149      1.3743141      0.65163525   
     38900  -9088.4845     -9176.857       88.372476      13512.847      356.26849      13961.159      1.37136        0.65163525   
     39000  -9088.1335     -9181.1628      93.029339      11700.937      375.04236      13989.321      1.3685993      0.67519907   
     39100  -9088.9996     -9181.1458      92.146221      12788.938      371.48212      14010.5        1.3665304      0.67519907   
     39200  -9089.7948     -9179.7972      90.002343      16531.216      362.8392       14022.229      1.3653874      0.67519907   
     39300  -9090.3146     -9177.6509      87.336361      15300.831      352.09145      14019.444      1.3656586      0.67519907   
     39400  -9087.4491     -9178.3707      90.921519      14405.995      366.54481      14004.608      1.3671054      0.67519907   
     39500  -9086.2964     -9176.279       89.982628      13106.232      362.75972      13983.589      1.3691603      0.67519907   
     39600  -9086.9076     -9176.1601      89.252564      14327.069      359.81651      13962.781      1.3712006      0.67519907   
     39700  -9085.7686     -9178.0877      92.319148      14484.738      372.17927      13944.643      1.3729842      0.67519907   
     39800  -9087.117      -9176.6908      89.573803      18577.928      361.11157      13932.56       1.374175       0.67519907   
     39900  -9088.6667     -9179.0263      90.359606      14983.22       364.27949      13927.786      1.374646       0.67519907   
     40000  -9089.5858     -9179.1732      89.587395      11975.646      361.16636      13929.818      1.3744455      0.65080351   
     40100  -9089.328      -9177.4566      88.128581      15333.277      355.28524      13935.794      1.373856       0.65080351   
     40200  -9088.3454     -9178.6111      90.265628      17349.52       363.90062      13943.494      1.3730974      0.65080351   
     40300  -9088.042      -9176.4119      88.369902      17355.189      356.25811      13953.735      1.3720896      0.65080351   
     40400  -9087.1875     -9176.1663      88.978762      15368.107      358.7127       13964.312      1.3710503      0.65080351   
     40500  -9088.6572     -9178.6677      90.010559      17120.667      362.87232      13974.437      1.3700569      0.65080351   
     40600  -9088.5084     -9178.8258      90.317387      17640.843      364.10928      13977.178      1.3697882      0.65080351   
     40700  -9088.5983     -9178.5333      89.934975      13093.47       362.56761      13976.548      1.36985        0.65080351   
     40800  -9087.1974     -9176.1848      88.987408      12698.313      358.74755      13977.022      1.3698036      0.65080351   
     40900  -9086.1457     -9176.6104      90.464709      12695.136      364.7032       13975.499      1.3699528      0.65080351   
     41000  -9085.9058     -9173.8342      87.928344      14215.272      354.47799      13972.604      1.3702367      0.72003573   
     41100  -9085.3926     -9178.363       92.970459      16269.388      374.80499      13974.547      1.3700462      0.72003573   
     41200  -9085.2445     -9176.0733      90.828746      14062.311      366.1708       13974.002      1.3700996      0.72003573   
     41300  -9088.092      -9178.2764      90.184408      13357.546      363.57319      13971.329      1.3703618      0.72003573   
     41400  -9089.4586     -9180.6231      91.164537      13302.721      367.52452      13967.341      1.370753       0.72003573   
     41500  -9088.2947     -9176.4047      88.109931      14442.778      355.21005      13957.631      1.3717066      0.72003573   
     41600  -9088.098      -9176.4042      88.306238      15583.943      356.00145      13950.603      1.3723977      0.72003573   
     41700  -9087.9137     -9177.9761      90.062427      11997.336      363.08143      13947.341      1.3727187      0.72003573   
     41800  -9087.2856     -9176.2093      88.923774      16705.153      358.49101      13947.949      1.3726587      0.72003573   
     41900  -9085.7178     -9179.5791      93.861278      15539.641      378.39627      13954.582      1.3720063      0.72003573   
     42000  -9089.5826     -9179.5321      89.949552      14394.018      362.62638      13964.363      1.3710453      0.63623108   
     42100  -9088.6133     -9178.7365      90.123126      16143.039      363.32613      13968.916      1.3705984      0.63623108   
     42200  -9090.0314     -9179.9953      89.963938      17316.236      362.68437      13967.073      1.3707793      0.63623108   
     42300  -9090.3151     -9179.645       89.329811      15706.495      360.12793      13960.352      1.3714393      0.63623108   
     42400  -9088.923      -9178.0225      89.099558      15614.717      359.19968      13952.817      1.3721799      0.63623108   
     42500  -9090.0271     -9179.5402      89.513108      14470.355      360.86688      13944.44       1.3730042      0.63623108   
     42600  -9088.988      -9178.1766      89.188609      12182.553      359.55868      13934.577      1.373976       0.63623108   
     42700  -9089.9025     -9176.9975      87.095024      14597.907      351.11852      13924.998      1.3749212      0.63623108   
     42800  -9086.7409     -9176.7318      89.990908      14278.095      362.7931       13920.509      1.3753646      0.63623108   
     42900  -9089.912      -9179.083       89.171024      12948.862      359.48779      13924.075      1.3750124      0.63623108   
     43000  -9088.4819     -9177.7241      89.242157      14904.695      359.77455      13935.192      1.3739153      0.71053569   
     43100  -9087.644      -9176.7602      89.116267      14619.973      359.26704      13948.793      1.3725757      0.71053569   
     43200  -9088.69       -9177.1204      88.430434      14112.804      356.50214      13963.361      1.3711438      0.71053569   
     43300  -9087.4933     -9174.8186      87.32529       13167.916      352.04682      13978.429      1.3696657      0.71053569   
     43400  -9087.8653     -9178.8566      90.991332      11861.086      366.82625      13992.538      1.3682846      0.71053569   
     43500  -9087.8031     -9177.6049      89.80178       14336.019      362.03064      13998.792      1.3676733      0.71053569   
     43600  -9084.5336     -9175.3603      90.826657      18106.63       366.16238      13995.942      1.3679519      0.71053569   
     43700  -9082.9493     -9174.1439      91.194597      16879.645      367.6457       13993.342      1.368206       0.71053569   
     43800  -9085.541      -9178.207       92.665957      15200.54       373.57741      13995.185      1.3680258      0.71053569   
     43900  -9086.4912     -9177.1955      90.704292      11902.536      365.66907      13994.595      1.3680836      0.71053569   
     44000  -9087.3782     -9176.176       88.797845      14589.242      357.98334      13988.118      1.368717       0.64986366   
     44100  -9084.0317     -9177.4395      93.407855      16399.045      376.56833      13975.557      1.3699471      0.64986366   
     44200  -9085.5644     -9175.4047      89.840327      14060.773      362.18604      13962.59       1.3712194      0.64986366   
     44300  -9085.267      -9175.3747      90.107713      15171.121      363.26399      13953.638      1.3720992      0.64986366   
     44400  -9087.0148     -9178.3944      91.379601      14092.294      368.39154      13945.425      1.3729072      0.64986366   
     44500  -9088.8457     -9177.3603      88.514617      15639.184      356.84152      13937.501      1.3736878      0.64986366   
     44600  -9089.338      -9178.4855      89.147475      17170.788      359.39285      13931.775      1.3742524      0.64986366   
     44700  -9090.5277     -9179.9804      89.452733      14370.171      360.62348      13929.705      1.3744566      0.64986366   
     44800  -9091.922      -9180.8419      88.91986       14918.271      358.47523      13928.138      1.3746112      0.64986366   
     44900  -9091.598      -9178.9278      87.329769      14794.252      352.06487      13931.634      1.3742662      0.64986366   
     45000  -9091.9299     -9177.423       85.493073      14087.946      344.66034      13944.015      1.373046       0.68656222   
     45100  -9092.8169     -9181.8141      88.997182      14469.945      358.78695      13958.97       1.371575       0.68656222   
     45200  -9093.1278     -9181.4294      88.301552      16475.332      355.98256      13970.542      1.370439       0.68656222   
     45300  -9092.4317     -9178.4219      85.990197      13488.069      346.66447      13977.875      1.36972        0.68656222   
     45400  -9092.9097     -9179.912       87.002279      15141.749      350.74462      13986.2        1.3689047      0.68656222   
     45500  -9091.374      -9179.4431      88.069128      14522.519      355.04556      13985.598      1.3689636      0.68656222   
     45600  -9092.3556     -9180.8965      88.540911      13338.5        356.94752      13980.446      1.3694681      0.68656222   
     45700  -9090.8509     -9176.8964      86.045532      14661.43       346.88755      13970.55       1.3704382      0.68656222   
     45800  -9090.1889     -9179.6086      89.419785      12810.084      360.49065      13960.512      1.3714235      0.68656222   
     45900  -9090.5872     -9178.773       88.1858        14458.267      355.51591      13949.056      1.3725498      0.68656222   
     46000  -9089.2018     -9178.8497      89.647838      15362.065      361.41004      13936.817      1.3737552      0.75527823   
     46100  -9090.049      -9178.7849      88.735942      17525.187      357.73378      13929.215      1.3745049      0.75527823   
     46200  -9088.9157     -9177.5939      88.678183      13016.087      357.50093      13930.541      1.3743741      0.75527823   
     46300  -9088.3796     -9178.336       89.956457      15283.734      362.65422      13940.874      1.3733554      0.75527823   
     46400  -9087.1078     -9177.0939      89.98612       13796.551      362.7738       13957.239      1.3717451      0.75527823   
     46500  -9090.253      -9176.2392      85.986216      14086.932      346.64842      13975.55       1.3699479      0.75527823   
     46600  -9088.8622     -9181.3519      92.489745      10688.086      372.86702      13990.566      1.3684775      0.75527823   
     46700  -9087.884      -9177.4707      89.586644      11826.203      361.16334      13993.704      1.3681706      0.75527823   
     46800  -9089.0126     -9178.9037      89.891082      15387.096      362.39066      13989.195      1.3686116      0.75527823   
     46900  -9088.4418     -9176.8015      88.359652      13761.294      356.21679      13976.154      1.3698886      0.75527823   
     47000  -9089.6105     -9177.4702      87.85964       14601.378      354.20102      13959.422      1.3715307      0.67967154   
     47100  -9087.5682     -9179.0251      91.456897      16883.491      368.70315      13942.632      1.3731822      0.67967154   
     47200  -9087.9401     -9176.5527      88.61267       15107.517      357.23682      13931.181      1.3743109      0.67967154   
     47300  -9087.5229     -9176.2262      88.703295      13246.102      357.60216      13928.587      1.3745669      0.67967154   
     47400  -9086.397      -9176.0059      89.608957      15879.077      361.25329      13938.21       1.3736179      0.67967154   
     47500  -9085.944      -9177.6844      91.740403      15284.783      369.84609      13958.419      1.3716291      0.67967154   
     47600  -9086.5569     -9176.8554      90.298491      13413.937      364.0331       13977.497      1.369757       0.67967154   
     47700  -9088.3578     -9178.183       89.825188      13171.936      362.12501      13999.88       1.367567       0.67967154   
     47800  -9090.9019     -9178.9461      88.044128      14306.496      354.94477      14018.03       1.3657963      0.67967154   
     47900  -9089.9191     -9178.414       88.494918      14153.358      356.76211      14024.968      1.3651207      0.67967154   
     48000  -9088.6995     -9175.6279      86.928423      11372.952      350.44687      14021.091      1.3654983      0.74817914   
     48100  -9089.7897     -9176.6638      86.8741        12467.202      350.22787      14005.492      1.3670191      0.74817914   
     48200  -9089.4635     -9180.2798      90.816325      12872.832      366.12072      13985.191      1.3690034      0.74817914   
     48300  -9089.2719     -9177.3691      88.097157      16572.179      355.15855      13962.987      1.3711805      0.74817914   
     48400  -9088.6166     -9180.0323      91.415691      16785.332      368.53703      13943.513      1.3730955      0.74817914   
     48500  -9089.9898     -9179.2743      89.284513      15310.361      359.94531      13925.909      1.3748312      0.74817914   
     48600  -9089.4015     -9176.0528      86.651335      18068.532      349.32981      13912.175      1.3761884      0.74817914   
     48700  -9089.366      -9179.3095      89.943552      15804.029      362.60219      13909.116      1.3764911      0.74817914   
     48800  -9090.7453     -9180.4636      89.718346      18107.05       361.69428      13916.925      1.3757188      0.74817914   
     48900  -9088.8758     -9178.1506      89.274839      14803.886      359.90631      13932.335      1.3741971      0.74817914   
     49000  -9086.6744     -9175.5697      88.895246      13494.717      358.376        13952.559      1.3722052      0.65833954   
     49100  -9088.4676     -9178.6061      90.138524      14559.474      363.38821      13982.625      1.3692546      0.65833954   
     49200  -9091.3832     -9180.5951      89.211848      14415.815      359.65237      14010.468      1.3665335      0.65833954   
     49300  -9090.6771     -9179.5561      88.879008      14668.864      358.31054      14023.087      1.3653038      0.65833954   
     49400  -9088.7323     -9178.0814      89.349062      9921.5375      360.20554      14014.49       1.3661414      0.65833954   
     49500  -9088.3425     -9179.6027      91.260246      12125.801      367.91036      13990.139      1.3685193      0.65833954   
     49600  -9089.9859     -9177.9068      87.920974      16894.2        354.44828      13957.438      1.3717255      0.65833954   
     49700  -9087.8266     -9179.5237      91.69709       13915.84       369.67147      13921.034      1.3753127      0.65833954   
     49800  -9088.8137     -9177.6829      88.869216      13665.013      358.27106      13890.177      1.378368       0.65833954   
     49900  -9087.0429     -9178.5511      91.508144      15456.312      368.90975      13873.716      1.3800033      0.65833954   
     50000  -9086.9712     -9177.3529      90.381702      14406.141      364.36856      13876.47       1.3797295      0.66121832   
     50100  -9086.886      -9178.8515      91.965489      11675.32       370.75351      13899.657      1.3774278      0.66121832   
     50200  -9088.3306     -9177.1661      88.835434      16444.545      358.13487      13934.943      1.3739399      0.66121832   
     50300  -9089.4687     -9181.8184      92.349704      13915.944      372.30245      13976.991      1.3698066      0.66121832   
     50400  -9091.0127     -9179.8936      88.88093       14384.134      358.31829      14012.703      1.3663156      0.66121832   
     50500  -9088.5238     -9177.3074      88.783655      13705.279      357.92613      14035.588      1.3640879      0.66121832   
     50600  -9088.3514     -9176.319       87.967562      17954.836      354.6361       14045.746      1.3631013      0.66121832   
     50700  -9089.0249     -9177.9335      88.908598      16398.874      358.42983      14039.866      1.3636722      0.66121832   
     50800  -9087.7708     -9178.0005      90.229742      14421.416      363.75595      14013.258      1.3662615      0.66121832   
     50900  -9088.3431     -9178.0864      89.743297      13123.427      361.79487      13974.123      1.3700878      0.66121832   
     51000  -9085.9499     -9177.0279      91.077997      18069.246      367.17564      13934.393      1.3739942      0.67196467   
     51100  -9086.6141     -9177.9562      91.342082      17055.387      368.24028      13908.599      1.3765423      0.67196467   
     51200  -9089.8136     -9179.1588      89.345225      13973.718      360.19007      13899.538      1.3774396      0.67196467   
     51300  -9088.9741     -9179.1604      90.1863        14541.816      363.58081      13901          1.3772948      0.67196467   
     51400  -9091.8808     -9180.4416      88.560809      18127.155      357.02774      13907.588      1.3766424      0.67196467   
     51500  -9092.0688     -9179.5996      87.530809      16166.193      352.87536      13918.032      1.3756093      0.67196467   
     51600  -9092.4743     -9181.2138      88.73949       16911.016      357.74808      13927.632      1.3746612      0.67196467   
     51700  -9091.8324     -9179.91        88.077557      17024.482      355.07954      13935.957      1.3738399      0.67196467   
     51800  -9092.899      -9180.3081      87.409067      15704.421      352.38456      13942.554      1.3731899      0.67196467   
     51900  -9090.8652     -9179.9959      89.13062       17910.298      359.3249       13950.087      1.3724485      0.67196467   
     52000  -9090.8277     -9183.0609      92.233202      15995.47       371.83278      13955.638      1.3719025      0.67966637   
     52100  -9091.8046     -9179.5986      87.793982      13466.774      353.93632      13954.571      1.3720074      0.67966637   
     52200  -9088.3667     -9179.2543      90.887584      14784.515      366.408        13951.897      1.3722703      0.67966637   
     52300  -9087.9618     -9176.447       88.485245      18415.73       356.72311      13950.867      1.3723717      0.67966637   
     52400  -9090.8669     -9177.9228      87.055885      17232.05       350.96073      13951.77       1.3722829      0.67966637   
     52500  -9090.3198     -9180.2286      89.908802      14552.289      362.4621       13954.716      1.3719931      0.67966637   
     52600  -9090.4991     -9177.7479      87.248843      17255.098      351.73863      13958.602      1.3716111      0.67966637   
     52700  -9090.0369     -9178.734       88.697099      15205.681      357.57718      13964.507      1.3710312      0.67966637   
     52800  -9089.5189     -9178.5128      88.993839      15654.365      358.77348      13973.595      1.3701395      0.67966637   
     52900  -9089.0835     -9177.763       88.679544      16759.756      357.50641      13980.402      1.3694724      0.67966637   
     53000  -9088.1531     -9178.1145      89.961436      11753.221      362.67429      13982.083      1.3693077      0.67682116   
     53100  -9088.4976     -9175.9903      87.492736      13706.135      352.72187      13978.734      1.3696358      0.67682116   
     53200  -9087.0932     -9177.5924      90.499159      15376.636      364.84209      13973.022      1.3701957      0.67682116   
     53300  -9089.3219     -9179.5586      90.236678      14241.109      363.78391      13966.963      1.3707901      0.67682116   
     53400  -9090.8439     -9180.1414      89.297477      13708.653      359.99757      13959.05       1.3715672      0.67682116   
     53500  -9090.3478     -9178.4268      88.079016      12735.53       355.08542      13945.59       1.3728909      0.67682116   
     53600  -9091.1936     -9178.6962      87.50267       12862.139      352.76191      13927.189      1.3747049      0.67682116   
     53700  -9088.5581     -9178.0871      89.529059      13028.61       360.93119      13910.096      1.3763941      0.67682116   
     53800  -9088.6993     -9179.5113      90.812035      15980.221      366.10343      13899.106      1.3774824      0.67682116   
     53900  -9089.1067     -9178.2626      89.1559        15695.414      359.42681      13896.273      1.3777633      0.67682116   
     54000  -9089.5257     -9179.618       90.092349      16594.597      363.20206      13908.927      1.3765098      0.77931988   
     54100  -9092.7458     -9180.7554      88.009615      15398.59       354.80563      13932.014      1.3742288      0.77931988   
     54200  -9090.3618     -9180.7385      90.37666       15719.094      364.34824      13957.451      1.3717243      0.77931988   
     54300  -9090.7412     -9179.1168      88.375613      13229.516      356.28113      13977.228      1.3697834      0.77931988   
     54400  -9090.1321     -9176.5777      86.445619      12382.494      348.50047      13984.954      1.3690267      0.77931988   
     54500  -9089.7718     -9178.2347      88.462915      12045.021      356.63309      13980.944      1.3694193      0.77931988   
     54600  -9089.4888     -9179.9428      90.454037      15050.837      364.66018      13962.561      1.3712223      0.77931988   
     54700  -9087.5371     -9177.7531      90.216015      18063.041      363.70061      13936.251      1.373811       0.77931988   
     54800  -9089.1446     -9178.728       89.583476      18367.712      361.15056      13910.347      1.3763693      0.77931988   
     54900  -9087.9054     -9180.013       92.107598      15458.427      371.32641      13893.418      1.3780464      0.77931988   
     55000  -9090.4808     -9179.0977      88.616823      15227.113      357.25356      13887.677      1.3786161      0.65714294   
     55100  -9091.1819     -9180.1875      89.005565      15675.318      358.82075      13890.668      1.3783192      0.65714294   
     55200  -9090.3644     -9178.2355      87.87112       13410.24       354.2473       13900.803      1.3773143      0.65714294   
     55300  -9090.3694     -9177.4942      87.124721      14574.435      351.23824      13916.088      1.3758014      0.65714294   
     55400  -9089.5165     -9177.3425      87.825952      12991.637      354.06521      13938.241      1.3736148      0.65714294   
     55500  -9090.0461     -9180.1511      90.105073      13674.957      363.25335      13964.656      1.3710166      0.65714294   
     55600  -9088.8873     -9177.4102      88.522896      14849.52       356.8749       13986.943      1.3688319      0.65714294   
     55700  -9087.3823     -9175.2979      87.915603      15754.149      354.42663      14004.696      1.3670968      0.65714294   
     55800  -9089.0864     -9179.3399      90.253489      12794.634      363.85168      14012.448      1.3663405      0.65714294   
     55900  -9088.8918     -9180.242       91.350217      16066.54       368.27308      14004.703      1.3670961      0.65714294   
     56000  -9088.2627     -9179.3899      91.127216      14574.15       367.37406      13983.893      1.3691305      0.67777785   
     56100  -9089.4438     -9178.2288      88.78491       14870.758      357.93119      13950.928      1.3723657      0.67777785   
     56200  -9089.7933     -9179.6154      89.822086      15597.109      362.11251      13915.652      1.3758446      0.67777785   
     56300  -9090.2244     -9178.248       88.023604      15232.743      354.86203      13888.365      1.3785478      0.67777785   
     56400  -9090.1237     -9177.0601      86.936428      14374.88       350.47914      13872.352      1.3801391      0.67777785   
     56500  -9089.6724     -9180.1648      90.492349      15496.304      364.81463      13870.672      1.3803062      0.67777785   
     56600  -9090.669      -9176.5339      85.864984      11762.572      346.15968      13881.927      1.3791871      0.67777785   
     56700  -9089.7648     -9176.9398      87.175028      15552.862      351.44105      13904.327      1.3769652      0.67777785   
     56800  -9091.1167     -9179.2549      88.13821       16922.945      355.32406      13935.254      1.3739093      0.67777785   
     56900  -9088.4147     -9176.616       88.201209      15724.045      355.57803      13969.478      1.3705433      0.67777785   
     57000  -9087.2631     -9176.888       89.624857      12758.673      361.31739      14007.935      1.3667807      0.68393634   
     57100  -9091.1196     -9178.7662      87.646534      12970.792      353.34189      14040.048      1.3636545      0.68393634   
     57200  -9093.0849     -9179.2196      86.134734      12735.826      347.24716      14052.681      1.3624286      0.68393634   
[...]
    386300  -9089.2041     -9175.777       86.572887      16212.641      349.01355      13896.556      1.3777352      0.69418806   
    386400  -9090.2        -9176.7418      86.541838      15900.65       348.88838      13897.511      1.3776406      0.69418806   
    386500  -9091.7531     -9180.5955      88.842394      13722.13       358.16293      13914.496      1.3759589      0.69418806   
    386600  -9094.1829     -9181.42        87.237132      17100.295      351.69141      13936.935      1.3737435      0.69418806   
    386700  -9095.4765     -9182.8943      87.417748      15122.577      352.41956      13957.719      1.3716979      0.69418806   
    386800  -9095.2576     -9184.24        88.982408      15561.776      358.72739      13969.597      1.3705316      0.69418806   
    386900  -9094.2035     -9182.0007      87.797208      15289.341      353.94933      13971.017      1.3703923      0.69418806   
    387000  -9092.3091     -9182.5768      90.267719      17456.02       363.90905      13965.021      1.3709808      0.68594272   
    387100  -9093.3992     -9180.5735      87.174339      15233.268      351.43827      13952.306      1.3722302      0.68594272   
    387200  -9095.128      -9181.2554      86.127355      15416.994      347.21741      13937.356      1.3737021      0.68594272   
    387300  -9092.7565     -9182.4515      89.694916      14889.547      361.59983      13921.722      1.3752447      0.68594272   
    387400  -9091.4074     -9179.5184      88.111054      18795.819      355.21458      13911.055      1.3762992      0.68594272   
    387500  -9089.9044     -9179.2681      89.363638      16329.221      360.2643       13909.342      1.3764687      0.68594272   
    387600  -9088.2736     -9177.1948      88.921183      14216.076      358.48057      13914.848      1.3759241      0.68594272   
    387700  -9090.3896     -9179.3666      88.976966      14441.791      358.70545      13929.651      1.3744619      0.68594272   
    387800  -9091.4821     -9181.4005      89.918381      15940.035      362.50071      13947.879      1.3726657      0.68594272   
    387900  -9091.4688     -9177.9873      86.518578      16029.586      348.7946       13962.761      1.3712026      0.68594272   
    388000  -9089.6849     -9179.3254      89.64048       17324.272      361.38037      13977.938      1.3697138      0.69805033   
    388100  -9091.2157     -9177.5679      86.352188      14976.169      348.12382      13993.645      1.3681764      0.69805033   
    388200  -9092.0539     -9179.5736      87.519752      16489.757      352.83078      14000.985      1.3674591      0.69805033   
    388300  -9092.1086     -9181.2178      89.109253      12631.536      359.23876      13997.187      1.3678301      0.69805033   
    388400  -9092.6649     -9181.0061      88.341113      14919.365      356.14205      13980.135      1.3694986      0.69805033   
    388500  -9091.7351     -9180.355       88.619876      14165.582      357.26587      13952.512      1.3722098      0.69805033   
    388600  -9090.5839     -9177.8713      87.287397      13209.031      351.89405      13921.155      1.3753007      0.69805033   
    388700  -9090.1728     -9182.9332      92.760352      14185.072      373.95795      13895.613      1.3778287      0.69805033   
    388800  -9091.4375     -9177.7852      86.347741      14351.741      348.10589      13880.144      1.3793642      0.69805033   
    388900  -9091.3817     -9180.7419      89.360169      14072.326      360.25032      13883.053      1.3790753      0.69805033   
    389000  -9092.7596     -9179.9985      87.238891      15984.073      351.69851      13901.705      1.3772249      0.68446606   
    389100  -9089.6572     -9179.9586      90.301413      13407.858      364.04488      13928.733      1.3745525      0.68446606   
    389200  -9090.5891     -9181.2864      90.69731       13868.049      365.64092      13957.646      1.3717052      0.68446606   
    389300  -9090.1185     -9181.1376      91.019065      14002.217      366.93806      13979.334      1.369577       0.68446606   
    389400  -9090.4889     -9179.177       88.688039      15093.378      357.54066      13991.704      1.3683662      0.68446606   
    389500  -9090.12       -9176.8941      86.774047      14871.36       349.82451      13992.362      1.3683018      0.68446606   
    389600  -9090.1229     -9178.421       88.298111      15562.541      355.96869      13980.286      1.3694838      0.68446606   
    389700  -9088.8838     -9177.7494      88.865612      15087.565      358.25654      13960.151      1.3714589      0.68446606   
    389800  -9091.2146     -9180.6089      89.394236      17054.871      360.38765      13935.746      1.3738607      0.68446606   
    389900  -9091.7929     -9179.0879      87.294916      14271.168      351.92437      13909.378      1.3764651      0.68446606   
    390000  -9092.8022     -9180.9406      88.138408      14876.691      355.32486      13886.127      1.37877        0.70720004   
    390100  -9090.744      -9178.3696      87.625525      17561.883      353.2572       13870.19       1.3803541      0.70720004   
    390200  -9092.1533     -9180.6618      88.508446      18000.779      356.81664      13865.487      1.3808224      0.70720004   
    390300  -9092.7422     -9179.7568      87.014547      12754.228      350.79407      13869.251      1.3804477      0.70720004   
    390400  -9090.1137     -9178.6696      88.555935      12273.99       357.00809      13887.156      1.3786678      0.70720004   
    390500  -9093.3745     -9183.5671      90.192531      13444.931      363.60593      13917.291      1.3756826      0.70720004   
    390600  -9093.915      -9183.3141      89.399046      14047.958      360.40704      13948.044      1.3726494      0.70720004   
    390700  -9093.1128     -9180.1373      87.024555      13675.87       350.83442      13971.505      1.3703444      0.70720004   
    390800  -9090.7017     -9177.1709      86.46921       13421.618      348.59558      13982.716      1.3692457      0.70720004   
    390900  -9091.1163     -9180.9652      89.848998      11362.195      362.221        13984.526      1.3690685      0.70720004   
    391000  -9092.9616     -9181.9197      88.958058      15451.787      358.62923      13972.946      1.3702031      0.68850791   
    391100  -9093.6189     -9180.8352      87.216352      14276.319      351.60764      13947.654      1.3726878      0.68850791   
    391200  -9093.2062     -9179.7512      86.545065      14484.518      348.90138      13913.576      1.3760499      0.68850791   
    391300  -9091.7056     -9180.4832      88.777529      14450.916      357.90144      13880.555      1.3793234      0.68850791   
    391400  -9091.4046     -9180.3189      88.914346      17481.545      358.453        13855.863      1.3817814      0.68850791   
    391500  -9092.7771     -9181.0054      88.228361      11677.282      355.6875       13842.588      1.3831066      0.68850791   
    391600  -9093.3112     -9180.95        87.638814      13065.472      353.31077      13840.592      1.3833061      0.68850791   
    391700  -9092.8197     -9180.63        87.810333      15453.496      354.00224      13850.683      1.3822983      0.68850791   
    391800  -9090.8544     -9181.6577      90.803302      16858.134      366.06822      13873.38       1.3800368      0.68850791   
    391900  -9091.7364     -9180.3654      88.628922      13764.436      357.30233      13903.911      1.3770064      0.68850791   
    392000  -9092.9609     -9180.0914      87.130561      15614.293      351.26178      13936.287      1.3738074      0.71932961   
    392100  -9088.9837     -9180.4339      91.450191      15758.343      368.67611      13960.879      1.3713875      0.71932961   
    392200  -9090.3967     -9179.0007      88.604003      15163.126      357.20188      13973.642      1.3701349      0.71932961   
    392300  -9089.544      -9176.5362      86.992159      14527.098      350.70382      13972.832      1.3702144      0.71932961   
    392400  -9089.9763     -9176.8097      86.833373      15923.789      350.06368      13959.531      1.3715199      0.71932961   
    392500  -9091.1981     -9180.6858      89.487709      14984.587      360.76448      13934.13       1.3740201      0.71932961   
    392600  -9092.1826     -9179.921       87.738377      12516.856      353.71215      13902.042      1.3771916      0.71932961   
    392700  -9091.7873     -9180.0092      88.221885      14600.428      355.66139      13872.254      1.3801488      0.71932961   
    392800  -9091.7552     -9179.8491      88.093886      16579.601      355.14537      13850.819      1.3822846      0.71932961   
    392900  -9092.5063     -9180.4664      87.960056      17738.462      354.60584      13844.715      1.3828941      0.71932961   
    393000  -9089.331      -9177.9193      88.58829       17249.804      357.13853      13855.704      1.3817973      0.6763713    
    393100  -9091.3131     -9179.7054      88.392324      12827.086      356.3485       13883.069      1.3790736      0.6763713    
    393200  -9090.1094     -9180.5844      90.474948      13586.302      364.74448      13922.896      1.3751288      0.6763713    
    393300  -9091.2086     -9180.9243      89.715709      14952.266      361.68365      13966.559      1.3708297      0.6763713    
    393400  -9090.0451     -9179.869       89.823842      14595.572      362.11958      14004.671      1.3670992      0.6763713    
    393500  -9088.211      -9177.6099      89.39894       16863.934      360.40662      14031.192      1.3645152      0.6763713    
    393600  -9088.2309     -9179.1774      90.946467      13267.863      366.64538      14045.108      1.3631632      0.6763713    
    393700  -9090.1761     -9178.2848      88.108639      12505.355      355.20484      14038.155      1.3638384      0.6763713    
    393800  -9090.4889     -9179.8628      89.373876      14990.787      360.30557      14013.962      1.3661928      0.6763713    
    393900  -9090.9542     -9179.4253      88.471122      14511.017      356.66617      13976.179      1.3698862      0.6763713    
    394000  -9092.0122     -9179.4519      87.439718      14374.043      352.50813      13930.925      1.3743363      0.654171     
    394100  -9090.8441     -9177.8115      86.967417      14182.638      350.60407      13890.167      1.378369       0.654171     
    394200  -9091.6441     -9179.9027      88.25863       14903.281      355.80953      13861.629      1.3812067      0.654171     
    394300  -9093.3437     -9182.2009      88.857274      15302.237      358.22292      13849.655      1.3824008      0.654171     
    394400  -9092.1633     -9180.2407      88.077312      15392.027      355.07855      13852.376      1.3821293      0.654171     
    394500  -9092.6411     -9179.481       86.839866      16952.964      350.08986      13871.405      1.3802333      0.654171     
    394600  -9094.6025     -9179.9681      85.365633      14913.255      344.14657      13908.383      1.3765637      0.654171     
    394700  -9094.6826     -9181.7494      87.066793      13698.399      351.0047       13947.233      1.3727292      0.654171     
    394800  -9093.9652     -9182.102       88.136814      12464.901      355.31843      13975.508      1.3699519      0.654171     
    394900  -9094.0657     -9182.035       87.96932       10701.439      354.64319      13990.412      1.3684925      0.654171     
    395000  -9092.1579     -9181.543       89.385113      15420.602      360.35087      13992.739      1.3682649      0.79186087   
    395100  -9089.6152     -9179.9276      90.312377      15800.934      364.08908      13979.365      1.369574       0.79186087   
    395200  -9089.0489     -9178.2736      89.224682      16168.46       359.70411      13952.684      1.372193       0.79186087   
    395300  -9088.0882     -9175.525       87.436791      14994.586      352.49633      13927.088      1.3747149      0.79186087   
    395400  -9088.3452     -9179.5907      91.245475      17292.208      367.85081      13910          1.3764037      0.79186087   
    395500  -9090.9777     -9179.0875      88.109895      16007.628      355.20991      13904.343      1.3769637      0.79186087   
    395600  -9090.7326     -9180.0157      89.283135      16908.603      359.93976      13911.77       1.3762285      0.79186087   
    395700  -9089.7064     -9178.0707      88.364286      16088.054      356.23547      13931.225      1.3743066      0.79186087   
    395800  -9086.7516     -9177.6381      90.886536      15046.063      366.40378      13959.348      1.3715379      0.79186087   
    395900  -9089.054      -9176.9751      87.921098      15125.368      354.44878      13994.283      1.368114       0.79186087   
    396000  -9091.1741     -9180.2147      89.040647      14914.762      358.96218      14031.854      1.3644508      0.73992397   
    396100  -9094.4369     -9182.2033      87.766424      14722.585      353.82522      14060.042      1.3617153      0.73992397   
    396200  -9093.5838     -9179.8912      86.307351      13581.136      347.94306      14064.788      1.3612559      0.73992397   
    396300  -9093.5381     -9180.5647      87.026592      13097.868      350.84264      14043.296      1.3633391      0.73992397   
    396400  -9092.2175     -9179.5665      87.348953      13294.639      352.14221      13999.34       1.3676198      0.73992397   
    396500  -9094.2222     -9182.1633      87.941097      11391.116      354.52941      13941.64       1.37328        0.73992397   
    396600  -9092.2563     -9179.9119      87.655595      14393.314      353.37842      13883.566      1.3790243      0.73992397   
    396700  -9095.2071     -9181.3076      86.10047       16657.183      347.10903      13843.866      1.3829789      0.73992397   
    396800  -9094.9945     -9183.917       88.922466      19130.226      358.48574      13826.046      1.3847614      0.73992397   
    396900  -9094.1594     -9181.1853      87.02594       19022.001      350.84001      13831.252      1.3842402      0.73992397   
    397000  -9092.3931     -9180.7569      88.363789      18325.861      356.23347      13859.997      1.3813693      0.67578195   
    397100  -9090.8826     -9180.025       89.142438      16298.025      359.37254      13906.065      1.3767931      0.67578195   
    397200  -9090.3677     -9178.7874      88.41967       15774.692      356.45875      13957.953      1.371675       0.67578195   
    397300  -9089.2713     -9178.5075      89.236219      13602.317      359.75062      14006.92       1.3668797      0.67578195   
    397400  -9086.2123     -9176.2205      90.008247      15142.769      362.863        14046.736      1.3630053      0.67578195   
    397500  -9088.3499     -9178.2397      89.889856      14529.931      362.38572      14073.615      1.3604021      0.67578195   
    397600  -9089.6482     -9179.8933      90.245137      13333.115      363.81801      14077.269      1.3600489      0.67578195   
    397700  -9090.8263     -9179.0539      88.227606      15040.841      355.68445      14055.125      1.3621917      0.67578195   
    397800  -9089.1647     -9179.3335      90.168811      16722.651      363.51031      14013.961      1.366193       0.67578195   
    397900  -9088.6912     -9177.6258      88.934621      14543.789      358.53474      13961.688      1.371308       0.67578195   
    398000  -9089.4291     -9178.7167      89.287565      14875.662      359.95761      13915.313      1.3758781      0.67844004   
    398100  -9089.9807     -9179.6045      89.623821      14854.396      361.31321      13881.473      1.3792322      0.67844004   
    398200  -9086.9264     -9179.2578      92.331404      15994.487      372.22868      13864.789      1.3808919      0.67844004   
    398300  -9088.6339     -9178.9191      90.285256      17534.971      363.97975      13870.588      1.3803146      0.67844004   
    398400  -9090.8968     -9177.0757      86.178901      17090.878      347.42522      13895.86       1.3778042      0.67844004   
    398500  -9092.276      -9179.5266      87.250596      16167.886      351.74569      13932.402      1.3741905      0.67844004   
    398600  -9092.1958     -9183.084       90.888179      14845.69       366.4104       13968.089      1.3706796      0.67844004   
    398700  -9089.0051     -9177.6671      88.662055      15114.651      357.43591      13993.859      1.3681554      0.67844004   
    398800  -9085.9198     -9177.2259      91.306075      12660.881      368.09512      14012.01       1.3663832      0.67844004   
    398900  -9086.9696     -9178.621       91.651348      14878.282      369.48707      14018.642      1.3657367      0.67844004   
    399000  -9088.6344     -9180.4309      91.796443      14752.804      370.07201      14015.825      1.3660113      0.67183535   
    399100  -9087.2314     -9176.0962      88.864826      12309.941      358.25337      14000.312      1.3675249      0.67183535   
    399200  -9084.3123     -9176.9106      92.598303      14606.241      373.30466      13978.681      1.369641       0.67183535   
    399300  -9084.1111     -9178.2287      94.117567      17891.415      379.42949      13959.604      1.3715127      0.67183535   
    399400  -9084.7199     -9176.1182      91.398373      14792.1        368.46721      13945.688      1.3728813      0.67183535   
    399500  -9086.009      -9174.8227      88.813717      13812.07       358.04733      13938.394      1.3735998      0.67183535   
    399600  -9085.5595     -9178.3679      92.808383      17340.87       374.15159      13938.76       1.3735637      0.67183535   
    399700  -9088.6042     -9179.5674      90.963169      14205.874      366.71272      13946.552      1.3727963      0.67183535   
    399800  -9091.0745     -9178.3961      87.321513      13089.364      352.03159      13955.371      1.3719288      0.67183535   
    399900  -9092.0704     -9178.5717      86.501355      11788.234      348.72517      13960.938      1.3713817      0.67183535   
    400000  -9091.1358     -9179.9782      88.842432      8813.0548      358.16309      13961.486      1.3713279      0.70003546   
    400100  -9089.3072     -9178.5483      89.241166      12699.246      359.77056      13958.086      1.3716619      0.70003546   
    400200  -9088.0407     -9178.0821      90.041404      16251.639      362.99667      13951.82       1.372278       0.70003546   
    400300  -9089.6443     -9176.413       86.768784      13519.71       349.8033       13948.597      1.3725951      0.70003546   
    400330  -9088.6251     -9179.9492      91.324095      16701.168      368.16777      13948.429      1.3726115      0.70003546   
Loop time of 548.879 on 4 procs for 200000 steps with 1920 atoms

Performance: 15.741 ns/day, 1.525 hours/ns, 364.379 timesteps/s, 699.608 katom-step/s
99.6% CPU use with 4 MPI tasks x 1 OpenMP threads

MPI task timing breakdown:
Section |  min time  |  avg time  |  max time  |%varavg| %total
---------------------------------------------------------------
Pair    | 275.02     | 277.99     | 280.01     |  11.7 | 50.65
Neigh   | 7.9399     | 8.037      | 8.1228     |   2.4 |  1.46
Comm    | 66.141     | 69.493     | 73.422     |  31.4 | 12.66
Output  | 0.31087    | 0.31702    | 0.324      |   0.9 |  0.06
Modify  | 188.99     | 190.64     | 191.95     |   9.7 | 34.73
Other   |            | 2.408      |            |       |  0.44

Nlocal:            480 ave         482 max         478 min
Histogram: 1 0 0 0 0 2 0 0 0 1
Nghost:         2691.5 ave        2698 max        2687 min
Histogram: 1 0 1 1 0 0 0 0 0 1
Neighs:              0 ave           0 max           0 min
Histogram: 4 0 0 0 0 0 0 0 0 0
FullNghs:      77256.5 ave       77538 max       76744 min
Histogram: 1 0 0 0 0 0 1 0 0 2

Total # of neighbors = 309026
Ave neighs/atom = 160.95104
Neighbor list builds = 20000
Dangerous builds = 20000
Total wall time: 0:18:19
