LAMMPS (29 Aug 2024 - Update 1)
OMP_NUM_THREADS environment is not set. Defaulting to 1 thread. (src/comm.cpp:98)
  using 1 OpenMP thread(s) per MPI task
Reading data file ...
  triclinic box = (0 0 0) to (18.047441 22.912981 19.549222) with tilt (-0.10697296 -6.2467562 -0.022549581)
  2 by 7 by 2 MPI processor grid
  reading atoms ...
  1008 atoms
  read_data CPU = 0.041 seconds
ACE/AL version: 2023.11.25
Loading /home/users/saadie5f/phase_diagram/pot_dir/interim_potential_ladder_step_1.yaml
Total number of basis functions
	H: 23 (r=1) 664 (r>1)
	O: 23 (r=1) 664 (r>1)
Mapping LAMMPS atom type #1(H) -> ACE species type #0
Mapping LAMMPS atom type #2(O) -> ACE species type #1
Loading ASI /home/users/saadie5f/phase_diagram/pot_dir/interim_potential_ladder_step_1.asi
LINEAR ASI is loaded

CITE-CITE-CITE-CITE-CITE-CITE-CITE-CITE-CITE-CITE-CITE-CITE-CITE

Your simulation uses code contributions which should be cited:
- Type Label Framework: https://doi.org/10.1021/acs.jpcb.3c08419
The log file lists these citations in BibTeX format.

CITE-CITE-CITE-CITE-CITE-CITE-CITE-CITE-CITE-CITE-CITE-CITE-CITE

Switching to 'neigh_modify every 1 delay 0 check yes' setting during minimization
Neighbor list info ...
  update: every = 1 steps, delay = 0 steps, check = yes
  max neighbors/atom: 2000, page size: 100000
  master list distance cutoff = 6.5
  ghost atom cutoff = 6.5
  binsize = 3.25, bins = 8 8 7
  1 neighbor lists, perpetual/occasional/extra = 1 0 0
  (1) pair pace/extrapolation, perpetual
      attributes: full, newton on
      pair build: full/bin/atomonly
      stencil: full/bin/3d
      bin: standard
Setting up cg style minimization ...
  Unit style    : metal
  Current step  : 0
Per MPI rank memory allocation (min/avg/max) = 4.348 | 4.35 | 4.351 Mbytes
   Step         TotEng         PotEng         KinEng         Press           Temp          Volume        Density     c_max_pace_gamma
         0  -4859.3795     -4859.3795      0             -15249.985      0              8084.0073      1.2433848      0.6550148    
       100  -4870.181      -4870.181       0             -8271.4786      0              8084.0073      1.2433848      0.6550148    
       200  -4870.1941     -4870.1941      0             -8252.9859      0              8084.0073      1.2433848      0.6550148    
       300  -4870.1942     -4870.1942      0             -8253.5114      0              8084.0073      1.2433848      0.6550148    
       340  -4870.1942     -4870.1942      0             -8253.6325      0              8084.0073      1.2433848      0.6550148    
Loop time of 6.81384 on 28 procs for 340 steps with 1008 atoms

99.4% CPU use with 28 MPI tasks x 1 OpenMP threads

Minimization stats:
  Stopping criterion = force tolerance
  Energy initial, next-to-last, final = 
     -4859.37950969087  -4870.19417354635  -4870.19417355022
  Force two-norm initial, final = 9.3928037 0.00045185036
  Force max component initial, final = 0.67588365 4.4621563e-05
  Final line search alpha, max atom move = 1 4.4621563e-05
  Iterations, force evaluations = 340 680

MPI task timing breakdown:
Section |  min time  |  avg time  |  max time  |%varavg| %total
---------------------------------------------------------------
Pair    | 5.4969     | 6.0422     | 6.5763     |  12.0 | 88.68
Neigh   | 0.00071707 | 0.0007812  | 0.00088087 |   0.0 |  0.01
Comm    | 0.14349    | 0.70895    | 1.286      |  36.3 | 10.40
Output  | 0.00026479 | 0.00027203 | 0.0003508  |   0.0 |  0.00
Modify  | 0.00083341 | 0.00099934 | 0.0012659  |   0.0 |  0.01
Other   |            | 0.06061    |            |       |  0.89

Nlocal:             36 ave          40 max          33 min
Histogram: 2 3 9 0 4 4 0 2 3 1
Nghost:           1014 ave        1031 max        1000 min
Histogram: 4 5 4 1 3 1 0 4 4 2
Neighs:              0 ave           0 max           0 min
Histogram: 28 0 0 0 0 0 0 0 0 0
FullNghs:      5234.93 ave        5831 max        4785 min
Histogram: 2 3 6 3 4 3 1 2 3 1

Total # of neighbors = 146578
Ave neighs/atom = 145.41468
Neighbor list builds = 5
Dangerous builds = 0
Setting up Verlet run ...
  Unit style    : metal
  Current step  : 340
  Time step     : 0.0005
Per MPI rank memory allocation (min/avg/max) = 3.489 | 3.491 | 3.492 Mbytes
   Step         TotEng         PotEng         KinEng         Press           Temp          Volume        Density     c_max_pace_gamma
       340  -4835.0496     -4870.1942      35.144541     -3610.081       270            8084.0073      1.2433848      0.6550148    
       400  -4832.293      -4853.9617      21.668685      3946.8209      166.47095      8064.0376      1.2464639      0.6550148    
       500  -4824.6343     -4845.1991      20.56481       2671.5233      157.99036      7970.7317      1.2610551      0.6550148    
       600  -4817.5366     -4842.326       24.789387      3310.3353      190.44592      7834.9862      1.2829036      0.6550148    
       700  -4811.6581     -4841.6805      30.022368      8748.3802      230.64861      7715.6677      1.3027429      0.6550148    
       800  -4809.8085     -4839.2326      29.424114      9294.5859      226.05249      7649.6784      1.3139809      0.6550148    
       900  -4808.1664     -4838.9402      30.77373       12936.593      236.42099      7645.9728      1.3146178      0.6550148    
      1000  -4805.7595     -4838.7476      32.988093      6593.5169      253.43296      7695.8409      1.3060992      0.72657786   
      1100  -4806.1577     -4837.8333      31.675594      7884.9782      243.34961      7785.6277      1.2910368      0.72657786   
      1200  -4806.1461     -4839.4416      33.295414      3470.4144      255.79397      7886.4542      1.2745312      0.72657786   
      1300  -4804.9892     -4836.7143      31.725066      1812.6417      243.72968      7974.3966      1.2604755      0.72657786   
      1400  -4805.0003     -4837.0234      32.023106      2952.6789      246.01939      8033.5651      1.2511919      0.72657786   
      1500  -4802.8823     -4835.0229      32.140679      3870.8377      246.92266      8057.7881      1.2474306      0.72657786   
      1600  -4800.7702     -4833.8884      33.118211      2186.7521      254.4326       8051.7688      1.2483632      0.72657786   
      1700  -4800.0288     -4834.6027      34.573877      1706.7419      265.61584      8022.8027      1.2528704      0.72657786   
      1800  -4798.3946     -4834.7932      36.398647      4872.2971      279.63474      7977.3361      1.2600111      0.72657786   
      1900  -4796.9939     -4832.8162      35.822241      3311.1772      275.20647      7935.2417      1.2666951      0.72657786   
      2000  -4797.7347     -4833.4151      35.680464      3229.7776      274.11726      7905.9659      1.2713857      0.78094804   
      2100  -4797.3026     -4833.6936      36.390906      4665.681       279.57527      7891.7851      1.2736702      0.78094804   
      2200  -4798.1394     -4833.5514      35.41205       8583.4285      272.05516      7897.7683      1.2727053      0.78094804   
      2300  -4799.1113     -4833.2223      34.11107       4808.7018      262.0603       7924.1706      1.2684648      0.78094804   
      2400  -4799.7293     -4834.0043      34.274954      2305.33        263.31935      7960.6792      1.2626475      0.78094804   
      2500  -4799.1295     -4834.0116      34.882105      6128.4894      267.98382      7991.9502      1.257707       0.78094804   
      2600  -4799.3603     -4834.8446      35.484245      3166.8063      272.6098       8015.2039      1.2540581      0.78094804   
      2700  -4799.7728     -4833.7514      33.978609      4684.0401      261.04266      8028.3561      1.2520037      0.78094804   
      2800  -4800.6027     -4834.0992      33.496561      2219.5165      257.3393       8025.4253      1.2524609      0.78094804   
      2900  -4800.6067     -4834.9297      34.322985      831.61481      263.68835      8003.2512      1.255931       0.78094804   
      3000  -4801.0786     -4835.0265      33.947902      4825.2148      260.80675      7974.022       1.2605347      0.63626485   
      3100  -4800.9536     -4834.5945      33.640873      5836.1569      258.44799      7937.7008      1.2663027      0.63626485   
      3200  -4800.3327     -4834.4631      34.130372      1808.8384      262.20859      7904.2971      1.2716541      0.63626485   
      3300  -4799.8461     -4834.0318      34.185783      5442.3857      262.63428      7879.4121      1.2756703      0.63626485   
      3400  -4799.2243     -4833.6815      34.457178      7709.0836      264.7193       7874.5477      1.2764583      0.63626485   
      3500  -4798.6064     -4832.8341      34.227707      6335.4976      262.95637      7892.5327      1.2735496      0.63626485   
      3600  -4799.4121     -4834.1965      34.784422      4256.3946      267.23336      7929.5352      1.2676067      0.63626485   
      3700  -4799.4415     -4834.6215      35.179993      3267.0642      270.27237      7977.5653      1.2599749      0.63626485   
      3800  -4800.71       -4835.442       34.732049      2562.4259      266.83101      8029.319       1.2518536      0.63626485   
      3900  -4800.3563     -4834.8488      34.492557      427.98806      264.9911       8065.2093      1.2462828      0.63626485   
      4000  -4798.7228     -4833.0596      34.336831      3672.9186      263.79472      8073.8219      1.2449534      0.64093804   
      4100  -4799.6268     -4833.6285      34.001724      4958.7546      261.22024      8058.2224      1.2473634      0.64093804   
      4200  -4799.5111     -4834.7761      35.265         4906.4375      270.92543      8015.2407      1.2540524      0.64093804   
      4300  -4798.527      -4833.7823      35.255335      5646.3827      270.85119      7952.2413      1.2639873      0.64093804   
      4400  -4797.3795     -4833.5674      36.187882      8112.6687      278.01553      7889.3582      1.274062       0.64093804   
      4500  -4798.0547     -4833.4868      35.432182      9359.2024      272.20982      7845.4109      1.2811989      0.64093804   
      4600  -4798.0797     -4834.1806      36.100921      10536.508      277.34745      7830.3244      1.2836673      0.64093804   
      4700  -4799.4281     -4834.5712      35.143034      9197.8035      269.98843      7852.7073      1.2800084      0.64093804   
      4800  -4800.166      -4835.5263      35.360255      5904.9383      271.65724      7905.9232      1.2713925      0.64093804   
      4900  -4800.778      -4834.6319      33.853941      2739.6866      260.08489      7967.5513      1.2615584      0.64093804   
      5000  -4800.5058     -4832.6121      32.106235      2464.0188      246.65803      8025.7365      1.2524124      0.67797945   
      5100  -4800.0442     -4833.4923      33.448117      15.92609       256.96712      8065.5064      1.2462369      0.67797945   
      5200  -4800.7741     -4833.3973      32.623227      939.89577      250.62986      8073.9974      1.2449263      0.67797945   
      5300  -4799.0475     -4833.2844      34.236854      3783.5012      263.02664      8051.46        1.2484111      0.67797945   
      5400  -4800.0797     -4834.6808      34.601098      4293.3586      265.82497      8008.5922      1.2550935      0.67797945   
      5500  -4801.299      -4834.6259      33.326873      4919.8528      256.03566      7954.44        1.2636379      0.67797945   
      5600  -4801.0325     -4834.5661      33.533596      5528.0646      257.62382      7899.0185      1.2725039      0.67797945   
      5700  -4800.4856     -4834.3309      33.845279      7816.6774      260.01834      7861.9561      1.2785026      0.67797945   
      5800  -4799.5966     -4833.4507      33.854075      9668.2221      260.08592      7852.5101      1.2800406      0.67797945   
      5900  -4800.0163     -4834.9096      34.893247      6587.6025      268.06942      7865.6661      1.2778996      0.67797945   
      6000  -4799.2877     -4834.9309      35.643174      6666.8744      273.83078      7901.461       1.2721105      0.6817642    
      6100  -4799.9147     -4833.15        33.23532       3670.794       255.3323       7954.7538      1.263588       0.6817642    
      6200  -4799.4901     -4834.4106      34.920556      3154.2631      268.27922      8012.5419      1.2544748      0.6817642    
      6300  -4798.0195     -4833.4152      35.395735      3830.4969      271.92982      8057.4525      1.2474826      0.6817642    
      6400  -4798.412      -4833.6284      35.216408      2835.1699      270.55212      8085.8661      1.243099       0.6817642    
      6500  -4799.1282     -4832.6162      33.488001      2446.8162      257.27353      8088.8698      1.2426373      0.6817642    
      6600  -4800.3141     -4834.8669      34.552861      608.80458      265.45438      8070.7714      1.2454239      0.6817642    
      6700  -4798.4593     -4833.9652      35.505925      5662.7219      272.77635      8029.8735      1.2517671      0.6817642    
      6800  -4796.878      -4832.6476      35.769596      5000.2386      274.80202      7978.7999      1.2597799      0.6817642    
      6900  -4797.3121     -4832.9835      35.67136       6902.922       274.04732      7936.0381      1.266568       0.6817642    
      7000  -4796.5282     -4831.4224      34.894222      5664.7501      268.07691      7912.7458      1.2702963      0.66615937   
      7100  -4796.0158     -4832.7708      36.754993      5146.9046      282.37239      7914.5877      1.2700007      0.66615937   
      7200  -4797.1959     -4833.9036      36.70779       6587.5135      282.00976      7937.1705      1.2663873      0.66615937   
      7300  -4798.0593     -4833.6686      35.609346      4993.4546      273.57089      7971.4918      1.2609348      0.66615937   
      7400  -4798.4022     -4833.3981      34.995892      3363.2395      268.85799      8001.8785      1.2561465      0.66615937   
      7500  -4798.2991     -4832.6132      34.314064      4150.1111      263.61981      8022.397       1.2529337      0.66615937   
      7600  -4798.3351     -4835.0188      36.683656      3141.5328      281.82434      8030.5001      1.2516695      0.66615937   
      7700  -4799.2183     -4833.6446      34.42627       507.0936       264.48184      8023.272       1.2527971      0.66615937   
      7800  -4798.7485     -4834.3268      35.578273      699.08252      273.33217      8003.8248      1.255841       0.66615937   
      7900  -4798.3247     -4833.8089      35.484157      3328.2468      272.60912      7979.0014      1.2597481      0.66615937   
      8000  -4797.9465     -4832.6615      34.714928      4627.7328      266.69947      7951.1778      1.2641563      0.72288741   
      8100  -4796.6601     -4833.0167      36.356571      6182.5591      279.31149      7930.5409      1.2674459      0.72288741   
      8200  -4797.6339     -4833.8625      36.228581      4761.0683      278.3282       7922.6069      1.2687152      0.72288741   
      8300  -4798.2534     -4834.2838      36.030436      3696.7907      276.80594      7929.2051      1.2676594      0.72288741   
      8400  -4798.3038     -4832.5969      34.293069      5192.5183      263.45852      7948.298       1.2646143      0.72288741   
      8500  -4797.9562     -4833.871       35.914874      5766.5878      275.91813      7973.6591      1.2605921      0.72288741   
      8600  -4798.4262     -4832.9743      34.548108      5447.9417      265.41787      7998.9127      1.2566123      0.72288741   
      8700  -4798.5375     -4834.4982      35.960717      5620.945       276.27032      8020.1042      1.2532919      0.72288741   
      8800  -4797.2664     -4833.3917      36.125221      4782.0928      277.53414      8031.951       1.2514434      0.72288741   
      8900  -4797.0651     -4831.8575      34.792449      4881.3854      267.29503      8033.9509      1.2511318      0.72288741   
      9000  -4796.8728     -4832.9849      36.112109      1278.7274      277.4334       8022.7878      1.2528727      0.65949554   
      9100  -4796.436      -4832.8318      36.395773      2728.865       279.61267      8004.1713      1.2557867      0.65949554   
      9200  -4796.3295     -4832.9429      36.613426      1737.5601      281.2848       7982.6504      1.2591722      0.65949554   
      9300  -4797.2455     -4832.7731      35.527563      4660.586       272.94259      7958.9072      1.2629286      0.65949554   
      9400  -4798.4999     -4832.8701      34.370245      4406.231       264.05143      7936.0241      1.2665702      0.65949554   
      9500  -4797.6702     -4833.9919      36.321671      4926.3799      279.04337      7920.2917      1.2690861      0.65949554   
      9600  -4797.1817     -4832.418       35.236311      6120.6106      270.70503      7919.4467      1.2692215      0.65949554   
      9700  -4798.3713     -4832.5925      34.221159      2819.0865      262.90606      7933.9508      1.2669012      0.65949554   
      9800  -4798.0041     -4833.5958      35.591727     -602.67277      273.43553      7959.8225      1.2627834      0.65949554   
      9900  -4798.2229     -4833.9754      35.752431      4934.9601      274.67015      7990.7908      1.2578895      0.65949554   
     10000  -4798.3638     -4833.3927      35.028819      5477.1418      269.11096      8015.9517      1.2539411      0.73864742   
     10100  -4799.4984     -4833.6385      34.140133      4014.7439      262.28358      8028.383       1.2519995      0.73864742   
     10200  -4799.067      -4833.5597      34.492667      916.13285      264.99194      8026.9444      1.2522239      0.73864742   
     10300  -4798.417      -4833.4605      35.043539      4065.282       269.22405      8008.8724      1.2550495      0.73864742   
     10400  -4798.2108     -4832.9951      34.784257      1581.9166      267.2321       7982.1188      1.2592561      0.73864742   
     10500  -4798.0674     -4834.0836      36.016242      3254.1332      276.69689      7954.0986      1.2636921      0.73864742   
     10600  -4796.326      -4832.1621      35.836052      5715.872       275.31257      7931.3302      1.2673198      0.73864742   
     10700  -4797.0792     -4832.3612      35.282035      4585.4319      271.0563       7922.06        1.2688028      0.73864742   
     10800  -4797.2512     -4832.3148      35.063566      4809.4603      269.37791      7925.9106      1.2681864      0.73864742   
     10900  -4798.3682     -4834.0229      35.654693      8309.3858      273.91928      7941.9285      1.2656286      0.73864742   
     11000  -4798.6624     -4832.4576      33.795239      4203.3406      259.63391      7965.3087      1.2619136      0.72688194   
     11100  -4798.7471     -4833.2843      34.537274      3767.7699      265.33464      7984.6248      1.2588609      0.72688194   
     11200  -4797.152      -4834.2676      37.115551      3086.0718      285.1424       7995.548       1.2571411      0.72688194   
     11300  -4797.0291     -4833.4354      36.406294      1543.9338      279.69349      8000.7257      1.2563275      0.72688194   
     11400  -4796.4217     -4830.8453      34.423605      2349.6696      264.46137      8001.2631      1.2562431      0.72688194   
     11500  -4798.3312     -4833.3102      34.979002      4882.2249      268.72823      8000.8107      1.2563141      0.72688194   
     11600  -4798.1157     -4834.048       35.932271      3313.1788      276.05178      7988.9676      1.2581766      0.72688194   
     11700  -4797.7139     -4833.9868      36.272923      6163.8214      278.66886      7974.8946      1.2603968      0.72688194   
     11800  -4798.3427     -4833.2599      34.917188      4574.0714      268.25335      7962.4906      1.2623603      0.72688194   
     11900  -4798.2924     -4833.2255      34.933118      6510.7787      268.37573      7954.6824      1.2635994      0.72688194   
     12000  -4797.0742     -4833.2067      36.132471      3589.3296      277.58983      7956.771       1.2632677      0.6302184    
     12100  -4797.2304     -4832.8067      35.576295      3640.6526      273.31698      7965.4029      1.2618987      0.6302184    
     12200  -4798.9279     -4833.2992      34.371276      5121.4721      264.05934      7976.4023      1.2601586      0.6302184    
     12300  -4800.5974     -4834.6869      34.089457      3825.1097      261.89425      7987.3899      1.2584251      0.6302184    
     12400  -4799.979      -4834.3639      34.384866      2211.2032      264.16375      7993.5388      1.257457       0.6302184    
     12500  -4799.4251     -4834.0318      34.606755      1889.5665      265.86843      7988.7422      1.2582121      0.6302184    
     12600  -4800.6478     -4835.2446      34.596785      890.65665      265.79183      7974.3522      1.2604825      0.6302184    
     12700  -4800.8936     -4834.8074      33.913814      5908.7629      260.54487      7954.9468      1.2635574      0.6302184    
     12800  -4800.5491     -4834.492       33.942933      2536.6303      260.76858      7936.9517      1.2664222      0.6302184    
     12900  -4799.873      -4835.0318      35.158782      3088.095       270.10941      7925.1947      1.2683009      0.6302184    
     13000  -4799.6046     -4833.5918      33.987185      6096.6569      261.10854      7920.2923      1.2690859      0.67238126   
     13100  -4798.7476     -4834.0371      35.289465      4739.1311      271.11339      7924.8997      1.2683481      0.67238126   
     13200  -4799.2473     -4834.4791      35.231822      7410.6843      270.67054      7934.3877      1.2668314      0.67238126   
     13300  -4798.9644     -4835.2091      36.244686      6728.488       278.45193      7951.0685      1.2641737      0.67238126   
     13400  -4797.9975     -4834.1581      36.160601      5619.8284      277.80595      7975.0454      1.260373       0.67238126   
     13500  -4798.4924     -4832.2189      33.726536      4429.4141      259.1061       7999.2858      1.2565536      0.67238126   
     13600  -4799.0486     -4833.5282      34.479686      2750.9085      264.89221      8018.5554      1.253534       0.67238126   
     13700  -4797.6245     -4833.6045      35.980084      714.11103      276.41911      8022.4252      1.2529293      0.67238126   
     13800  -4798.579      -4832.1613      33.582314      4374.3969      257.9981       8010.4173      1.2548075      0.67238126   
     13900  -4798.7081     -4834.0925      35.384396      2313.4148      271.8427       7989.6471      1.2580695      0.67238126   
     14000  -4798.749      -4833.1647      34.415718      1797.9491      264.40078      7963.3061      1.262231       0.73920531   
     14100  -4798.7556     -4834.6517      35.896159      2749.5072      275.77435      7941.2296      1.26574        0.73920531   
     14200  -4798.6573     -4833.4687      34.811331      4953.49        267.4401       7925.6913      1.2682214      0.73920531   
     14300  -4798.1646     -4833.3723      35.207649      7149.3295      270.48483      7922.2428      1.2687735      0.73920531   
     14400  -4798.8204     -4833.3118      34.491439      3093.4415      264.9825       7935.676       1.2666258      0.73920531   
     14500  -4798.5584     -4833.8848      35.326413      2749.4319      271.39724      7956.8363      1.2632573      0.73920531   
     14600  -4798.6614     -4833.7196      35.058197      4573.3292      269.33666      7983.0695      1.2591061      0.73920531   
     14700  -4798.9579     -4834.8803      35.922369      7511.94        275.97571      8008.2258      1.2551509      0.73920531   
     14800  -4799.6364     -4833.8507      34.214258      2999.6231      262.85305      8025.1646      1.2525016      0.73920531   
     14900  -4800.8053     -4834.5517      33.746355      3957.5787      259.25836      8031.6846      1.2514849      0.73920531   
     15000  -4800.3485     -4835.3894      35.040969      1549.0834      269.2043       8024.9426      1.2525363      0.73742414   
     15100  -4800.5593     -4833.3422      32.782948      4628.0574      251.85692      8001.4575      1.2562126      0.73742414   
     15200  -4800.5164     -4833.924       33.407641      3999.081       256.65616      7969.1258      1.2613092      0.73742414   
     15300  -4800.7567     -4834.3509      33.594189      4874.5849      258.08933      7938.7359      1.2661376      0.73742414   
     15400  -4801.1164     -4835.1813      34.06486       3002.9535      261.70529      7913.963       1.2701009      0.73742414   
     15500  -4801.7995     -4835.6657      33.866181      4392.647       260.17892      7904.8857      1.2715594      0.73742414   
     15600  -4801.5854     -4835.8795      34.294063      6706.0884      263.46616      7910.8233      1.270605       0.73742414   
     15700  -4800.3195     -4833.8019      33.482401      4544.1055      257.23052      7926.0622      1.2681621      0.73742414   
     15800  -4800.7041     -4834.5716      33.867548      3210.3125      260.18943      7948.0102      1.2646601      0.73742414   
     15900  -4801.1409     -4835.3957      34.254797      5849.1528      263.16449      7973.7975      1.2605702      0.73742414   
     16000  -4799.3865     -4834.2251      34.838697      4430.9876      267.65034      7993.0271      1.2575375      0.73875237   
     16100  -4799.4512     -4833.5555      34.104332     -181.12674      262.00854      8006.3418      1.2554462      0.73875237   
     16200  -4797.7564     -4832.9358      35.179312      1751.9585      270.26713      8010.748       1.2547557      0.73875237   
     16300  -4797.46       -4832.5476      35.087612      1595.2324      269.56264      8007.8742      1.255206       0.73875237   
     16400  -4796.1276     -4832.3791      36.251478      6386.5415      278.50411      8001.2979      1.2562376      0.73875237   
     16500  -4796.5724     -4832.5157      35.943322      6178.4942      276.13668      7992.2661      1.2576573      0.73875237   
     16600  -4797.2353     -4832.6275      35.392139      290.43389      271.90219      7981.5222      1.2593502      0.73875237   
     16700  -4796.3562     -4831.9122      35.556086      4024.634       273.16172      7969.9549      1.261178       0.73875237   
     16800  -4797.3601     -4832.7328      35.372762      3239.4464      271.75332      7964.7324      1.2620049      0.73875237   
     16900  -4797.6349     -4833.1725      35.537608      5321.0502      273.01976      7963.7588      1.2621592      0.73875237   
     17000  -4797.3923     -4832.2548      34.862514      4366.9186      267.83331      7969.1941      1.2612984      0.78859121   
     17100  -4797.4436     -4833.076       35.632437      5623.5477      273.74829      7975.6232      1.2602817      0.78859121   
     17200  -4797.9347     -4833.3255      35.390811      306.86699      271.89199      7982.1528      1.2592507      0.78859121   
     17300  -4797.5814     -4832.9764      35.395031     -840.25998      271.9244       7985.6772      1.258695       0.78859121   
     17400  -4797.3252     -4832.4327      35.107429      2250.8198      269.71489      7985.7615      1.2586817      0.78859121   
     17500  -4798.1089     -4832.411       34.302038      3393.4756      263.52742      7979.5974      1.259654       0.78859121   
     17600  -4796.9486     -4832.4194      35.470838      4095.9899      272.5068       7969.903       1.2611862      0.78859121   
     17700  -4796.0117     -4832.8219      36.810161      2640.1371      282.79622      7959.924       1.2627673      0.78859121   
     17800  -4795.5188     -4831.2744      35.755686      3414.668       274.69516      7956.6822      1.2632818      0.78859121   
     17900  -4796.4587     -4832.3858      35.927127      324.90303      276.01227      7964.148       1.2620976      0.78859121   
     18000  -4796.4029     -4832.634       36.231041      3963.4895      278.3471       7977.7108      1.2599519      0.62688635   
     18100  -4797.8181     -4833.3062      35.488107      3540.4341      272.63947      7991.3843      1.2577961      0.62688635   
     18200  -4798.4231     -4832.8979      34.474812      1564.9991      264.85477      8000.5248      1.256359       0.62688635   
     18300  -4798.3798     -4833.4437      35.063916      823.3563       269.38059      8003.7624      1.2558508      0.62688635   
     18400  -4798.359      -4833.0263      34.667289     -1931.1238      266.33348      7997.9365      1.2567656      0.62688635   
     18500  -4799.646      -4833.0812      33.435226     -1840.243       256.86809      7984.0943      1.2589445      0.62688635   
     18600  -4798.8585     -4833.4126      34.554119      1811.204       265.46405      7967.9568      1.2614942      0.62688635   
     18700  -4799.0571     -4833.2062      34.149105      5034.4691      262.35251      7956.0793      1.2633775      0.62688635   
     18800  -4799.013      -4835.4653      36.45229       6356.7309      280.04686      7948.0029      1.2646613      0.62688635   
     18900  -4798.0327     -4833.1791      35.146345      7309.7641      270.01386      7943.1173      1.2654392      0.62688635   
     19000  -4798.0837     -4833.4044      35.320605      3445.1996      271.35262      7943.945       1.2653073      0.66743342   
     19100  -4799.4011     -4834.1201      34.718937      5709.0323      266.73027      7954.8455      1.2635735      0.66743342   
     19200  -4798.5453     -4833.3967      34.851383      8507.6893      267.7478       7973.5761      1.2606052      0.66743342   
     19300  -4797.6737     -4833.2643      35.590556      5525.4367      273.42654      7996.8572      1.2569352      0.66743342   
     19400  -4797.6328     -4833.2453      35.612443      5057.4294      273.59468      8018.5908      1.2535284      0.66743342   
     19500  -4798.5157     -4834.204       35.688285      3684.3515      274.17735      8033.8241      1.2511516      0.66743342   
     19600  -4798.2022     -4832.965       34.76282       256.16853      267.0674       8040.5688      1.2501021      0.66743342   
     19700  -4799.8738     -4834.6687      34.79486       2155.4118      267.31356      8032.4597      1.2513641      0.66743342   
     19800  -4799.5811     -4833.9369      34.355819      2628.1734      263.9406       8011.1269      1.2546963      0.66743342   
     19900  -4798.1867     -4833.7403      35.55361       5378.2202      273.1427       7979.3573      1.2596919      0.66743342   
     20000  -4798.0201     -4833.2392      35.219141      4682.3739      270.57312      7949.0505      1.2644946      0.74368581   
     20100  -4798.4187     -4834.0704      35.65161       6828.4264      273.89559      7923.8914      1.2685095      0.74368581   
     20200  -4798.9821     -4834.5308      35.548779      4012.7807      273.10558      7911.3902      1.270514       0.74368581   
     20300  -4799.1005     -4833.6957      34.595249      5929.564       265.78003      7918.0076      1.2694521      0.74368581   
     20400  -4798.8223     -4833.688       34.865783      4341.8073      267.85842      7939.3283      1.2660431      0.74368581   
     20500  -4797.1589     -4833.2044      36.045467      4646.5318      276.92142      7970.5757      1.2610798      0.74368581   
     20600  -4797.6068     -4833.9261      36.319331      5653.4117      279.0254       8004.7471      1.2556963      0.74368581   
     20700  -4799.6694     -4834.2464      34.576983      2082.8601      265.63971      8037.8203      1.2505295      0.74368581   
     20800  -4799.1196     -4834.6942      35.574563      4482.5857      273.30367      8054.1368      1.2479961      0.74368581   
     20900  -4799.8871     -4833.8796      33.992542      3214.8766      261.1497       8053.4742      1.2480988      0.74368581   
     21000  -4799.3848     -4834.4991      35.114341      994.14907      269.76799      8034.2677      1.2510825      0.66045236   
     21100  -4799.0443     -4833.9235      34.879271      2884.9607      267.96205      7997.034       1.2569075      0.66045236   
     21200  -4797.8088     -4833.0783      35.269496      2286.1558      270.95998      7952.5214      1.2639427      0.66045236   
     21300  -4796.9314     -4833.8163      36.884913      4746.7185      283.37051      7918.2498      1.2694133      0.66045236   
     21400  -4797.1927     -4832.1428      34.950085      4247.3206      268.50608      7906.7531      1.2712591      0.66045236   
     21500  -4797.9291     -4833.0477      35.118623      6689.5879      269.80089      7917.6905      1.269503       0.66045236   
     21600  -4798.001      -4833.4799      35.478966      7416.5274      272.56924      7943.598       1.2653626      0.66045236   
     21700  -4799.6317     -4836.2135      36.58182       6231.908       281.04198      7979.1316      1.2597275      0.66045236   
     21800  -4800.0594     -4833.6523      33.592984      7995.9956      258.08008      8010.0211      1.2548696      0.66045236   
     21900  -4799.7339     -4833.9468      34.212968      7316.3269      262.84314      8033.9188      1.2511368      0.66045236   
     22000  -4797.7214     -4833.1636      35.442237      1907.9744      272.28707      8047.1668      1.2490771      0.62141317   
     22100  -4798.0561     -4832.8242      34.768166      4612.6624      267.10848      8048.8778      1.2488116      0.62141317   
     22200  -4797.1514     -4832.6058      35.45435       4347.231       272.38012      8037.99        1.2505031      0.62141317   
     22300  -4797.1819     -4832.2244      35.042506      1738.3385      269.21611      8015.8211      1.2539616      0.62141317   
     22400  -4799.1236     -4832.9365      33.812885      5077.6172      259.76947      7987.2849      1.2584416      0.62141317   
     22500  -4799.1402     -4832.8395      33.699398      4832.3525      258.89761      7956.0502      1.2633821      0.62141317   
     22600  -4798.5204     -4833.6531      35.132696      2007.8997      269.909        7930.2912      1.2674858      0.62141317   
     22700  -4797.9838     -4833.4504      35.466562      4984.3439      272.47395      7922.0126      1.2688104      0.62141317   
     22800  -4799.3008     -4834.7437      35.442956      6637.3338      272.29259      7929.7731      1.2675686      0.62141317   
     22900  -4798.583      -4833.6953      35.112267      7703.2814      269.75205      7950.5711      1.2642528      0.62141317   
     23000  -4798.2878     -4831.7885      33.500719      6856.7263      257.37124      7978.289       1.2598606      0.66572646   
     23100  -4797.1996     -4833.3809      36.181315      3807.567       277.96508      8006.6372      1.2553999      0.66572646   
     23200  -4797.1256     -4832.5873      35.461687      4101.7721      272.4365       8031.4591      1.25152        0.66572646   
     23300  -4796.1658     -4832.6205      36.454716      2845.98        280.0655       8049.5433      1.2487083      0.66572646   
     23400  -4796.977      -4832.2323      35.25529       1043.7866      270.85084      8053.6705      1.2480684      0.66572646   
     23500  -4797.0797     -4832.1168      35.037146      3043.0783      269.17493      8038.5932      1.2504093      0.66572646   
     23600  -4796.1001     -4833.2554      37.155323     -143.55307      285.44795      8014.2433      1.2542085      0.66572646   
     23700  -4796.6796     -4833.0972      36.41758       3970.4037      279.7802       7986.8501      1.2585101      0.66572646   
     23800  -4795.7379     -4833.2086      37.47076       5777.7521      287.87132      7959.5341      1.2628291      0.66572646   
     23900  -4796.3171     -4832.2447      35.927619      5081.1201      276.01604      7941.0104      1.2657749      0.66572646   
     24000  -4797.827      -4831.991       34.163979      3364.627       262.46678      7939.5168      1.266013       0.67203577   
     24100  -4797.2228     -4832.6468      35.424047      3026.9224      272.14732      7951.3742      1.2641251      0.67203577   
     24200  -4797.1193     -4832.924       35.804644      3705.5632      275.07128      7971.7467      1.2608945      0.67203577   
     24300  -4798.0547     -4833.2762      35.221513      2191.0197      270.59134      7995.1861      1.257198       0.67203577   
     24400  -4796.6577     -4831.2755      34.617799      358.63535      265.95327      8015.2324      1.2540537      0.67203577   
     24500  -4796.4886     -4831.6271      35.138451      2609.6428      269.95322      8029.3987      1.2518411      0.67203577   
     24600  -4797.4387     -4832.5936      35.154855      3246.5033      270.07924      8030.6876      1.2516402      0.67203577   
     24700  -4796.489      -4832.3637      35.874689      2830.4344      275.60941      8017.8674      1.2536415      0.67203577   
     24800  -4795.578      -4831.7026      36.124549      6724.3341      277.52897      7997.3243      1.2568618      0.67203577   
     24900  -4796.8354     -4832.493       35.657596      5265.5223      273.94157      7976.4818      1.260146       0.67203577   
     25000  -4798.7977     -4833.9108      35.113102      5117.0447      269.75847      7960.0124      1.2627533      0.76153958   
     25100  -4799.1296     -4833.65        34.520453      6154.6871      265.20541      7947.4787      1.2647447      0.76153958   
     25200  -4799.366      -4834.5198      35.153815      5860.1245      270.07125      7942.4555      1.2655446      0.76153958   
     25300  -4799.7183     -4835.5662      35.847906      4242.1463      275.40364      7943.303       1.2654096      0.76153958   
     25400  -4799.3401     -4834.9255      35.585395      4306.212       273.38689      7949.9974      1.264344       0.76153958   
     25500  -4798.8892     -4833.1618      34.272654      4998.8745      263.30168      7956.1477      1.2633666      0.76153958   
     25600  -4798.2152     -4832.9282      34.713022      4446.7534      266.68483      7963.8542      1.2621441      0.76153958   
     25700  -4797.8452     -4832.5284      34.683194      2250.9454      266.45568      7975.8986      1.2602382      0.76153958   
     25800  -4798.1745     -4832.2798      34.105333      2769.6206      262.01622      7987.3422      1.2584326      0.76153958   
     25900  -4797.6696     -4833.3763      35.706741      5400.502       274.31913      7994.526       1.2573018      0.76153958   
     26000  -4796.9018     -4833.0797      36.177906      2901.5316      277.93889      7996.5425      1.2569847      0.70372919   
     26100  -4797.1428     -4832.0133      34.870464      6863.0785      267.89439      7992.1702      1.2576724      0.70372919   
     26200  -4797.3479     -4834.6355      37.28756       6732.9291      286.46387      7984.076       1.2589474      0.70372919   
     26300  -4797.9889     -4834.6857      36.696776      4076.5387      281.92514      7970.2421      1.2611325      0.70372919   
     26400  -4796.7        -4832.0312      35.331141      6438.3139      271.43356      7954.0333      1.2637025      0.70372919   
     26500  -4797.211      -4833.1176      35.906633      3692.176       275.85482      7938.8692      1.2661163      0.70372919   
     26600  -4796.4823     -4833.2673      36.784963      6917.014       282.60264      7931.0102      1.2673709      0.70372919   
     26700  -4796.6369     -4833.3315      36.694565      8673.9264      281.90815      7934.5648      1.2668032      0.70372919   
     26800  -4795.9154     -4832.4757      36.560373      7053.6915      280.87722      7951.9714      1.2640302      0.70372919   
     26900  -4796.6165     -4832.2457      35.629117      4455.7738      273.72278      7975.8182      1.2602508      0.70372919   
     27000  -4797.9153     -4833.3743      35.459021      1338.7606      272.41602      7998.6356      1.2566558      0.75945897   
     27100  -4798.7683     -4833.0555      34.287197      2193.4602      263.41341      8012.4084      1.2544957      0.75945897   
     27200  -4798.1281     -4834.1312      36.003051      3325.1141      276.59555      8012.9567      1.2544098      0.75945897   
     27300  -4799.3993     -4833.723       34.323721      2196.0213      263.694        7999.5407      1.2565136      0.75945897   
     27400  -4800.2597     -4835.0189      34.759282      2708.0885      267.04022      7975.4375      1.260311       0.75945897   
     27500  -4799.1453     -4833.8257      34.680444      1462.6594      266.43455      7944.6         1.265203       0.75945897   
     27600  -4799.4914     -4835.1433      35.651898      3848.8688      273.8978       7918.4727      1.2693776      0.75945897   
     27700  -4800.376      -4834.7567      34.380761      3414.1201      264.13222      7906.4818      1.2713027      0.75945897   
     27800  -4799.6166     -4834.3623      34.7457        5778.2817      266.93588      7906.1694      1.2713529      0.75945897   
     27900  -4800.1556     -4833.9713      33.815781      4997.2537      259.79173      7914.2433      1.2700559      0.75945897   
     28000  -4800.1819     -4834.5705      34.388641      4211.7236      264.19276      7929.6055      1.2675954      0.70250331   
     28100  -4800.6784     -4834.4727      33.794279      3754.1025      259.62654      7946.2464      1.2649408      0.70250331   
     28200  -4800.3861     -4834.7311      34.344994      1873.4733      263.85743      7962.3317      1.2623854      0.70250331   
     28300  -4800.0985     -4833.718       33.619451     -468.29436      258.28341      7975.4019      1.2603166      0.70250331   
     28400  -4799.8083     -4835.0495      35.24115       827.29908      270.74221      7983.7765      1.2589946      0.70250331   
     28500  -4800.1722     -4833.5901      33.417946      2460.2225      256.73533      7989.6686      1.2580662      0.70250331   
     28600  -4799.6268     -4833.6317      34.004971      4925.1167      261.24519      7986.9029      1.2585018      0.70250331   
     28700  -4800.5736     -4834.8709      34.297345      9262.8166      263.49137      7975.0452      1.260373       0.70250331   
     28800  -4799.7439     -4833.6769      33.932973      5455.3881      260.69206      7954.3414      1.2636535      0.70250331   
     28900  -4798.5752     -4833.6516      35.076377      4456.8319      269.47633      7930.3085      1.2674831      0.70250331   
     29000  -4798.2347     -4833.1797      34.944968      1750.3962      268.46677      7912.5727      1.2703241      0.63019903   
     29100  -4798.0664     -4833.2476      35.181114      5142.743       270.28098      7905.5379      1.2714545      0.63019903   
     29200  -4798.4021     -4834.6256      36.223533      5571.5236      278.28942      7913.1188      1.2702364      0.63019903   
     29300  -4799.7914     -4834.8534      35.061966      3179.7776      269.36561      7928.7728      1.2677286      0.63019903   
     29400  -4799.4115     -4833.9127      34.501221      4441.9851      265.05765      7945.1315      1.2651183      0.63019903   
     29500  -4798.5683     -4833.1606      34.592251      4971.178       265.757        7962.2768      1.2623942      0.63019903   
     29600  -4798.9805     -4834.225       35.244436      3495.4573      270.76745      7978.6744      1.2597997      0.63019903   
     29700  -4798.3965     -4833.0155      34.619025      3308.9655      265.96269      7987.3443      1.2584323      0.63019903   
     29800  -4798.2675     -4832.7033      34.4358        4680.8138      264.55506      7988.4501      1.258258       0.63019903   
     29900  -4797.3192     -4832.1271      34.807944      1141.2556      267.41408      7982.2741      1.2592316      0.63019903   
     30000  -4798.3318     -4832.2078      33.875984      3851.0724      260.25424      7970.8218      1.2610408      0.78588162   
     30100  -4797.3222     -4833.5682      36.246064      1409.9639      278.46251      7957.1186      1.2632125      0.78588162   
     30200  -4796.6199     -4833.1572      36.537301      2834.2628      280.69997      7945.4257      1.2650715      0.78588162   
     30300  -4796.4822     -4831.4781      34.995855      4003.5         268.85771      7938.1971      1.2662235      0.78588162   
     30400  -4795.9663     -4831.9586      35.992202      4578.2863      276.51221      7940.7199      1.2658212      0.78588162   
     30500  -4796.2252     -4831.937       35.71176       5267.424       274.3577       7955.1786      1.2635205      0.78588162   
     30600  -4795.1768     -4831.0104      35.833658      6912.7223      275.29418      7976.1766      1.2601942      0.78588162   
     30700  -4796.5118     -4831.4716      34.959833      721.08337      268.58097      7996.8573      1.2569352      0.78588162   
     30800  -4796.6331     -4831.9729      35.339804      322.74268      271.50012      8009.6465      1.2549282      0.78588162   
     30900  -4798.3391     -4833.6137      35.274578      231.91838      270.99902      8015.5852      1.2539985      0.78588162   
     31000  -4798.9401     -4834.6002      35.66007       2829.5838      273.96059      8009.3143      1.2549803      0.6885359    
     31100  -4799.378      -4834.0106      34.632642      5923.4298      266.06731      7987.7083      1.2583749      0.6885359    
     31200  -4797.6382     -4833.8299      36.191727      4976.2845      278.04507      7958.8767      1.2629335      0.6885359    
     31300  -4798.6579     -4833.9251      35.26718       7330.8653      270.94218      7928.9631      1.2676981      0.6885359    
     31400  -4797.0458     -4832.7594      35.713583      1847.1385      274.3717       7910.1277      1.2707167      0.6885359    
     31500  -4797.932      -4832.367       34.434976      1253.3399      264.54872      7907.0556      1.2712104      0.6885359    
     31600  -4797.2216     -4833.4591      36.237427      2249.8201      278.39616      7920.7827      1.2690074      0.6885359    
     31700  -4796.574      -4832.6924      36.11841       4425.8417      277.48181      7948.9454      1.2645113      0.6885359    
     31800  -4799.1612     -4833.2076      34.046415     -61.695753      261.56358      7982.4658      1.2592013      0.6885359    
     31900  -4800.5793     -4833.6161      33.036729      729.28598      253.80661      8011.7542      1.2545981      0.6885359    
     32000  -4800.9167     -4835.1752      34.258579      879.15074      263.19355      8026.8471      1.2522391      0.59470968   
     32100  -4802.2082     -4835.4454      33.237211      4409.1473      255.34683      8015.6199      1.2539931      0.59470968   
     32200  -4801.8356     -4835.667       33.831405      5533.5296      259.91176      7983.5052      1.2590374      0.59470968   
     32300  -4802.6029     -4835.3164      32.713516      3957.226       251.32351      7943.8092      1.2653289      0.59470968   
     32400  -4802.1162     -4835.5114      33.39518       4527.2877      256.56043      7910.4461      1.2706656      0.59470968   
     32500  -4801.562      -4835.1798      33.617883      5492.0267      258.27137      7887.1214      1.2744233      0.59470968   
     32600  -4801.453      -4835.3747      33.921677      4641.0656      260.60528      7875.7925      1.2762565      0.59470968   
     32700  -4801.2435     -4834.8041      33.560554      4078.9319      257.83093      7875.8081      1.276254       0.59470968   
     32800  -4800.2902     -4833.9429      33.652754      6321.5714      258.53926      7888.6806      1.2741715      0.59470968   
     32900  -4800.7369     -4835.2047      34.467811      5258.0714      264.80098      7915.9774      1.2697777      0.59470968   
     33000  -4799.0095     -4835.1474      36.137882      2083.8262      277.6314       7949.7068      1.2643902      0.71466976   
     33100  -4799.1071     -4834.0542      34.947102      4358.0013      268.48316      7981.9604      1.2592811      0.71466976   
     33200  -4799.803      -4833.6059      33.802922      4652.4314      259.69294      8008.5264      1.2551038      0.71466976   
     33300  -4798.8514     -4831.7793      32.927871      2107.3899      252.9703       8024.3272      1.2526323      0.71466976   
     33400  -4799.2921     -4833.4752      34.183015      2349.7674      262.61302      8022.0661      1.2529854      0.71466976   
     33500  -4798.9448     -4833.8352      34.890363      6383.1495      268.04727      8005.8206      1.255528       0.71466976   
     33600  -4798.8614     -4834.3751      35.513644      3679.2605      272.83565      7977.522       1.2599817      0.71466976   
     33700  -4798.3828     -4832.6824      34.299531      3036.8108      263.50816      7944.0066      1.2652975      0.71466976   
     33800  -4798.1778     -4833.4522      35.27438       5777.8043      270.99749      7918.1508      1.2694292      0.71466976   
     33900  -4799.2391     -4834.5319      35.292836      6643.737       271.13929      7907.4851      1.2711414      0.71466976   
     34000  -4799.7984     -4834.9526      35.154208      9477.2837      270.07427      7909.204       1.2708651      0.67819176   
     34100  -4799.3437     -4834.0947      34.75097       7692.6268      266.97637      7920.2338      1.2690953      0.67819176   
     34200  -4800.1161     -4834.2402      34.124063      5120.1171      262.16012      7938.0853      1.2662413      0.67819176   
     34300  -4799.6938     -4834.1764      34.482606      4554.633       264.91465      7955.6261      1.2634495      0.67819176   
     34400  -4799.0309     -4834.0965      35.065521      3943.7593      269.39293      7969.2601      1.2612879      0.67819176   
     34500  -4799.227      -4834.0448      34.817831      2437.0978      267.49003      7981.8683      1.2592956      0.67819176   
     34600  -4797.9859     -4832.617       34.631078      4450.2879      266.05529      7990.2834      1.2579694      0.67819176   
     34700  -4797.9406     -4832.1736      34.233002      4474.9111      262.99705      7995.7417      1.2571106      0.67819176   
     34800  -4796.3929     -4833.397       37.004047      2435.0253      284.28577      7997.5899      1.2568201      0.67819176   
     34900  -4795.9984     -4831.4612      35.462789      2618.9048      272.44496      7997.0068      1.2569117      0.67819176   
     35000  -4795.8225     -4831.1899      35.36747       4990.8311      271.71267      7994.3173      1.2573346      0.67557775   
     35100  -4797.3597     -4833.9095      36.549812      6736.2433      280.79608      7985.6233      1.2587035      0.67557775   
     35200  -4796.5349     -4833.0787      36.543806      517.00481      280.74994      7972.2882      1.2608089      0.67557775   
     35300  -4796.3562     -4832.2992      35.943044      3590.3914      276.13455      7956.7483      1.2632713      0.67557775   
     35400  -4797.4798     -4833.9485      36.468723      6418.8097      280.1731       7946.0293      1.2649754      0.67557775   
     35500  -4798.0948     -4834.3005      36.205715      3424.7571      278.15253      7942.8806      1.2654769      0.67557775   
     35600  -4798.0058     -4833.6792      35.673406     -166.78701      274.06303      7943.2921      1.2654113      0.67557775   
     35700  -4797.8987     -4832.478       34.579304      4974.7903      265.65753      7947.5364      1.2647355      0.67557775   
     35800  -4797.8994     -4832.4299      34.530513      4180.5638      265.28269      7957.3542      1.2631751      0.67557775   
     35900  -4797.5657     -4833.7769      36.21115       4260.8686      278.19429      7970.5034      1.2610912      0.67557775   
     36000  -4798.4148     -4833.0438      34.629013      5382.888       266.03942      7984.5046      1.2588798      0.72115257   
     36100  -4798.4017     -4833.6161      35.214389      4903.3264      270.53662      7996.4356      1.2570015      0.72115257   
     36200  -4796.8496     -4833.1594      36.309723      5271.6247      278.95158      8002.9656      1.2559759      0.72115257   
     36300  -4797.5636     -4832.7955      35.231903      3603.9545      270.67116      8003.8319      1.2558399      0.72115257   
     36400  -4797.5008     -4832.9632      35.462352      6086.1988      272.4416       7999.2397      1.2565609      0.72115257   
     36500  -4797.1923     -4832.6539      35.46163       4271.5867      272.43605      7990.5593      1.2579259      0.72115257   
     36600  -4797.077      -4832.6489      35.571908      2760.2997      273.28328      7978.9091      1.2597627      0.72115257   
     36700  -4797.5121     -4832.7108      35.198763      2744.2264      270.41656      7970.3502      1.2611154      0.72115257   
     36800  -4797.1948     -4832.5616      35.366766      4521.6153      271.70726      7963.7096      1.262167       0.72115257   
     36900  -4795.936      -4832.1635      36.227523      5573.0567      278.32007      7963.9347      1.2621314      0.72115257   
     37000  -4796.4825     -4831.3967      34.914273      639.10344      268.23095      7972.894       1.2607131      0.71345785   
     37100  -4798.0709     -4832.9443      34.873431      3369.9283      267.91718      7985.1144      1.2587837      0.71345785   
     37200  -4799.0578     -4833.6953      34.637432      860.36332      266.10411      7995.4369      1.2571585      0.71345785   
     37300  -4798.4473     -4833.132       34.684709      5188.729       266.46731      7995.0081      1.257226       0.71345785   
     37400  -4798.235      -4833.3943      35.159319      5500.3516      270.11353      7984.9777      1.2588052      0.71345785   
     37500  -4796.8355     -4832.1474      35.311917      2953.5297      271.28587      7967.8312      1.2615141      0.71345785   
     37600  -4798.0167     -4832.6344      34.617689      5524.9925      265.95243      7953.9182      1.2637208      0.71345785   
     37700  -4798.0525     -4833.6814      35.628911      5714.5613      273.7212       7944.5545      1.2652102      0.71345785   
     37800  -4797.6962     -4832.5699      34.873657      3383.2515      267.91892      7942.5233      1.2655338      0.71345785   
     37900  -4797.0687     -4831.9227      34.853947      8334.2647      267.76749      7949.3274      1.2644506      0.71345785   
     38000  -4795.541      -4832.5619      37.020958      3903.0221      284.41569      7963.1767      1.2622515      0.64203935   
     38100  -4795.4652     -4832.4482      36.983061      431.24424      284.12454      7980.0856      1.2595769      0.64203935   
     38200  -4795.7083     -4834.2546      38.546349      2526.0888      296.13459      7995.7169      1.2571145      0.64203935   
     38300  -4795.6008     -4832.1239      36.52312       6742.0832      280.59102      8006.6399      1.2553995      0.64203935   
     38400  -4796.5101     -4832.4515      35.941488      7257.4638      276.1226       8016.3553      1.253878       0.64203935   
     38500  -4798.7224     -4833.8897      35.167331      7287.8747      270.17509      8018.6223      1.2535235      0.64203935   
     38600  -4798.5596     -4834.7375      36.177912      4827.8054      277.93893      8012.219       1.2545253      0.64203935   
     38700  -4799.3064     -4833.855       34.548578      2081.0602      265.42148      7998.487       1.2566791      0.64203935   
     38800  -4799.0314     -4832.7087      33.677368      1562.7518      258.72836      7977.1705      1.2600372      0.64203935   
     38900  -4797.4454     -4833.8508      36.405466      2795.9255      279.68713      7953.6883      1.2637573      0.64203935   
     39000  -4797.1901     -4833.5444      36.354281      3966.5347      279.2939       7933.329       1.2670005      0.70989861   
     39100  -4796.1209     -4833.1187      36.997771      1722.3348      284.23755      7920.8305      1.2689997      0.70989861   
     39200  -4795.5329     -4832.2782      36.745318      3650.5147      282.29806      7920.6155      1.2690342      0.70989861   
     39300  -4795.3165     -4830.7901      35.473659      4634.3163      272.52847      7932.8053      1.2670841      0.70989861   
     39400  -4797.4345     -4833.3429      35.908395      2779.4466      275.86835      7959.3721      1.2628548      0.70989861   
     39500  -4797.0162     -4832.1444      35.12814       2769.8082      269.874        7993.3984      1.2574791      0.70989861   
     39600  -4796.3538     -4831.7206      35.36682       2509.2169      271.70768      8023.2095      1.2528068      0.70989861   
     39700  -4796.9551     -4832.8022      35.847118      1609.2446      275.39759      8035.7199      1.2508564      0.70989861   
     39800  -4798.0488     -4833.1817      35.132937      276.41183      269.91085      8030.4133      1.251683       0.70989861   
     39900  -4798.7991     -4834.5221      35.723077      3347.309       274.44464      8009.5575      1.2549422      0.70989861   
     40000  -4798.0568     -4833.6057      35.548981      6394.2809      273.10713      7978.0702      1.2598951      0.6565784    
     40100  -4798.7219     -4833.4205      34.698556      9353.633       266.57369      7946.6057      1.2648837      0.6565784    
     40200  -4797.9505     -4832.9713      35.020818      5373.4368      269.04949      7923.2615      1.2686104      0.6565784    
     40300  -4798.6292     -4834.8582      36.229009      4687.9883      278.33149      7911.7816      1.2704511      0.6565784    
     40400  -4799.1998     -4834.1013      34.901461      2729.4035      268.13252      7909.3132      1.2708476      0.6565784    
     40500  -4799.809      -4834.4589      34.64992       3787.2529      266.20005      7919.1095      1.2692755      0.6565784    
     40600  -4799.0682     -4834.6688      35.600679      5966.187       273.50431      7936.6024      1.2664779      0.6565784    
     40700  -4798.6597     -4833.5771      34.917419      8259.4698      268.25512      7956.2862      1.2633447      0.6565784    
     40800  -4798.7252     -4834.0311      35.305979      5043.8366      271.24026      7980.931       1.2594435      0.6565784    
     40900  -4798.8374     -4834.0556      35.218206      5387.8266      270.56594      8003.9238      1.2558255      0.6565784    
     41000  -4799.6968     -4834.0616      34.364812      3135.74        264.00969      8022.5548      1.2529091      0.68050881   
     41100  -4800.5884     -4833.8084      33.220062      1496.1341      255.21508      8029.8139      1.2517764      0.68050881   
     41200  -4800.3208     -4833.9573      33.636425      4746.1361      258.41381      8020.8946      1.2531684      0.68050881   
     41300  -4800.2005     -4834.3486      34.14803       2003.8098      262.34424      7996.027       1.2570657      0.68050881   
     41400  -4799.261      -4833.6811      34.42007       5565.3829      264.43421      7955.0067      1.2635479      0.68050881   
     41500  -4798.5474     -4834.3642      35.816782      3043.4744      275.16453      7914.1632      1.2700688      0.68050881   
     41600  -4798.5337     -4834.2891      35.755362      1897.0635      274.69267      7884.1143      1.2749094      0.68050881   
     41700  -4798.4824     -4833.7034      35.221006      7074.5975      270.58745      7874.3374      1.2764924      0.68050881   
     41800  -4800.7575     -4834.9911      34.233525      1581.4908      263.00107      7887.6848      1.2743323      0.68050881   
     41900  -4799.407      -4834.6292      35.222174      1593.2157      270.59642      7914.8674      1.2699558      0.68050881   
     42000  -4798.8241     -4833.8384      35.01429       4201.2995      268.99934      7951.5034      1.2641046      0.65592851   
     42100  -4799.4316     -4834.4819      35.050318      3954.0931      269.27613      7987.5525      1.2583995      0.65592851   
     42200  -4799.7545     -4835.2278      35.473238      1791.9702      272.52524      8014.3441      1.2541927      0.65592851   
     42300  -4799.8988     -4833.948       34.049154      3756.1665      261.58463      8026.5756      1.2522814      0.65592851   
     42400  -4799.8091     -4834.5195      34.710443      2521.2029      266.66501      8024.3373      1.2526308      0.65592851   
     42500  -4800.6536     -4835.6158      34.962253     -27.925194      268.59956      8003.422       1.2559043      0.65592851   
     42600  -4798.5181     -4832.8916      34.373493      7714.9425      264.07638      7968.2481      1.2614481      0.65592851   
     42700  -4799.4585     -4834.8982      35.43967       4778.8754      272.26735      7929.2056      1.2676594      0.65592851   
     42800  -4799.4943     -4833.5921      34.097801      5521.6553      261.95836      7892.1457      1.273612       0.65592851   
     42900  -4798.6805     -4833.7227      35.042187      3193.3261      269.21366      7872.2902      1.2768243      0.65592851   
     43000  -4799.5572     -4833.7544      34.197187      4623.9787      262.7219       7870.4619      1.2771209      0.721703     
     43100  -4800.6603     -4834.5521      33.891783      3386.8312      260.37562      7887.6363      1.2743402      0.721703     
     43200  -4798.9771     -4833.8641      34.887021      3499.0131      268.02159      7917.2408      1.2695751      0.721703     
     43300  -4800.2183     -4835.0657      34.847421      2574.628       267.71736      7953.4883      1.2637891      0.721703     
     43400  -4797.6586     -4832.2814      34.622719      4232.1662      265.99107      7985.1235      1.2587822      0.721703     
     43500  -4796.6558     -4833.0842      36.428424      2815.55        279.86351      8009.6141      1.2549333      0.721703     
     43600  -4794.2643     -4831.7892      37.524918      971.34757      288.28739      8019.8736      1.2533279      0.721703     
     43700  -4795.8384     -4831.5193      35.680912      2423.5927      274.1207       8017.6327      1.2536782      0.721703     
     43800  -4796.9573     -4832.361       35.4037        4579.175       271.99101      8007.0178      1.2553402      0.721703     
     43900  -4796.7182     -4833.0252      36.307046      2895.5957      278.93101      7992.2627      1.2576578      0.721703     
     44000  -4796.9455     -4833.8745      36.929012      3571.1587      283.7093       7974.5914      1.2604447      0.73809224   
     44100  -4796.6513     -4832.863       36.211678      6986.8933      278.19834      7951.5508      1.264097       0.73809224   
     44200  -4796.3313     -4832.1537      35.822421      3568.9225      275.20786      7935.0676      1.2667229      0.73809224   
     44300  -4796.8002     -4832.0748      35.274627      9909.281       270.99939      7928.334       1.2677987      0.73809224   
     44400  -4796.315      -4833.6684      37.353444      2756.3277      286.97003      7934.4796      1.2668168      0.73809224   
     44500  -4796.9407     -4832.5059      35.565237      1661.5307      273.23202      7950.7411      1.2642258      0.73809224   
     44600  -4798.1576     -4833.6939      35.536312     -1383.2086      273.0098       7970.0369      1.261165       0.73809224   
     44700  -4799.2129     -4834.3019      35.088988     -5.7245445      269.57321      7984.8045      1.2588325      0.73809224   
     44800  -4799.7415     -4834.3144      34.572892      3732.2843      265.60828      7990.5053      1.2579344      0.73809224   
     44900  -4799.9049     -4834.0968      34.191962      2764.1992      262.68175      7990.2262      1.2579784      0.73809224   
     45000  -4798.9654     -4833.6744      34.708984     -1393.2894      266.65381      7981.7708      1.259311       0.66374685   
     45100  -4799.7463     -4833.5406      33.794231      1298.8298      259.62616      7967.0637      1.2616357      0.66374685   
     45200  -4800.291      -4834.5357      34.244741     -495.68164      263.08723      7947.8188      1.2646906      0.66374685   
     45300  -4799.8669     -4834.732       34.865067      1351.8683      267.85293      7923.6624      1.2685462      0.66374685   
     45400  -4797.7244     -4833.9074      36.183017      2357.4619      277.97815      7905.056       1.271532       0.66374685   
     45500  -4798.2401     -4833.5383      35.298167      3114.2212      271.18024      7904.1467      1.2716783      0.66374685   
     45600  -4797.3751     -4833.1637      35.788582      5426.5513      274.94789      7920.8747      1.2689926      0.66374685   
     45700  -4797.7686     -4833.2307      35.462003      6096.2161      272.43892      7949.3435      1.264448       0.66374685   
     45800  -4798.8326     -4834.8272      35.994601      4173.9247      276.53063      7974.2794      1.260494       0.66374685   
     45900  -4799.4851     -4834.1185      34.633387      3175.6752      266.07303      7986.2048      1.2586118      0.66374685   
     46000  -4798.7552     -4834.2913      35.536054      1314.5711      273.00783      7983.2468      1.2590782      0.74525764   
     46100  -4801.2203     -4835.0617      33.841318      4464.8671      259.98792      7970.1105      1.2611534      0.74525764   
     46200  -4800.1611     -4833.7824      33.621319      482.60336      258.29776      7950.493       1.2642652      0.74525764   
     46300  -4799.3085     -4833.9587      34.650221      1656.3842      266.20236      7924.1707      1.2684648      0.74525764   
     46400  -4798.5704     -4834.0212      35.450806      5377.67        272.3529       7903.1332      1.2718414      0.74525764   
     46500  -4799.3725     -4833.7824      34.40981       6827.8586      264.35539      7890.5013      1.2738774      0.74525764   
     46600  -4798.5336     -4833.9675      35.433894      5244.1212      272.22297      7890.2605      1.2739163      0.74525764   
     46700  -4799.4482     -4833.3043      33.856076      7252.4476      260.10129      7904.3474      1.271646       0.74525764   
     46800  -4799.8216     -4833.963       34.141375      6027.268       262.29312      7926.7597      1.2680505      0.74525764   
     46900  -4800.4081     -4834.4447      34.036649      2717.2261      261.48856      7949.1518      1.2644785      0.74525764   
     47000  -4800.4542     -4835.191       34.736798      4273.5885      266.86749      7965.3162      1.2619124      0.62423157   
     47100  -4800.0688     -4833.9315      33.862655      5457.3034      260.15183      7976.1434      1.2601995      0.62423157   
     47200  -4798.9718     -4833.8748      34.90295       4588.5907      268.14396      7979.2068      1.2597157      0.62423157   
     47300  -4798.9832     -4835.5514      36.568231      5393.3491      280.93758      7978.0589      1.2598969      0.62423157   
     47400  -4798.1356     -4834.3445      36.208834      4417.9976      278.1765       7972.8188      1.260725       0.62423157   
     47500  -4798.3087     -4834.2126      35.903943      4560.6382      275.83415      7966.3197      1.2617535      0.62423157   
     47600  -4798.6385     -4832.7104      34.071821      6503.2593      261.75877      7956.3287      1.2633379      0.62423157   
     47700  -4799.2888     -4834.0645      34.775679      4115.7807      267.16619      7944.8682      1.2651603      0.62423157   
     47800  -4800.4077     -4834.5807      34.172988      6785.4315      262.53599      7937.4967      1.2663352      0.62423157   
     47900  -4799.482      -4834.1671      34.685065      5778.021       266.47005      7933.9785      1.2668968      0.62423157   
     48000  -4799.4906     -4834.179       34.688436      1197.0103      266.49594      7935.8714      1.2665946      0.63402083   
     48100  -4798.5363     -4833.3162      34.779866      1789.4989      267.19836      7944.4582      1.2652256      0.63402083   
     48200  -4798.0442     -4833.9497      35.905457      3324.4804      275.84579      7957.212       1.2631977      0.63402083   
     48300  -4796.8968     -4832.2361      35.339303      251.11815      271.49627      7969.8296      1.2611978      0.63402083   
     48400  -4796.5648     -4832.4339      35.869125      4486.9659      275.56666      7981.4482      1.2593619      0.63402083   
     48500  -4796.5258     -4833.5591      37.03324       7062.2717      284.51004      7991.5767      1.2577658      0.63402083   
     48600  -4796.2489     -4831.2246      34.975701      3660.1314      268.70288      7994.9855      1.2572295      0.63402083   
     48700  -4798.465      -4833.872       35.407014      3348.346       272.01647      7994.0106      1.2573828      0.63402083   
     48800  -4799.0031     -4834.3534      35.350352      1427.1169      271.58116      7989.8025      1.2580451      0.63402083   
     48900  -4798.1107     -4834.1229      36.012215      3975.5442      276.66596      7979.3024      1.2597006      0.63402083   
     49000  -4798.1784     -4833.6619      35.483557      3475.3966      272.60451      7968.5453      1.2614011      0.63166375   
     49100  -4798.493      -4832.9679      34.474881      3010.4118      264.8553       7960.8712      1.262617       0.63166375   
     49200  -4798.1093     -4833.7727      35.663421      2310.4428      273.98632      7960.4932      1.262677       0.63166375   
     49300  -4796.3438     -4832.7552      36.411364      6091.8631      279.73245      7965.594       1.2618684      0.63166375   
     49400  -4797.6833     -4834.5228      36.839569     -336.54697      283.02216      7975.7077      1.2602683      0.63166375   
     49500  -4798.6234     -4833.1559      34.53244       6786.1774      265.2975       7987.0637      1.2584765      0.63166375   
     49600  -4798.5877     -4833.501       34.913296      5312.0807      268.22345      7997.5836      1.2568211      0.63166375   
     49700  -4799.0956     -4834.1916      35.096065      4568.8205      269.62759      8003.2091      1.2559377      0.63166375   
     49800  -4798.059      -4832.5946      34.535582      4325.3028      265.32164      8004.4874      1.2557371      0.63166375   
     49900  -4798.5727     -4832.5193      33.946603      3076.9779      260.79677      8004.0065      1.2558125      0.63166375   
     50000  -4798.5412     -4833.0124      34.471206      1426.7013      264.82707      7997.2366      1.2568756      0.77533769   
     50100  -4796.738      -4831.406       34.668029      2678.3331      266.33917      7984.2326      1.2589227      0.77533769   
     50200  -4798.4965     -4832.847       34.350575     -43.8075        263.90031      7970.2258      1.2611351      0.77533769   
     50300  -4799.6658     -4834.402       34.736202      2818.6802      266.86292      7953.1698      1.2638397      0.77533769   
     50400  -4799.3581     -4833.1946      33.836411      4587.8594      259.95021      7938.5842      1.2661618      0.77533769   
     50500  -4798.6792     -4834.4038      35.724604      3126.6063      274.45637      7935.8306      1.2666011      0.77533769   
     50600  -4798.7504     -4834.166       35.415564      3905.0477      272.08215      7942.8585      1.2654804      0.77533769   
     50700  -4797.6277     -4833.1767      35.549009      5583.8567      273.10735      7957.724       1.2631164      0.77533769   
     50800  -4798.946      -4833.8906      34.944626      2060.4491      268.46414      7976.0873      1.2602083      0.77533769   
     50900  -4799.365      -4833.3538      33.988797      2652.45        261.12093      7990.8198      1.2578849      0.77533769   
     51000  -4799.8268     -4836.048       36.221221      3606.1275      278.27166      8000.428       1.2563742      0.77973757   
     51100  -4801.224      -4834.5912      33.367111      5730.705       256.34479      7997.2908      1.2568671      0.77973757   
     51200  -4800.971      -4833.3044      32.333371      6632.7288      248.40302      7982.4428      1.259205       0.77973757   
     51300  -4801.4351     -4836.0289      34.593873      2421.8146      265.76946      7965.5331      1.2618781      0.77973757   
     51400  -4801.8343     -4835.1819      33.347556      5303.5818      256.19456      7943.9229      1.2653108      0.77973757   
     51500  -4801.2907     -4835.1311      33.840424      4431.9153      259.98105      7923.5727      1.2685605      0.77973757   
     51600  -4800.9745     -4834.5632      33.588624      8008.8989      258.04658      7905.955       1.2713874      0.77973757   
     51700  -4800.6797     -4835.3803      34.70065       6297.2504      266.58978      7896.3753      1.2729298      0.77973757   
     51800  -4801.3068     -4836.1353      34.828464      3779.649       267.57172      7900.1064      1.2723287      0.77973757   
     51900  -4801.58       -4835.1683      33.588287      1106.2539      258.04399      7916.7093      1.2696603      0.77973757   
     52000  -4801.012      -4835.6643      34.65229      -1207.0268      266.21826      7942.9718      1.2654623      0.7347645    
     52100  -4799.4846     -4833.86        34.375353      3832.3257      264.09067      7974.8506      1.2604038      0.7347645    
     52200  -4798.917      -4833.6479      34.730825      3796.4034      266.8216       8003.9099      1.2558277      0.7347645    
     52300  -4797.6507     -4833.2737      35.623053      4109.4065      273.6762       8025.5018      1.252449       0.7347645    
     52400  -4797.9841     -4832.3264      34.342291      5168.361       263.83667      8036.6572      1.2507105      0.7347645    
     52500  -4797.7028     -4832.4785      34.775668      5275.5416      267.16611      8035.0235      1.2509648      0.7347645    
     52600  -4797.5818     -4833.404       35.822246      4062.6949      275.20651      8018.81        1.2534942      0.7347645    
     52700  -4797.8541     -4832.2645      34.410418      5396.0768      264.36005      7990.8261      1.2578839      0.7347645    
     52800  -4797.3548     -4832.7822      35.42735       5494.932       272.17269      7959.412       1.2628485      0.7347645    
     52900  -4798.0164     -4832.4617      34.445286      5296.6889      264.62793      7929.3424      1.2676375      0.7347645    
     53000  -4799.897      -4833.645       33.748011      6137.7033      259.27108      7905.7923      1.2714136      0.68035283   
     53100  -4799.4784     -4834.918       35.439646      5238.7432      272.26716      7898.3886      1.2726054      0.68035283   
     53200  -4800.0749     -4835.1517      35.076737      6670.3336      269.4791       7905.0449      1.2715338      0.68035283   
     53300  -4799.703      -4834.7007      34.99767       3902.4157      268.87166      7923.4557      1.2685793      0.68035283   
     53400  -4799.7225     -4834.2552      34.532733      5338.9797      265.29975      7949.6043      1.2644065      0.68035283   
     53500  -4799.6763     -4833.9397      34.26341       2249.6527      263.23066      7978.952       1.2597559      0.68035283   
     53600  -4799.5479     -4833.5766      34.028727     -198.0303       261.42769      8002.1096      1.2561102      0.68035283   
     53700  -4799.085      -4833.0009      33.915958      897.66414      260.56134      8010.3744      1.2548142      0.68035283   
     53800  -4798.7763     -4832.9954      34.219123      5280.1404      262.89043      8004.5744      1.2557234      0.68035283   
     53900  -4799.4881     -4834.5598      35.071706      894.82315      269.44044      7993.6496      1.2574396      0.68035283   
     54000  -4799.0036     -4833.7903      34.786741      2734.1005      267.25118      7977.2488      1.2600248      0.67608371   
     54100  -4799.6367     -4834.2449      34.608234      4518.8423      265.87979      7960.8157      1.2626259      0.67608371   
     54200  -4800.0866     -4834.6833      34.596739      3989.834       265.79148      7945.5633      1.2650496      0.67608371   
     54300  -4799.527      -4832.9737      33.44665       5598.5553      256.95585      7934.1501      1.2668694      0.67608371   
     54400  -4799.9878     -4834.1813      34.193541      3632.9516      262.69389      7930.7371      1.2674146      0.67608371   
     54500  -4799.7708     -4834.8885      35.117673      4927.0105      269.79358      7935.5881      1.2666398      0.67608371   
     54600  -4798.851      -4833.7363      34.885244      3785.398       268.00794      7944.172       1.2652712      0.67608371   
     54700  -4799.6621     -4833.3778      33.715647      4849.9165      259.02244      7956.7119      1.2632771      0.67608371   
     54800  -4799.6048     -4834.2736      34.668859      2254.2872      266.34554      7972.1968      1.2608233      0.67608371   
     54900  -4800.3767     -4832.7354      32.358662      3061.6934      248.59732      7984.5871      1.2588668      0.67608371   
     55000  -4799.3347     -4834.9158      35.5811        3367.0317      273.35389      7992.1731      1.2576719      0.63316736   
     55100  -4799.1234     -4833.296       34.172603      4873.2322      262.53303      7994.3329      1.2573321      0.63316736   
     55200  -4799.9058     -4834.6956      34.78979       4260.6247      267.27461      7991.5994      1.2577622      0.63316736   
     55300  -4800.2459     -4834.9746      34.728686      5826.1503      266.80517      7977.9243      1.2599182      0.63316736   
     55400  -4799.6843     -4835.441       35.756684      4884.7919      274.70282      7959.3425      1.2628595      0.63316736   
     55500  -4799.7031     -4833.7039      34.000851      5804.3886      261.21354      7940.0604      1.2659263      0.63316736   
     55600  -4799.2072     -4832.9743      33.767183      6773.5337      259.41837      7927.0458      1.2680048      0.63316736   
     55700  -4798.5129     -4834.0352      35.522367      3861.164       272.90268      7924.131       1.2684712      0.63316736   
     55800  -4798.4501     -4832.9082      34.458085      4783.9063      264.72626      7932.7961      1.2670856      0.63316736   
     55900  -4797.9911     -4831.9357      33.944644      6565.6392      260.78172      7951.4566      1.264112       0.63316736   
     56000  -4797.3266     -4834.4977      37.171086      5736.9239      285.56905      7976.6833      1.2601142      0.65670811   
     56100  -4798.6974     -4833.5509      34.853502      6163.9806      267.76408      8000.6936      1.2563325      0.65670811   
     56200  -4798.0121     -4833.7723      35.760143      4906.6821      274.7294       8019.2168      1.2534306      0.65670811   
     56300  -4797.7065     -4833.7708      36.064355      2397.3614      277.06653      8025.6691      1.2524229      0.65670811   
     56400  -4797.4869     -4832.135       34.648135      3849.385       266.18633      8018.6268      1.2535228      0.65670811   
     56500  -4797.5849     -4832.6393      35.054416      6281.1052      269.30761      8008.7787      1.2550642      0.65670811   
     56600  -4798.7619     -4834.029       35.267099      2520.3924      270.94156      7997.2009      1.2568812      0.65670811   
     56700  -4797.4742     -4833.0653      35.591134      469.4408       273.43098      7980.8999      1.2594484      0.65670811   
     56800  -4796.3099     -4832.5305      36.220616      6249.4425      278.26701      7959.9884      1.2627571      0.65670811   
     56900  -4797.5312     -4834.3895      36.858321      7339.4259      283.16622      7938.0642      1.2662447      0.65670811   
     57000  -4798.3835     -4831.6263      33.242837      6260.5094      255.39005      7923.1146      1.2686339      0.8178999    
     57100  -4797.5514     -4834.5979      37.046501      4764.8755      284.61192      7916.5517      1.2696856      0.8178999    
     57200  -4798.1872     -4833.2051      35.017837      5139.7341      269.02659      7923.7927      1.2685253      0.8178999    
     57300  -4799.1799     -4834.5267      35.346851      2910.0366      271.55426      7953.1816      1.2638378      0.8178999    
     57400  -4799.4319     -4833.8978      34.465929      2924.7001      264.78653      7997.822       1.2567836      0.8178999    
[...]
    386300  -4799.1919     -4833.1089      33.917007      3208.3287      260.5694       7936.3977      1.2665106      0.65870539   
    386400  -4800.2025     -4835.6322      35.429724      688.14525      272.19093      7925.2883      1.2682859      0.65870539   
    386500  -4800.6798     -4833.7638      33.084043      1928.7235      254.1701       7919.6185      1.2691939      0.65870539   
    386600  -4798.8036     -4834.6412      35.837625      3844.1559      275.32466      7915.7685      1.2698112      0.65870539   
    386700  -4798.0383     -4833.9144      35.876066      5591.4052      275.61998      7919.9571      1.2691397      0.65870539   
    386800  -4797.763      -4832.7713      35.008243      6307.8623      268.95288      7933.7848      1.2669277      0.65870539   
    386900  -4798.2176     -4832.524       34.306358      4649.9842      263.56061      7953.611       1.2637696      0.65870539   
    387000  -4798.2196     -4833.4691      35.249468      1597.381       270.80611      7972.3809      1.2607942      0.70960789   
    387100  -4797.8488     -4833.5072      35.658368      5409.6691      273.9475       7985.4479      1.2587311      0.70960789   
    387200  -4797.2593     -4832.5465      35.287136      812.28772      271.09549      7992.564       1.2576104      0.70960789   
    387300  -4796.732      -4831.4244      34.69241      -588.42801      266.52648      7993.1375      1.2575202      0.70960789   
    387400  -4796.2334     -4832.3311      36.09771       1810.6308      277.32278      7988.2331      1.2582922      0.70960789   
    387500  -4795.6569     -4830.8638      35.206916      3628.6816      270.4792       7977.6203      1.2599662      0.70960789   
    387600  -4796.6037     -4832.3787      35.774984      4273.959       274.84341      7969.2552      1.2612887      0.70960789   
    387700  -4798.1442     -4832.8688      34.724546      1679.6039      266.77336      7961.6424      1.2624947      0.70960789   
    387800  -4797.8655     -4833.2129      35.347407      5695.8145      271.55853      7952.7464      1.263907       0.70960789   
    387900  -4797.2791     -4831.5615      34.282352      3453.6478      263.37619      7944.338       1.2652447      0.70960789   
    388000  -4797.6056     -4832.6266      35.021026      5278.8501      269.05109      7941.7324      1.2656598      0.7996724    
    388100  -4797.5303     -4833.1875      35.65718       3299.4571      273.93838      7946.2007      1.2649481      0.7996724    
    388200  -4798.8057     -4832.6248      33.81918       3591.1185      259.81784      7955.9383      1.2633999      0.7996724    
    388300  -4799.3963     -4833.625       34.228744      2743.893       262.96434      7967.9163      1.2615007      0.7996724    
    388400  -4799.9541     -4835.7812      35.827156      2838.7071      275.24423      7978.6768      1.2597993      0.7996724    
    388500  -4800.9268     -4834.5877      33.660889      3013.2713      258.60176      7979.2308      1.2597119      0.7996724    
    388600  -4800.0228     -4833.1147      33.091858      7053.9082      254.23014      7972.5163      1.2607728      0.7996724    
    388700  -4799.9868     -4833.2343      33.24746       3666.7484      255.42557      7962.3033      1.2623899      0.7996724    
    388800  -4799.2405     -4833.387       34.146531      8512.1977      262.33273      7949.6823      1.2643941      0.7996724    
    388900  -4799.2846     -4835.0326      35.747976      5349.1528      274.63593      7940.6076      1.2658391      0.7996724    
    389000  -4798.6139     -4832.1362      33.522289      2669.7082      257.53695      7934.4691      1.2668184      0.73416942   
    389100  -4797.5975     -4833.2114      35.613879      4190.1884      273.60572      7932.0381      1.2672067      0.73416942   
    389200  -4797.3088     -4833.4193      36.110478      5633.276       277.42087      7938.1881      1.2662249      0.73416942   
    389300  -4796.8851     -4833.4306      36.545567      4729.3169      280.76347      7952.9136      1.2638804      0.73416942   
    389400  -4798.6141     -4833.8747      35.26057       3090.5815      270.8914       7971.8301      1.2608813      0.73416942   
    389500  -4798.1673     -4834.6313      36.464001      2233.2586      280.13683      7986.1742      1.2586166      0.73416942   
    389600  -4798.4459     -4833.116       34.670161      87.859341      266.35555      7989.9771      1.2580176      0.73416942   
    389700  -4797.302      -4832.1402      34.838181      2977.068       267.64637      7982.9442      1.2591259      0.73416942   
    389800  -4797.2187     -4832.2855      35.066841      4850.0257      269.40306      7967.7976      1.2615195      0.73416942   
    389900  -4797.7605     -4831.9533      34.192748      5351.1872      262.6878       7951.6021      1.2640889      0.73416942   
    390000  -4798.179      -4833.5156      35.336587      5010.6445      271.47541      7939.2269      1.2660593      0.63435462   
    390100  -4798.5162     -4832.4212      33.904978      2990.0584      260.47699      7934.0291      1.2668887      0.63435462   
    390200  -4798.2358     -4833.1314      34.895616      3212.8522      268.08762      7934.9125      1.2667476      0.63435462   
    390300  -4798.9886     -4833.1212      34.132585      6481.1579      262.22559      7936.2164      1.2665395      0.63435462   
    390400  -4799.3258     -4833.5151      34.189344      3931.4488      262.66164      7941.4422      1.2657061      0.63435462   
    390500  -4798.6806     -4832.7517      34.071152      1949.2129      261.75363      7949.5505      1.2644151      0.63435462   
    390600  -4798.3106     -4833.3229      35.01236       2370.04        268.98451      7957.9099      1.2630869      0.63435462   
    390700  -4798.2534     -4834.893       36.639625      6933.4673      281.48607      7966.4893      1.2617266      0.63435462   
    390800  -4798.5333     -4833.2791      34.745791      6911.6599      266.93658      7974.6026      1.260443       0.63435462   
    390900  -4799.1655     -4833.0827      33.917216      3028.7808      260.571        7981.4769      1.2593574      0.63435462   
    391000  -4800.3831     -4833.1998      32.816708      1396.4893      252.11628      7981.4531      1.2593611      0.65420081   
    391100  -4798.6924     -4833.9811      35.288766      3131.3944      271.10802      7975.3537      1.2603243      0.65420081   
    391200  -4800.1801     -4834.8729      34.692807      2967.3201      266.52953      7964.1381      1.2620991      0.65420081   
    391300  -4801.4042     -4835.3483      33.944139     -345.12377      260.77784      7949.3827      1.2644418      0.65420081   
    391400  -4800.4697     -4834.6783      34.208621      2915.911       262.80974      7931.8206      1.2672414      0.65420081   
    391500  -4798.9249     -4834.1325      35.207607      5786.5314      270.48451      7919.5202      1.2692097      0.65420081   
    391600  -4799.2877     -4834.3456      35.057977      4812.0814      269.33496      7919.3458      1.2692376      0.65420081   
    391700  -4798.9314     -4834.6165      35.685097      3952.7431      274.15285      7931.4301      1.2673038      0.65420081   
    391800  -4800.0743     -4834.0631      33.988768      7362.6631      261.12071      7950.5815      1.2642511      0.65420081   
    391900  -4800.3018     -4835.7173      35.415424      7001.5189      272.08108      7969.7495      1.2612105      0.65420081   
    392000  -4799.2635     -4834.1581      34.894586      2425.0438      268.0797       7980.3259      1.259539       0.67704025   
    392100  -4799.7746     -4835.1058      35.331211      880.36847      271.4341       7987.1368      1.258465       0.67704025   
    392200  -4798.437      -4833.1486      34.711632      2198.3359      266.67416      7990.6466      1.2579122      0.67704025   
    392300  -4797.5218     -4833.1373      35.61541       2566.7973      273.61748      7987.3465      1.2584319      0.67704025   
    392400  -4798.4621     -4834.6191      36.156995      2239.7624      277.77824      7980.4788      1.2595149      0.67704025   
    392500  -4800.5434     -4834.5518      34.008448      2585.8449      261.2719       7971.3389      1.260959       0.67704025   
    392600  -4800.4669     -4835.1148      34.647876      5681.1991      266.18435      7956.2953      1.2633432      0.67704025   
    392700  -4800.8308     -4834.2268      33.396002      3408.8725      256.56675      7940.2836      1.2658908      0.67704025   
    392800  -4800.8428     -4834.75        33.907157      4621.6318      260.49373      7926.314       1.2681218      0.67704025   
    392900  -4800.3238     -4835.3521      35.028277      3634.1041      269.1068       7912.0068      1.270415       0.67704025   
    393000  -4800.0829     -4834.798       34.715061      3780.598       266.7005       7905.7931      1.2714134      0.72462397   
    393100  -4798.7612     -4834.183       35.421784      7206.2765      272.12994      7914.5008      1.2700146      0.72462397   
    393200  -4799.1453     -4833.5926      34.447379      5163.8966      264.64401      7938.6253      1.2661552      0.72462397   
    393300  -4800.1182     -4833.7342      33.616028      7011.4712      258.25711      7965.6385      1.2618614      0.72462397   
    393400  -4800.5024     -4834.9906      34.488197      2687.1734      264.9576       7988.8796      1.2581904      0.72462397   
    393500  -4799.6356     -4833.5919      33.956321      2989.0737      260.87143      7996.1591      1.257045       0.72462397   
    393600  -4798.9897     -4834.152       35.162297      3498.6157      270.13641      7989.1235      1.258152       0.72462397   
    393700  -4798.3667     -4833.1449      34.778186      15.586695      267.18546      7978.224       1.2598708      0.72462397   
    393800  -4799.3366     -4834.1774      34.840833     -312.4489       267.66675      7964.2101      1.2620877      0.72462397   
    393900  -4798.8262     -4832.8948      34.068601      1109.5133      261.73403      7944.1935      1.2652677      0.72462397   
    394000  -4798.864      -4834.5039      35.63985       1544.4214      273.80524      7924.8088      1.2683627      0.66311894   
    394100  -4799.4321     -4834.346       34.913893      4502.8733      268.22803      7910.4298      1.2706682      0.66311894   
    394200  -4800.2089     -4835.7379      35.528961      6212.1254      272.95333      7906.4037      1.2713153      0.66311894   
    394300  -4800.2003     -4836.8268      36.626508      2760.5426      281.3853       7919.5313      1.2692079      0.66311894   
    394400  -4798.7166     -4834.1561      35.439492      6113.5009      272.26598      7946.3812      1.2649194      0.66311894   
    394500  -4798.77       -4833.5008      34.730861      3569.1739      266.82188      7978.7739      1.259784       0.66311894   
    394600  -4797.7302     -4832.3233      34.593111      4804.3958      265.7636       8008.3888      1.2551253      0.66311894   
    394700  -4798.5866     -4833.4304      34.843736      4277.3246      267.68905      8032.3619      1.2513793      0.66311894   
    394800  -4798.7357     -4834.45        35.714303      4466.1062      274.37723      8040.1213      1.2501717      0.66311894   
    394900  -4798.46       -4833.6253      35.165304      5380.7724      270.15952      8029.6948      1.251795       0.66311894   
    395000  -4797.7823     -4832.8157      35.033393      7250.5721      269.1461       8007.2329      1.2553065      0.68360768   
    395100  -4797.6738     -4833.2118      35.538053      4762.6156      273.02318      7978.8389      1.2597737      0.68360768   
    395200  -4797.8271     -4833.233       35.405965      5900.7105      272.00841      7950.1297      1.264323       0.68360768   
    395300  -4798.4747     -4833.9236      35.448864      6027.0225      272.33798      7928.5056      1.2677713      0.68360768   
    395400  -4798.6775     -4834.7251      36.047662      5391.6657      276.93828      7919.1168      1.2692743      0.68360768   
    395500  -4799.6231     -4835.1245      35.5014        1827.9773      272.74159      7926.4785      1.2680955      0.68360768   
    395600  -4798.9788     -4833.959       34.98023       5399.3573      268.73768      7943.0192      1.2654548      0.68360768   
    395700  -4799.0377     -4834.3325      35.294815      2998.9205      271.15449      7965.2842      1.2619175      0.68360768   
    395800  -4798.3029     -4833.8561      35.553255      3152.6427      273.13997      7989.0903      1.2581572      0.68360768   
    395900  -4796.0852     -4831.9814      35.896245      5050.702       275.77501      8011.3793      1.2546568      0.68360768   
    396000  -4797.8047     -4832.1642      34.359459      5001.6746      263.96856      8028.1704      1.2520327      0.67736648   
    396100  -4798.4672     -4833.9043      35.437129      4326.106       272.24783      8037.4103      1.2505933      0.67736648   
    396200  -4798.23       -4833.4735      35.243508      4745.3184      270.76032      8031.7393      1.2514763      0.67736648   
    396300  -4797.3707     -4833.1634      35.792663      1349.2636      274.97924      8008.7033      1.255076       0.67736648   
    396400  -4798.3666     -4832.2954      33.928745      4416.187       260.65958      7976.713       1.2601095      0.67736648   
    396500  -4797.8949     -4832.7947      34.899881      6856.0634      268.12039      7942.7935      1.2654907      0.67736648   
    396600  -4797.9402     -4833.4153      35.47512       1954.8033      272.53969      7914.8884      1.2699524      0.67736648   
    396700  -4797.2194     -4832.5681      35.34873       4163.8949      271.5687       7901.1878      1.2721545      0.67736648   
    396800  -4796.4944     -4832.8957      36.40132       4390.7082      279.65528      7910.1705      1.2707099      0.67736648   
    396900  -4796.6467     -4831.0799      34.433209      6736.0297      264.53515      7938.1861      1.2662252      0.67736648   
    397000  -4796.4894     -4832.3796      35.890134      5184.0137      275.72807      7982.383       1.2592144      0.68543128   
    397100  -4796.787      -4832.1673      35.380322      2253.1466      271.81141      8026.6509      1.2522697      0.68543128   
    397200  -4796.0901     -4832.4989      36.408757      3831.7681      279.71241      8055.6179      1.2477667      0.68543128   
    397300  -4796.0704     -4831.8399      35.769427      4048.6606      274.80072      8065.1177      1.246297       0.68543128   
    397400  -4795.9483     -4830.2502      34.301906      2401.9149      263.52641      8051.8795      1.248346       0.68543128   
    397500  -4796.7008     -4831.9308      35.230062      1465.109       270.65702      8020.9554      1.2531589      0.68543128   
    397600  -4797.4169     -4833.4146      35.997782      5911.7924      276.55507      7981.9172      1.2592879      0.68543128   
    397700  -4797.9818     -4834.7073      36.725557      3831.752       282.14625      7944.2498      1.2652588      0.68543128   
    397800  -4798.029      -4833.6199      35.590842      5776.0199      273.42873      7909.086       1.2708841      0.68543128   
    397900  -4796.4476     -4832.4795      36.031888      7247.689       276.8171       7885.0987      1.2747503      0.68543128   
    398000  -4797.5003     -4834.1227      36.622454      4143.4053      281.35416      7886.3096      1.2745545      0.69676265   
    398100  -4798.5793     -4833.1265      34.547232      6522.9196      265.41114      7908.4246      1.2709904      0.69676265   
    398200  -4797.9759     -4832.7078      34.731964      10556.428      266.83035      7941.6786      1.2656684      0.69676265   
    398300  -4798.3166     -4834.8258      36.50923       3233.8907      280.48431      7980.972       1.259437       0.69676265   
    398400  -4799.5457     -4834.5799      35.034232     -561.44318      269.15255      8011.6617      1.2546126      0.69676265   
    398500  -4798.8699     -4832.0827      33.212723      800.34734      255.15869      8023.8574      1.2527057      0.69676265   
    398600  -4801.9628     -4835.5393      33.576582      4091.8193      257.95407      8021.6874      1.2530446      0.69676265   
    398700  -4799.8417     -4835.0566      35.21493       3558.642       270.54077      8001.9053      1.2561423      0.69676265   
    398800  -4799.9712     -4834.8543      34.883146      5322.6493      267.99182      7967.1493      1.2616221      0.69676265   
    398900  -4799.6097     -4834.8862      35.276501      4957.1659      271.01379      7929.507       1.2676112      0.69676265   
    399000  -4799.7205     -4834.1866      34.466121      4046.9868      264.788        7897.6482      1.2727247      0.775375     
    399100  -4799.6333     -4834.0284      34.39516       4676.19        264.24284      7877.0308      1.2760559      0.775375     
    399200  -4799.3405     -4833.2217      33.881259      6952.0948      260.29476      7877.781       1.2759344      0.775375     
    399300  -4798.8096     -4833.0791      34.269551      1457.7544      263.27784      7898.3267      1.2726153      0.775375     
    399400  -4798.8775     -4833.4323      34.554792      5056.3387      265.46922      7932.9836      1.2670557      0.775375     
    399500  -4799.6167     -4834.5541      34.937392      3256.0228      268.40857      7972.2763      1.2608108      0.775375     
    399600  -4798.5486     -4834.1992      35.650635      2790.0608      273.8881       8002.9153      1.2559838      0.775375     
    399700  -4798.858      -4831.9932      33.135197      1019.463       254.5631       8020.4522      1.2532375      0.775375     
    399800  -4797.5467     -4832.6026      35.055838      1918.9454      269.31853      8027.553       1.252129       0.775375     
    399900  -4798.8959     -4833.6734      34.777519      3579.6183      267.18033      8021.2763      1.2531088      0.775375     
    400000  -4798.8806     -4833.5911      34.710461      4052.3953      266.66516      8001.1622      1.256259       0.64297305   
    400100  -4798.6228     -4834.1887      35.565907      6346.5918      273.23717      7976.1693      1.2601954      0.64297305   
    400200  -4798.7176     -4832.8034      34.085811      4119.2852      261.86625      7952.2091      1.2639924      0.64297305   
    400300  -4798.4865     -4834.5383      36.05173       5657.351       276.96954      7938.9152      1.266109       0.64297305   
    400340  -4799.0023     -4833.9516      34.949252      4634.6603      268.49968      7937.0326      1.2664093      0.64297305   
Loop time of 2127.36 on 28 procs for 200000 steps with 1008 atoms

Performance: 4.061 ns/day, 5.909 hours/ns, 94.013 timesteps/s, 94.765 katom-step/s
99.5% CPU use with 28 MPI tasks x 1 OpenMP threads

MPI task timing breakdown:
Section |  min time  |  avg time  |  max time  |%varavg| %total
---------------------------------------------------------------
Pair    | 1733.6     | 1819       | 1944.9     | 133.4 | 85.51
Neigh   | 3.2666     | 3.4441     | 3.6277     |   5.4 |  0.16
Comm    | 144.51     | 280.24     | 369.93     | 361.8 | 13.17
Output  | 0.1367     | 0.16057    | 0.22663    |   5.1 |  0.01
Modify  | 15.449     | 23.323     | 35.367     | 150.1 |  1.10
Other   |            | 1.164      |            |       |  0.05

Nlocal:             36 ave          40 max          32 min
Histogram: 1 3 3 5 0 4 4 5 2 1
Nghost:        1040.75 ave        1065 max        1018 min
Histogram: 1 1 7 2 5 4 1 4 1 2
Neighs:              0 ave           0 max           0 min
Histogram: 28 0 0 0 0 0 0 0 0 0
FullNghs:      5301.29 ave        5899 max        4676 min
Histogram: 1 4 1 4 3 3 4 3 4 1

Total # of neighbors = 148436
Ave neighs/atom = 147.25794
Neighbor list builds = 19806
Dangerous builds = 18838
Total wall time: 1:11:23
