LAMMPS (27 Jun 2024)
KOKKOS mode with Kokkos version 4.3.1 is enabled (src/KOKKOS/kokkos.cpp:72)
  will use up to 1 GPU(s) per node
WARNING: When using a single thread, the Kokkos Serial backend (i.e. Makefile.kokkos_mpi_only) gives better performance than the OpenMP backend (src/KOKKOS/kokkos.cpp:202)
  using 1 OpenMP thread(s) per MPI task
Reading data file ...
  orthogonal box = (0 0 0) to (20.13213 20.132272 35.107669)
  1 by 1 by 1 MPI processor grid
  reading atoms ...
  2160 atoms
  read_data CPU = 0.010 seconds
ACE/AL version: 2023.11.25
Loading /pc2/users/a/acepdw01/work/phase_diagram/pot_dir/interim_potential_ladder_step_1.yaml
Total number of basis functions
	H: 23 (r=1) 664 (r>1)
	O: 23 (r=1) 664 (r>1)
Mapping LAMMPS atom type #1(H) -> ACE species type #0
Mapping LAMMPS atom type #2(O) -> ACE species type #1
Loading ASI /pc2/users/a/acepdw01/work/phase_diagram/pot_dir/interim_potential_ladder_step_1.asi
LINEAR ASI is loaded

CITE-CITE-CITE-CITE-CITE-CITE-CITE-CITE-CITE-CITE-CITE-CITE-CITE

Your simulation uses code contributions which should be cited:
- Type Label Framework: https://doi.org/10.1021/acs.jpcb.3c08419
The log file lists these citations in BibTeX format.

CITE-CITE-CITE-CITE-CITE-CITE-CITE-CITE-CITE-CITE-CITE-CITE-CITE

Switching to 'neigh_modify every 1 delay 0 check yes' setting during minimization
Neighbor list info ...
  update: every = 1 steps, delay = 0 steps, check = yes
  max neighbors/atom: 2000, page size: 100000
  master list distance cutoff = 6.5
  ghost atom cutoff = 6.5
  binsize = 6.5, bins = 4 4 6
  1 neighbor lists, perpetual/occasional/extra = 1 0 0
  (1) pair pace/extrapolation/kk, perpetual
      attributes: full, newton on, kokkos_device
      pair build: full/bin/kk/device
      stencil: full/bin/3d
      bin: kk/device
Setting up cg/kk style minimization ...
  Unit style    : metal
  Current step  : 0
WARNING: Fix with atom-based arrays not compatible with sending data in Kokkos communication, switching to classic exchange/border communication (src/KOKKOS/comm_kokkos.cpp:754)
WARNING: Fix with atom-based arrays not compatible with Kokkos sorting on device, switching to classic host sorting (src/KOKKOS/atom_kokkos.cpp:216)
Per MPI rank memory allocation (min/avg/max) = 1808 | 1808 | 1808 Mbytes
   Step         TotEng         PotEng         KinEng         Press           Temp          Volume        Density     c_max_pace_gamma
         0  -10394.812     -10394.812      0              10356.492      0              14229.332      1.513704       0.94301682   
       100  -10405.399     -10405.399      0              6153.7788      0              14229.332      1.513704       0.94301682   
       200  -10407.585     -10407.585      0              6517.8061      0              14229.332      1.513704       0.94301682   
       300  -10408.546     -10408.546      0              6308.0647      0              14229.332      1.513704       0.94301682   
       400  -10408.808     -10408.808      0              6400.9541      0              14229.332      1.513704       0.94301682   
       500  -10408.847     -10408.847      0              6348.9853      0              14229.332      1.513704       0.94301682   
       600  -10408.847     -10408.847      0              6348.28        0              14229.332      1.513704       0.94301682   
       700  -10408.848     -10408.848      0              6349.4235      0              14229.332      1.513704       0.94301682   
       800  -10408.849     -10408.849      0              6350.9539      0              14229.332      1.513704       0.94301682   
       900  -10408.849     -10408.849      0              6350.9535      0              14229.332      1.513704       0.94301682   
       917  -10408.849     -10408.849      0              6350.9133      0              14229.332      1.513704       0.94301682   
Loop time of 8.91803 on 1 procs for 917 steps with 2160 atoms

99.8% CPU use with 1 MPI tasks x 1 OpenMP threads

Minimization stats:
  Stopping criterion = force tolerance
  Energy initial, next-to-last, final = 
     -10394.8116753497  -10408.8486802649  -10408.8486802747
  Force two-norm initial, final = 17.431636 0.00049136389
  Force max component initial, final = 3.1552255 0.00018314814
  Final line search alpha, max atom move = 1 0.00018314814
  Iterations, force evaluations = 917 1830

MPI task timing breakdown:
Section |  min time  |  avg time  |  max time  |%varavg| %total
---------------------------------------------------------------
Pair    | 8.2104     | 8.2104     | 8.2104     |   0.0 | 92.07
Neigh   | 0.022762   | 0.022762   | 0.022762   |   0.0 |  0.26
Comm    | 0.057491   | 0.057491   | 0.057491   |   0.0 |  0.64
Output  | 0.00126    | 0.00126    | 0.00126    |   0.0 |  0.01
Modify  | 0.38484    | 0.38484    | 0.38484    |   0.0 |  4.32
Other   |            | 0.2413     |            |       |  2.71

Nlocal:           2160 ave        2160 max        2160 min
Histogram: 1 0 0 0 0 0 0 0 0 0
Nghost:           5971 ave        5971 max        5971 min
Histogram: 1 0 0 0 0 0 0 0 0 0
Neighs:              0 ave           0 max           0 min
Histogram: 1 0 0 0 0 0 0 0 0 0
FullNghs:       373378 ave      373378 max      373378 min
Histogram: 1 0 0 0 0 0 0 0 0 0

Total # of neighbors = 373378
Ave neighs/atom = 172.86019
Neighbor list builds = 51
Dangerous builds = 0
Setting up Verlet run ...
  Unit style    : metal
  Current step  : 917
  Time step     : 0.0005
WARNING: Fix with atom-based arrays not compatible with Kokkos sorting on device, switching to classic host sorting (src/KOKKOS/atom_kokkos.cpp:216)
Per MPI rank memory allocation (min/avg/max) = 1810 | 1810 | 1810 Mbytes
   Step         TotEng         PotEng         KinEng         Press           Temp          Volume        Density     c_max_pace_gamma
       917  -10269.312     -10408.849      139.53633      16825.138      500            14229.332      1.513704       0.94301682   
      1000  -10243.208     -10317.027      73.81916       33891.178      264.51592      14191.272      1.5177637      0.80012889   
      1100  -10213.541     -10307.931      94.389864      31185.783      338.22685      14114.725      1.5259948      0.80012889   
      1200  -10189.636     -10295.453      105.81739      34218.515      379.17506      14040.89       1.5340194      0.80012889   
      1300  -10172.559     -10285.435      112.87575      36409.442      404.46727      14003.496      1.5381157      0.80012889   
      1400  -10162.511     -10281.529      119.0179       35369.045      426.47641      14024.508      1.5358112      0.80012889   
      1500  -10152.973     -10277.207      124.2338       35687.5        445.16651      14100.744      1.5275078      0.80012889   
      1600  -10145.312     -10272.259      126.94766      34961.233      454.89108      14222.254      1.5144573      0.80012889   
      1700  -10143.226     -10274.825      131.59859      29536.763      471.55674      14363.944      1.4995183      0.80012889   
      1800  -10141.507     -10266.72       125.21262      31741.097      448.67393      14498.18       1.4856345      0.80012889   
      1900  -10136.664     -10265.565      128.9014       26271.261      461.89192      14607.768      1.4744892      0.80012889   
      2000  -10137.104     -10269.33       132.2261       27276.289      473.80529      14679.047      1.4673294      0.79649524   
      2100  -10133.829     -10262.354      128.52439      25862.551      460.54095      14704.256      1.4648138      0.79649524   
      2200  -10126.749     -10259.261      132.51267      29843.076      474.83215      14694.043      1.4658319      0.79649524   
      2300  -10121.208     -10257.604      136.39577      28811.896      488.74645      14663.717      1.4688634      0.79649524   
      2400  -10120         -10255.778      135.77803      29414.558      486.5329       14630.321      1.4722163      0.79649524   
      2500  -10113.766     -10254.569      140.8031       29074.511      504.53923      14600.441      1.4752292      0.79649524   
      2600  -10109.654     -10246.973      137.31875      33824.7        492.05375      14581.942      1.4771006      0.79649524   
      2700  -10110.888     -10247.443      136.55537      30857.624      489.31836      14586.802      1.4766085      0.79649524   
      2800  -10108.075     -10250.037      141.96187      33320.307      508.69144      14615.662      1.4736928      0.79649524   
      2900  -10107.821     -10249.399      141.57726      31319.076      507.31329      14656.434      1.4695933      0.79649524   
      3000  -10106.451     -10248.084      141.63307      35756.075      507.51325      14704.866      1.464753       0.93562579   
      3100  -10112.552     -10251.675      139.12267      28766.356      498.51773      14752.067      1.4600663      0.93562579   
      3200  -10112.765     -10247.266      134.50059      26522.177      481.95547      14785.36       1.4567786      0.93562579   
      3300  -10111.811     -10250.828      139.0176       27600.199      498.14124      14801.389      1.455201       0.93562579   
      3400  -10113.777     -10252.257      138.48051      27813.706      496.21669      14799.816      1.4553557      0.93562579   
      3500  -10116.907     -10255.531      138.62384      29108.759      496.7303       14779.611      1.4573453      0.93562579   
      3600  -10114.388     -10251.399      137.01071      28671.215      490.94995      14743.652      1.4608997      0.93562579   
      3700  -10110.037     -10248.139      138.10141      27925.423      494.85828      14701.378      1.4651005      0.93562579   
      3800  -10106.789     -10244.957      138.16734      30730.984      495.09453      14667.224      1.4685122      0.93562579   
      3900  -10107.114     -10246.719      139.60491      32062.772      500.24577      14647.645      1.470475       0.93562579   
      4000  -10104.749     -10246.907      142.15833      33020.413      509.39542      14648.152      1.4704241      0.77949827   
      4100  -10103.016     -10243.946      140.93053      31306.303      504.99585      14674.072      1.4678268      0.77949827   
      4200  -10101.952     -10245.834      143.88186      31753.352      515.57135      14723.738      1.4628756      0.77949827   
      4300  -10102.818     -10244.363      141.54471      31726.546      507.19664      14788.689      1.4564507      0.77949827   
      4400  -10105.935     -10246.528      140.59276      32040.374      503.78551      14858.872      1.4495714      0.77949827   
      4500  -10106.118     -10246.107      139.98885      30706.392      501.62152      14918.319      1.4437951      0.77949827   
      4600  -10103.364     -10246.431      143.06705      30539.483      512.65163      14956.723      1.440088       0.77949827   
      4700  -10104.939     -10244.335      139.39598      27838.172      499.49708      14971.078      1.4387071      0.77949827   
      4800  -10104.535     -10247.49       142.95551      29480.81       512.25193      14962.888      1.4394946      0.77949827   
      4900  -10103.568     -10240.77       137.20157      29066.172      491.63388      14932.118      1.4424609      0.77949827   
      5000  -10105.55      -10247.757      142.20735      29921.177      509.57106      14884.033      1.447121       0.90224896   
      5100  -10104.573     -10246.019      141.44555      31251.238      506.8413       14821.165      1.4532593      0.90224896   
      5200  -10107.147     -10246.281      139.1335       28768.053      498.55655      14757.668      1.4595122      0.90224896   
      5300  -10109.365     -10249.849      140.48349      32055.85       503.39398      14703.729      1.4648662      0.90224896   
      5400  -10107.329     -10250.37       143.0418       30873.091      512.56116      14667.927      1.4684417      0.90224896   
      5500  -10110.269     -10252.653      142.3842       33170.803      510.20478      14657.028      1.4695337      0.90224896   
      5600  -10112.776     -10249.312      136.53637      29813.471      489.25025      14671.6        1.4680742      0.90224896   
      5700  -10110.554     -10249.515      138.9611       29320.466      497.93878      14705.37       1.4647028      0.90224896   
      5800  -10110.948     -10248.976      138.0274       32721.019      494.59308      14747.948      1.4604741      0.90224896   
      5900  -10110.996     -10248.481      137.48482      29883.235      492.64886      14798.854      1.4554503      0.90224896   
      6000  -10114.117     -10254.8        140.68341      27895.797      504.11036      14847.715      1.4506607      0.86830335   
      6100  -10108.335     -10247.186      138.85032      29811.636      497.54183      14886.478      1.4468833      0.86830335   
      6200  -10109.189     -10247.419      138.22985      28550.577      495.3185       14917.146      1.4439087      0.86830335   
      6300  -10109.195     -10245.28       136.08527      28968.242      487.63385      14932.682      1.4424064      0.86830335   
      6400  -10104.271     -10244.558      140.28688      27004.981      502.68946      14934.035      1.4422757      0.86830335   
      6500  -10102.919     -10246.702      143.78257      28161.208      515.21555      14921.193      1.443517       0.86830335   
      6600  -10102.818     -10242.593      139.77509      28960.715      500.85555      14901.661      1.4454091      0.86830335   
      6700  -10103.935     -10248.259      144.32478      29035.121      517.15846      14881.121      1.4474042      0.86830335   
      6800  -10101.309     -10243.991      142.68157      31804.305      511.27034      14857.986      1.4496579      0.86830335   
      6900  -10102.524     -10243.987      141.46304      32496.117      506.90399      14841.554      1.4512628      0.86830335   
      7000  -10107.003     -10245.832      138.82987      29329.749      497.46855      14832.379      1.4521606      0.85155122   
      7100  -10105.63      -10241.891      136.26069      28209.621      488.26243      14825.3        1.452854       0.85155122   
      7200  -10106.85      -10244.685      137.83433      28345.672      493.90123      14824.735      1.4529094      0.85155122   
      7300  -10109.859     -10250.074      140.21502      27243.274      502.43195      14827.068      1.4526807      0.85155122   
      7400  -10107.566     -10248.538      140.97234      30497.202      505.14566      14835.447      1.4518603      0.85155122   
      7500  -10110.489     -10250.694      140.20545      27951.272      502.39767      14846.685      1.4507613      0.85155122   
      7600  -10106.267     -10243.905      137.63835      29998.167      493.19898      14855.866      1.4498648      0.85155122   
      7700  -10104.045     -10242.319      138.27451      31353.913      495.47854      14869.519      1.4485335      0.85155122   
      7800  -10106.989     -10245.022      138.03286      32469.4        494.61264      14885.456      1.4469826      0.85155122   
      7900  -10108.118     -10243.268      135.15045      31630.626      484.28411      14897.289      1.4458333      0.85155122   
      8000  -10110.643     -10246.313      135.66987      31231.235      486.14533      14900.585      1.4455135      0.78198056   
      8100  -10108.408     -10244.574      136.16573      27964.628      487.92217      14900.859      1.4454869      0.78198056   
      8200  -10105.757     -10247.116      141.35877      29343.929      506.53037      14895.84       1.445974       0.78198056   
      8300  -10104.915     -10244.893      139.97823      29770.814      501.58347      14889.442      1.4465953      0.78198056   
      8400  -10108.65      -10244.85       136.20011      30204.543      488.04534      14884.974      1.4470295      0.78198056   
      8500  -10107.857     -10245.715      137.85845      29041.414      493.98767      14885.147      1.4470127      0.78198056   
      8600  -10104.186     -10242.148      137.96281      30853.076      494.36163      14897.139      1.4458479      0.78198056   
      8700  -10101.597     -10238.492      136.89452      31754.499      490.53363      14923.769      1.4432679      0.78198056   
      8800  -10107.274     -10244.438      137.16423      29486.044      491.50008      14968.065      1.4389967      0.78198056   
      8900  -10105.479     -10246.617      141.13822      29064.697      505.74005      15016.554      1.4343501      0.78198056   
      9000  -10109.65      -10243.524      133.87445      29400.737      479.71183      15058.9        1.4303167      0.7354667    
      9100  -10108.495     -10243.505      135.01042      31598.53       483.78233      15089.669      1.4274002      0.7354667    
      9200  -10109.721     -10249.178      139.45715      26121.257      499.71628      15104.147      1.426032       0.7354667    
      9300  -10110.074     -10247.289      137.21508      28652.979      491.68228      15089.533      1.4274131      0.7354667    
      9400  -10108.135     -10245.686      137.55071      27714.697      492.88493      15045.865      1.4315559      0.7354667    
      9500  -10103.401     -10241.912      138.51112      30788.379      496.32637      14981.262      1.4377291      0.7354667    
      9600  -10099.896     -10241.511      141.61421      30450.008      507.44566      14913.856      1.4442272      0.7354667    
      9700  -10100.4       -10240.805      140.40506      31202.647      503.11294      14860.362      1.4494261      0.7354667    
      9800  -10098.719     -10239.478      140.75957      34077.784      504.38325      14835.205      1.4518839      0.7354667    
      9900  -10100.25      -10238.762      138.51227      33399.754      496.33052      14842.489      1.4511715      0.7354667    
     10000  -10099.754     -10242.23       142.47612      29029.762      510.53416      14881.271      1.4473896      0.7959925    
     10100  -10099.039     -10239.766      140.72667      31934.58       504.26534      14938.222      1.4418715      0.7959925    
     10200  -10100.067     -10244.502      144.4354       29304.515      517.55485      15008.278      1.4351411      0.7959925    
     10300  -10099.937     -10241.404      141.46648      26155.325      506.91633      15077.75       1.4285285      0.7959925    
     10400  -10104.099     -10241.678      137.57952      28883.261      492.9882       15134.827      1.4231413      0.7959925    
     10500  -10110.179     -10246.39       136.21065      30419.045      488.08312      15167.498      1.4200757      0.7959925    
     10600  -10106.26      -10241.971      135.71164      28657.204      486.29503      15167.103      1.4201128      0.7959925    
     10700  -10104.165     -10242.541      138.37578      29927.75       495.84141      15142.279      1.4224408      0.7959925    
     10800  -10101.485     -10241.229      139.74379      29378.594      500.74339      15104.329      1.4260147      0.7959925    
     10900  -10099.105     -10238.184      139.07933      31419.573      498.36245      15072.714      1.4290059      0.7959925    
     11000  -10102.535     -10238.085      135.55013      30535.619      485.71627      15056.429      1.4305514      0.74624654   
     11100  -10099.719     -10239.294      139.57521      33283.37       500.13932      15055.417      1.4306476      0.74624654   
     11200  -10097.697     -10239.521      141.82383      29930.479      508.1968       15072.515      1.4290247      0.74624654   
     11300  -10100.16      -10238.841      138.68081      32090.781      496.93443      15107.803      1.4256868      0.74624654   
     11400  -10099.697     -10238.12       138.42297      32168.238      496.01051      15156.365      1.4211189      0.74624654   
     11500  -10101.957     -10236.083      134.12605      30757.351      480.61337      15211.437      1.4159738      0.74624654   
     11600  -10104.016     -10240.322      136.30561      29601.01       488.42339      15259.166      1.4115448      0.74624654   
     11700  -10103.059     -10238.884      135.8254       28686.998      486.70267      15297.986      1.4079629      0.74624654   
     11800  -10099.381     -10239.043      139.66263      29814.266      500.45259      15319.735      1.405964       0.74624654   
     11900  -10097.617     -10235.04       137.42302      27960.272      492.42741      15324.924      1.405488       0.74624654   
     12000  -10097.966     -10236.063      138.09674      27296.787      494.84154      15319.935      1.4059457      0.67195622   
     12100  -10099.137     -10239.302      140.16471      27953.52       502.25167      15303.394      1.4074654      0.67195622   
     12200  -10099.787     -10237.915      138.12738      27424.257      494.95134      15281.9        1.4094449      0.67195622   
     12300  -10098.217     -10236.776      138.55875      28453.548      496.49704      15261.49       1.4113299      0.67195622   
     12400  -10096.103     -10233.57       137.46734      27911.287      492.5862       15242.642      1.413075       0.67195622   
     12500  -10094.837     -10236.6        141.7638       30415.111      507.9817       15233.099      1.4139603      0.67195622   
     12600  -10097.086     -10237.553      140.46696      28868.871      503.33473      15232.123      1.4140509      0.67195622   
     12700  -10090.666     -10234.396      143.72953      30193.941      515.0255       15242.939      1.4130475      0.67195622   
     12800  -10091.08      -10232.228      141.14832      29044.684      505.77626      15270.223      1.4105227      0.67195622   
     12900  -10090.767     -10231.363      140.59638      29644.676      503.79849      15306.865      1.4071462      0.67195622   
     13000  -10092.458     -10234.215      141.75703      27811.059      507.95744      15348.404      1.4033378      0.74015475   
     13100  -10086.726     -10231.336      144.6105       27430.149      518.18226      15388.418      1.3996888      0.74015475   
     13200  -10086.962     -10226.241      139.2791       27103.805      499.07829      15421.231      1.3967106      0.74015475   
     13300  -10091.492     -10229.832      138.33989      32272.858      495.71283      15445.301      1.394534       0.74015475   
     13400  -10093.947     -10230.32       136.37297      28265.4        488.66476      15460.359      1.3931757      0.74015475   
     13500  -10091.26      -10231.949      140.6894       29825.449      504.13182      15469.752      1.3923298      0.74015475   
     13600  -10088.071     -10228.77       140.69871      31328.896      504.16517      15469.408      1.3923608      0.74015475   
     13700  -10087.498     -10227.501      140.00282      31958.68       501.67158      15469.295      1.3923709      0.74015475   
     13800  -10086.754     -10222.751      135.99739      33679.471      487.31894      15467.882      1.3924982      0.74015475   
     13900  -10087.544     -10227.369      139.82526      27904.984      501.03534      15470.4        1.3922715      0.74015475   
     14000  -10087.548     -10226.295      138.74722      31411.058      497.17241      15472.998      1.3920377      0.77868787   
     14100  -10091.639     -10229.301      137.66213      27900.717      493.28421      15481.914      1.3912361      0.77868787   
     14200  -10093.897     -10232.557      138.65982      26963.869      496.8592       15493.017      1.390239       0.77868787   
     14300  -10092.792     -10231.322      138.52986      30200.531      496.39352      15496.298      1.3899446      0.77868787   
     14400  -10091.067     -10226.796      135.72896      31203.415      486.35707      15499.694      1.3896401      0.77868787   
     14500  -10091.035     -10231.658      140.62303      28137.428      503.89398      15506.089      1.389067       0.77868787   
     14600  -10090.862     -10230.234      139.37172      26140.457      499.41016      15509.932      1.3887228      0.77868787   
     14700  -10088.086     -10226.308      138.2218       29512.287      495.28965      15511.808      1.3885549      0.77868787   
     14800  -10090.637     -10226.999      136.36221      27671.76       488.62621      15511.394      1.388592       0.77868787   
     14900  -10088.839     -10228.633      139.79343      29558.412      500.92129      15512.874      1.3884594      0.77868787   
     15000  -10087.926     -10228.049      140.12288      31439.056      502.10178      15516.77       1.3881108      0.69213658   
     15100  -10084.545     -10226.197      141.65197      31622.836      507.58098      15520.723      1.3877573      0.69213658   
     15200  -10085.477     -10226.498      141.02171      32567.909      505.32257      15525.379      1.3873411      0.69213658   
     15300  -10085.493     -10228.743      143.25049      31935.215      513.30893      15529.68       1.3869569      0.69213658   
     15400  -10084.106     -10225.799      141.69343      29593.867      507.72953      15538.275      1.3861897      0.69213658   
     15500  -10085.35      -10229.315      143.96496      31979.73       515.8691       15552.461      1.3849253      0.69213658   
     15600  -10084.797     -10226.048      141.25134      30262.147      506.14541      15572.276      1.383163       0.69213658   
     15700  -10083.706     -10225.307      141.60148      30626.731      507.40006      15597.944      1.3808869      0.69213658   
     15800  -10088.015     -10224.395      136.38047      29803.617      488.69164      15628.235      1.3782105      0.69213658   
     15900  -10088.13      -10226.684      138.5543       29278.765      496.4811       15657.761      1.3756116      0.69213658   
     16000  -10086.832     -10228.059      141.22723      30267.693      506.05902      15678.156      1.3738221      0.79602507   
     16100  -10085.993     -10225.15       139.15678      29744.414      498.63998      15688.071      1.3729538      0.79602507   
     16200  -10085.534     -10224.765      139.23057      30542.481      498.9044       15689.077      1.3728658      0.79602507   
     16300  -10087.58      -10225.288      137.70836      27837.86       493.44984      15685.127      1.3732115      0.79602507   
     16400  -10088.282     -10226.299      138.01677      27604.223      494.55498      15678.669      1.3737771      0.79602507   
     16500  -10086.601     -10228.576      141.97553      28506.245      508.74038      15672.509      1.374317       0.79602507   
     16600  -10086.035     -10225.29       139.2551       26336.903      498.9923       15670.191      1.3745204      0.79602507   
     16700  -10085.73      -10224.373      138.64253      31513.744      496.79725      15676.648      1.3739542      0.79602507   
     16800  -10082.676     -10224.349      141.67301      29049.991      507.65638      15695.653      1.3722906      0.79602507   
     16900  -10084.841     -10223.557      138.71646      30710.061      497.06219      15723.048      1.3698995      0.79602507   
     17000  -10081.939     -10219.811      137.87217      28720.353      494.03682      15759.905      1.3666958      0.73552941   
     17100  -10083.059     -10219.552      136.49287      29157.715      489.09441      15802.077      1.3630485      0.73552941   
     17200  -10083.162     -10222.195      139.03279      28992.71       498.19567      15844.823      1.3593713      0.73552941   
     17300  -10084.83      -10221.467      136.63679      25035.212      489.61009      15879.645      1.3563903      0.73552941   
     17400  -10084.499     -10222.404      137.90514      30895.118      494.15497      15902.066      1.3544778      0.73552941   
     17500  -10085.287     -10225.584      140.29652      28437.897      502.724        15910.164      1.3537885      0.73552941   
     17600  -10084.372     -10225.444      141.07111      28413.661      505.4996       15903.661      1.3543421      0.73552941   
     17700  -10083.42      -10218.785      135.36496      30362.284      485.05276      15890.443      1.3554686      0.73552941   
     17800  -10078.262     -10217.246      138.98343      28365.19       498.01881      15876.148      1.356689       0.73552941   
     17900  -10077.127     -10220.002      142.87477      28121.402      511.96264      15858.62       1.3581886      0.73552941   
     18000  -10075.42      -10216.374      140.9546       31252.017      505.08211      15835.56       1.3601664      0.73930303   
     18100  -10072.62      -10216.605      143.98493      33149.425      515.94068      15816.501      1.3618054      0.73930303   
     18200  -10075.615     -10217.99       142.37588      35838.957      510.17495      15810.923      1.3622858      0.73930303   
     18300  -10076.258     -10216.778      140.51995      34063.109      503.52463      15824.597      1.3611087      0.73930303   
     18400  -10074.272     -10217.326      143.05384      32538.988      512.60428      15860.465      1.3580306      0.73930303   
     18500  -10071.511     -10215.368      143.85723      34326.286      515.48309      15919.221      1.3530182      0.73930303   
     18600  -10073.741     -10214.757      141.01649      31336.481      505.30385      15991.564      1.3468974      0.73930303   
     18700  -10075.011     -10216.035      141.02404      29224.582      505.33091      16067.053      1.3405692      0.73930303   
     18800  -10074.153     -10215.791      141.6388       28812.97       507.53377      16128.562      1.3354567      0.73930303   
     18900  -10077.345     -10218.076      140.7318       31156.913      504.28372      16164.911      1.3324538      0.73930303   
     19000  -10077.326     -10215.377      138.05067      24790.77       494.67645      16171.053      1.3319477      0.75279872   
     19100  -10076.01      -10215.513      139.50345      30708.952      499.88219      16147.74       1.3338707      0.75279872   
     19200  -10073.251     -10218.919      145.66791      26570.4        521.97129      16105.485      1.3373703      0.75279872   
     19300  -10073.795     -10216.979      143.18394      27901.229      513.07047      16051.073      1.3419039      0.75279872   
     19400  -10073.783     -10218.395      144.61234      30164.696      518.18887      15990.1        1.3470208      0.75279872   
     19500  -10073.215     -10215.504      142.28948      31778.707      509.86538      15935.627      1.3516253      0.75279872   
     19600  -10076.674     -10217.118      140.44335      31228.079      503.25012      15899.215      1.3547208      0.75279872   
     19700  -10076.82      -10216.363      139.54354      30557.736      500.02584      15885.723      1.3558713      0.75279872   
     19800  -10072.761     -10212.587      139.82578      29724.025      501.03719      15894.111      1.3551558      0.75279872   
     19900  -10073.254     -10215.4        142.14556      34636.082      509.34966      15922.255      1.3527604      0.75279872   
     20000  -10074.29      -10213.583      139.29215      32627.411      499.12505      15968.773      1.3488198      0.70935113   
     20100  -10074.379     -10215.061      140.6816       29991.445      504.10386      16031.941      1.3435052      0.70935113   
     20200  -10076.955     -10219.856      142.90082      30860.168      512.05598      16102.151      1.3376471      0.70935113   
     20300  -10075.196     -10216.51       141.31437      31635.73       506.37126      16161.889      1.3327029      0.70935113   
     20400  -10074.677     -10214.251      139.57436      28536.288      500.13628      16205.01       1.3291566      0.70935113   
     20500  -10073.924     -10215.472      141.54766      29236.513      507.2072       16232.624      1.3268956      0.70935113   
     20600  -10073.401     -10215.449      142.04768      28289.563      508.99894      16245.506      1.3258434      0.70935113   
     20700  -10075.469     -10215.138      139.66854      27921.398      500.47377      16246.432      1.3257678      0.70935113   
     20800  -10075.487     -10213.229      137.74263      30324.071      493.57264      16227.786      1.3272911      0.70935113   
     20900  -10074.51      -10214.758      140.24761      29993.883      502.54873      16189.749      1.3304096      0.70935113   
     21000  -10078.093     -10217.615      139.52196      30966.201      499.94853      16136.415      1.3348068      0.7256465    
     21100  -10079.168     -10217.296      138.12866      30431.174      494.95592      16077.376      1.3397084      0.7256465    
     21200  -10076.256     -10218.323      142.06743      30995.233      509.06968      16021.959      1.3443422      0.7256465    
     21300  -10072.81      -10216.402      143.59215      29475.631      514.5332       15976.85       1.3481379      0.7256465    
     21400  -10069.549     -10212.571      143.02215      30330.578      512.49073      15952.228      1.3502187      0.7256465    
     21500  -10071.168     -10214.547      143.37945      31038.632      513.77104      15956.694      1.3498408      0.7256465    
     21600  -10069.833     -10211.178      141.34546      31499.172      506.48266      15990.048      1.3470251      0.7256465    
     21700  -10073.139     -10216.486      143.34695      31686.856      513.65458      16045.213      1.3423939      0.7256465    
     21800  -10077.554     -10216.663      139.10866      29417.893      498.46755      16103.661      1.3375218      0.7256465    
     21900  -10080.331     -10217.449      137.11731      26771.484      491.33196      16154.916      1.3332782      0.7256465    
     22000  -10076.225     -10214.015      137.78961      28550.868      493.74099      16192.299      1.3302         1.0910047    
     22100  -10078.114     -10220.251      142.13749      30281.209      509.32075      16218.147      1.32808        1.0910047    
     22200  -10077.147     -10216.962      139.8142       27697.126      500.99571      16232.561      1.3269007      1.0910047    
     22300  -10077.664     -10216.697      139.03309      28035.888      498.19677      16233.19       1.3268493      1.0910047    
     22400  -10080.079     -10220.361      140.28222      27429.491      502.67275      16213.994      1.3284201      1.0910047    
     22500  -10078.724     -10219.202      140.47853      27157.378      503.37619      16173.592      1.3317386      1.0910047    
     22600  -10076.854     -10217.424      140.57029      32254.587      503.70501      16122.466      1.3359617      1.0910047    
     22700  -10078.932     -10218.836      139.90425      25621.712      501.31837      16064.35       1.3407948      1.0910047    
     22800  -10077.89      -10215.618      137.72705      31071.951      493.51682      16005.963      1.3456858      1.0910047    
     22900  -10075.37      -10216.79       141.42057      31247.876      506.7518       15965.867      1.3490652      1.0910047    
     23000  -10072.343     -10214.949      142.60578      30743.761      510.99878      15956.766      1.3498347      0.69955845   
     23100  -10072.959     -10213.554      140.59504      28365.172      503.79368      15981.037      1.3477847      0.69955845   
     23200  -10073.366     -10216.055      142.6895       30209.022      511.29876      16026.2        1.3439865      0.69955845   
     23300  -10075.615     -10216.244      140.62892      28477.038      503.9151       16079.585      1.3395244      0.69955845   
     23400  -10075.916     -10216.777      140.86082      30358.636      504.74604      16135.228      1.334905       0.69955845   
     23500  -10075.017     -10216.764      141.74647      25369.737      507.91962      16179.776      1.3312296      0.69955845   
     23600  -10074.192     -10214.042      139.84986      30964.396      501.12348      16201.572      1.3294387      0.69955845   
     23700  -10075.072     -10212.465      137.39285      28946.233      492.31931      16204.474      1.3292006      0.69955845   
     23800  -10075.551     -10215.763      140.21169      27520.254      502.42004      16196.306      1.3298709      0.69955845   
     23900  -10076.311     -10215.589      139.278        27408.481      499.07434      16166.756      1.3323017      0.69955845   
     24000  -10077.203     -10214.666      137.46281      28215.5        492.56997      16118.114      1.3363224      0.69766465   
     24100  -10076.033     -10216.499      140.4665       31213.837      503.33308      16066.021      1.3406553      0.69766465   
     24200  -10074.113     -10216.659      142.54644      33100.834      510.78612      16024.371      1.3441399      0.69766465   
     24300  -10075.654     -10219.172      143.51788      32911.85       514.26708      15993.911      1.3466998      0.69766465   
     24400  -10076.695     -10215.957      139.26224      32561.188      499.01787      15972.237      1.3485272      0.69766465   
     24500  -10074.243     -10212.558      138.31455      32043.403      495.62203      15968.841      1.348814       0.69766465   
     24600  -10076.49      -10215.416      138.92537      35905.031      497.81076      15987.226      1.3472629      0.69766465   
     24700  -10080.039     -10219.171      139.13152      31859.832      498.54947      16023.912      1.3441784      0.69766465   
     24800  -10082.199     -10215.874      133.67478      29849.918      478.99635      16073.338      1.340045       0.69766465   
     24900  -10083.425     -10218.08       134.65459      30397.855      482.5073       16129.04       1.3354171      0.69766465   
     25000  -10086.713     -10222.409      135.69602      29024.614      486.23905      16175.962      1.3315435      0.80236064   
     25100  -10090.207     -10223.193      132.98601      30373.345      476.52829      16200.116      1.3295582      0.80236064   
     25200  -10091.05      -10227.767      136.71675      32659.619      489.89662      16195.471      1.3299395      0.80236064   
     25300  -10088.993     -10224.173      135.18036      29389.751      484.39128      16165.403      1.3324132      0.80236064   
     25400  -10085.297     -10222.352      137.05492      29971.17       491.10838      16114.91       1.336588       0.80236064   
     25500  -10081.858     -10218.877      137.01942      30936.126      490.98118      16062.677      1.3409344      0.80236064   
     25600  -10078.371     -10218.757      140.38529      31968.141      503.0421       16020.847      1.3444355      0.80236064   
     25700  -10078.146     -10218.101      139.9549       33275.321      501.49987      15999.074      1.3462652      0.80236064   
     25800  -10075.668     -10216.877      141.20964      29655.157      505.99596      16000.627      1.3461345      0.80236064   
     25900  -10077.6       -10214.395      136.79549      31408.067      490.17879      16024.683      1.3441137      0.80236064   
     26000  -10075.767     -10215.396      139.62865      30678.981      500.33082      16070.909      1.3402475      0.77619588   
     26100  -10078.441     -10215.107      136.66658      28064.939      489.71685      16128.322      1.3354766      0.77619588   
     26200  -10080.805     -10219.305      138.4999       23742.245      496.28618      16180.669      1.3311561      0.77619588   
     26300  -10075.39      -10218.513      143.12274      28795.364      512.85118      16216.232      1.3282368      0.77619588   
     26400  -10074.809     -10217.027      142.21832      27226.354      509.61039      16229.633      1.3271401      0.77619588   
     26500  -10077.138     -10215.269      138.1303       28796.744      494.96181      16222.106      1.3277558      0.77619588   
     26600  -10076.137     -10217.067      140.93025      27672.54       504.99484      16197.422      1.3297793      0.77619588   
     26700  -10073.378     -10217.357      143.97895      30080.05       515.91925      16156.611      1.3331383      0.77619588   
     26800  -10069.242     -10212.856      143.61385      30614.824      514.61098      16106.028      1.3373252      0.77619588   
     26900  -10068.594     -10212.018      143.42337      32730.377      513.92842      16056.404      1.3414583      0.77619588   
     27000  -10069.561     -10209.123      139.56229      33474.861      500.09303      16019.346      1.3445616      0.72255379   
     27100  -10069.878     -10214.344      144.46684      34393.714      517.66747      16005.113      1.3457573      0.72255379   
     27200  -10067.152     -10212.917      145.7645       31824.776      522.31739      16015.068      1.3449207      0.72255379   
     27300  -10071.613     -10215.861      144.24825      29922.766      516.8842       16049.449      1.3420396      0.72255379   
     27400  -10071.266     -10214.752      143.48615      25564.796      514.15339      16096.611      1.3381076      0.72255379   
     27500  -10072.225     -10214.731      142.50642      30061.95       510.64273      16142.747      1.3342833      0.72255379   
     27600  -10071.024     -10217.454      146.43042      31334.734      524.70357      16190.231      1.3303699      0.72255379   
     27700  -10073.511     -10215.225      141.71375      25710.193      507.80235      16237.309      1.3265127      0.72255379   
     27800  -10077.301     -10213.984      136.68308      28652.367      489.77596      16262.141      1.3244872      0.72255379   
     27900  -10077.797     -10219.451      141.65387      27346.107      507.5878       16257.645      1.3248534      0.72255379   
     28000  -10077.307     -10215.692      138.38498      32026.128      495.8744       16221.789      1.3277818      0.69464063   
     28100  -10076.025     -10211.837      135.81273      31101.642      486.65724      16167.294      1.3322574      0.69464063   
     28200  -10073.327     -10214.58       141.25313      29840.716      506.15182      16105.581      1.3373622      0.69464063   
     28300  -10074.821     -10215.199      140.37851      30742.045      503.01781      16056.187      1.3414764      0.69464063   
     28400  -10075.62      -10217.369      141.74936      33568.744      507.92994      16018.665      1.3446187      0.69464063   
     28500  -10076.211     -10214.471      138.26071      31261.753      495.42909      15987.316      1.3472553      0.69464063   
     28600  -10076.842     -10212.585      135.74257      31809.337      486.40585      15968.637      1.3488312      0.69464063   
     28700  -10079.276     -10219.869      140.59268      31469.839      503.78524      15970.067      1.3487105      0.69464063   
     28800  -10080.326     -10220.559      140.23255      26842.565      502.49479      15983.461      1.3475803      0.69464063   
     28900  -10081.797     -10219.281      137.48344      31447.503      492.6439       16004.084      1.3458437      0.69464063   
     29000  -10081.784     -10219.112      137.3281       32749.217      492.08728      16030.599      1.3436177      0.70803302   
     29100  -10083.908     -10220.743      136.83515      29645.42       490.32089      16062.548      1.3409452      0.70803302   
     29200  -10082.944     -10220.134      137.18951      29227.784      491.59066      16090.065      1.3386519      0.70803302   
     29300  -10081.04      -10218.691      137.65089      30333.423      493.24393      16113.79       1.336681       0.70803302   
     29400  -10079.208     -10220.361      141.15288      31197.563      505.79257      16133.128      1.3350787      0.70803302   
     29500  -10077.593     -10217.406      139.8135       29682.644      500.99318      16146.688      1.3339576      0.70803302   
     29600  -10076.243     -10215.541      139.29818      28248.844      499.14665      16156.194      1.3331727      0.70803302   
     29700  -10078.918     -10215.924      137.00645      25880.058      490.93472      16161.023      1.3327743      0.70803302   
     29800  -10081.062     -10217.883      136.82162      29315.21       490.27241      16160.607      1.3328086      0.70803302   
     29900  -10080.411     -10214.071      133.6591       27251.394      478.94016      16152.011      1.333518       0.70803302   
     30000  -10079.442     -10214.43       134.98821      30988.424      483.70274      16137.845      1.3346885      0.74554878   
     30100  -10077.402     -10216.677      139.2749       31607.423      499.06324      16121.832      1.3360142      0.74554878   
     30200  -10074.648     -10215.716      141.0674       30264.679      505.48631      16105.54       1.3373657      0.74554878   
     30300  -10073.103     -10213.16       140.05724      28713.127      501.86659      16092.293      1.3384666      0.74554878   
     30400  -10072.032     -10211.985      139.95299      30778.74       501.49302      16085.453      1.3390358      0.74554878   
     30500  -10075.485     -10218.504      143.01934      27587.392      512.48067      16092.775      1.3384265      0.74554878   
     30600  -10072.982     -10219.094      146.112        28784.508      523.56257      16108.472      1.3371223      0.74554878   
     30700  -10070.711     -10216.399      145.68751      30171.113      522.04152      16125.384      1.3357199      0.74554878   
     30800  -10069.264     -10209.187      139.92312      28690.319      501.38601      16142.275      1.3343222      0.74554878   
     30900  -10068.541     -10214.618      146.07775      29575.013      523.43986      16159.739      1.3328802      0.74554878   
     31000  -10071.246     -10213.786      142.54012      30880.855      510.76348      16177.136      1.3314468      0.74807112   
     31100  -10070.142     -10214.736      144.59444      29506.382      518.1247       16192.306      1.3301994      0.74807112   
     31200  -10073.04      -10214.139      141.09876      29515.969      505.59866      16199.406      1.3296164      0.74807112   
     31300  -10072.138     -10215.275      143.13766      30966.16       512.90464      16205.355      1.3291283      0.74807112   
     31400  -10073.187     -10212.966      139.77845      27811.057      500.86759      16205.095      1.3291497      0.74807112   
     31500  -10072.318     -10211.83       139.51211      33412.726      499.91321      16197.138      1.3298026      0.74807112   
     31600  -10072.36      -10211.705      139.34499      28631.094      499.31437      16182.447      1.3310098      0.74807112   
     31700  -10071.795     -10217.305      145.50969      29351.387      521.40434      16167.128      1.3322711      0.74807112   
     31800  -10070.875     -10212.425      141.55008      30093.143      507.21589      16147.779      1.3338674      0.74807112   
     31900  -10074.8       -10216.844      142.04427      29773.052      508.9867       16133.224      1.3350708      0.74807112   
     32000  -10075.375     -10214.291      138.91623      31473.72       497.77801      16120.794      1.3361002      0.73015543   
     32100  -10076.544     -10214.807      138.26327      31551.414      495.43825      16107.35       1.3372154      0.73015543   
     32200  -10074.318     -10217.437      143.11866      28108.749      512.83655      16092.528      1.338447       0.73015543   
     32300  -10072.585     -10216.963      144.37791      31504.4        517.34881      16077.212      1.3397221      0.73015543   
     32400  -10074.495     -10217.089      142.59395      30881.119      510.95637      16066.69       1.3405995      0.73015543   
     32500  -10071.588     -10215.903      144.31477      29627.373      517.12259      16063.137      1.340896       0.73015543   
     32600  -10074.228     -10213.204      138.97584      31318.836      497.99162      16067.099      1.3405653      0.73015543   
     32700  -10074.146     -10216.496      142.34963      31848.319      510.0809       16076.892      1.3397488      0.73015543   
     32800  -10076.104     -10215.29       139.18603      27364.32       498.7448       16090.945      1.3385787      0.73015543   
     32900  -10076.059     -10216.869      140.81078      29334.54       504.56673      16109.557      1.3370322      0.73015543   
     33000  -10076.039     -10216.501      140.46256      29357.435      503.31898      16136.28       1.334818       0.71570098   
     33100  -10081.012     -10218.812      137.79988      29091.601      493.77781      16174.312      1.3316793      0.71570098   
     33200  -10080.415     -10217.201      136.78548      25314.653      490.1429       16207.122      1.3289834      0.71570098   
     33300  -10077.176     -10218.324      141.14792      27529.632      505.77482      16224.433      1.3275655      0.71570098   
     33400  -10074.252     -10214.945      140.6928       29639.292      504.14399      16227.174      1.3273412      0.71570098   
     33500  -10072.841     -10212.982      140.14037      26870.534      502.16445      16215.794      1.3282727      0.71570098   
     33600  -10073.813     -10215.792      141.97835      31281.984      508.75051      16192.738      1.330164       0.71570098   
     33700  -10074.191     -10215.653      141.46223      28931.039      506.90109      16158.141      1.333012       0.71570098   
     33800  -10075.714     -10215.821      140.10733      30079.396      502.04608      16115.234      1.3365612      0.71570098   
     33900  -10075.891     -10214.109      138.21844      31134.259      495.27763      16073.451      1.3400356      0.71570098   
     34000  -10078.647     -10216.406      137.75896      34670.791      493.63116      16045.025      1.3424096      0.70643948   
     34100  -10079.917     -10217.153      137.23625      29684.848      491.75813      16035.891      1.3431743      0.70643948   
     34200  -10081.776     -10217.825      136.04937      27802.042      487.50519      16038.129      1.3429869      0.70643948   
     34300  -10083.992     -10218.439      134.44692      30537.111      481.76314      16048.6        1.3421106      0.70643948   
     34400  -10083.482     -10222.564      139.08203      29606.377      498.37212      16066.433      1.3406209      0.70643948   
     34500  -10080.4       -10219.338      138.93872      29361.443      497.8586       16087.099      1.3388987      0.70643948   
     34600  -10078.83      -10219.025      140.19465      27502.816      502.35897      16114.007      1.3366629      0.70643948   
     34700  -10080.732     -10221.032      140.29987      27792.059      502.736        16141.022      1.3344259      0.70643948   
     34800  -10081.164     -10220.98       139.81613      29674.981      501.00261      16161.068      1.3327706      0.70643948   
     34900  -10079.938     -10220.645      140.70676      31015.693      504.19401      16173.148      1.3317751      0.70643948   
     35000  -10081.559     -10217.755      136.19558      30836.454      488.02912      16179.163      1.33128        0.73897624   
     35100  -10080.133     -10220.715      140.58165      27875.168      503.74571      16175.934      1.3315458      0.73897624   
     35200  -10080.112     -10217.9        137.78785      29598.583      493.7347       16159.564      1.3328946      0.73897624   
     35300  -10083.651     -10221.942      138.29073      34611.735      495.53667      16141.807      1.3343609      0.73897624   
     35400  -10084.627     -10222.471      137.84365      33316.039      493.93462      16129.367      1.3353901      0.73897624   
     35500  -10082.201     -10221.709      139.50722      30514.078      499.89569      16118.156      1.3363189      0.73897624   
     35600  -10082.865     -10219.001      136.13598      26285.45       487.81554      16102.114      1.3376502      0.73897624   
     35700  -10076.446     -10219.592      143.14617      33292.336      512.93515      16085.187      1.3390579      0.73897624   
     35800  -10075.015     -10217.578      142.56293      33042.892      510.84521      16073.316      1.3400468      0.73897624   
     35900  -10075.418     -10217.08       141.66182      29467.85       507.61628      16082.16       1.3393099      0.73897624   
     36000  -10071.907     -10215.733      143.82553      29807.403      515.36947      16108.801      1.3370949      0.77179442   
     36100  -10074.139     -10215.563      141.42403      32954.864      506.76419      16147.879      1.3338592      0.77179442   
     36200  -10074.027     -10213.916      139.8889       29996.056      501.26338      16196.379      1.3298649      0.77179442   
     36300  -10075.667     -10216.777      141.11007      30482.56       505.63918      16248.718      1.3255813      0.77179442   
     36400  -10075.751     -10218.325      142.57463      26178.017      510.88714      16282.409      1.3228384      0.77179442   
     36500  -10078.535     -10219.255      140.71963      28895.76       504.24012      16287.499      1.322425       0.77179442   
     36600  -10076.934     -10216.635      139.70177      29230.541      500.59283      16260.072      1.3246557      0.77179442   
     36700  -10075.089     -10219.224      144.13491      26919.395      516.47809      16205.373      1.3291269      0.77179442   
     36800  -10071.819     -10214.163      142.34419      30028.51       510.0614       16133.777      1.335025       0.77179442   
     36900  -10072.081     -10211.794      139.71335      30595.086      500.63434      16065.788      1.3406748      0.77179442   
     37000  -10072.539     -10215.568      143.02929      31750.583      512.51634      16020.673      1.3444502      0.77447139   
     37100  -10072.393     -10214.135      141.74221      34167.329      507.90433      16001.24       1.346083       0.77447139   
     37200  -10076.155     -10215.196      139.0413       30738.171      498.22619      16010.337      1.3453181      0.77447139   
     37300  -10077.117     -10215.805      138.68832      31672.179      496.96136      16046.093      1.3423203      0.77447139   
     37400  -10084.009     -10218.667      134.65812      28494.343      482.51994      16100.423      1.3377907      0.77447139   
     37500  -10082.866     -10220.388      137.5225       29224.705      492.78386      16156.444      1.3331521      0.77447139   
     37600  -10084.266     -10219.048      134.78175      27485.726      482.96294      16198.662      1.3296775      0.77447139   
     37700  -10084.733     -10221.255      136.5218       31339.053      489.19806      16216.7        1.3281985      0.77447139   
     37800  -10082.013     -10217.558      135.54536      32020.279      485.69919      16213.357      1.3284723      0.77447139   
     37900  -10081.026     -10219.368      138.34218      24955.265      495.72101      16194.955      1.3299819      0.77447139   
     38000  -10079.766     -10215.392      135.6253       27840.621      485.98562      16163.514      1.3325689      0.78456708   
     38100  -10080.566     -10218.192      137.62547      29754.63       493.15285      16122.493      1.3359594      0.78456708   
     38200  -10079.742     -10218.053      138.31134      31587.019      495.6105       16085.392      1.3390408      0.78456708   
     38300  -10077.631     -10218.222      140.59081      30724.321      503.77851      16058.088      1.3413176      0.78456708   
     38400  -10078.039     -10217.485      139.44569      30818.922      499.67521      16042.532      1.3426182      0.78456708   
     38500  -10076.466     -10217.587      141.12164      33855.026      505.68063      16042.632      1.3426099      0.78456708   
     38600  -10081.885     -10223.53       141.64475      30165.926      507.55512      16060.479      1.3411179      0.78456708   
     38700  -10080.955     -10218.893      137.93841      30849.491      494.27418      16090.45       1.3386199      0.78456708   
     38800  -10080.316     -10218.061      137.74498      28020.984      493.58109      16125.87       1.3356797      0.78456708   
     38900  -10080.733     -10217.639      136.90536      26024.242      490.57248      16159.346      1.3329126      0.78456708   
     39000  -10081.519     -10218.402      136.88276      26165.093      490.49149      16189.829      1.330403       0.76617168   
     39100  -10079.968     -10218.118      138.14931      29492.072      495.0299       16210.49       1.3287073      0.76617168   
     39200  -10078.836     -10219.238      140.40244      28868.493      503.10354      16219.441      1.327974       0.76617168   
     39300  -10075.425     -10214.813      139.38751      27305.66       499.46676      16214.006      1.3284191      0.76617168   
     39400  -10076.217     -10216.085      139.86797      27341.425      501.18837      16197.213      1.3297965      0.76617168   
     39500  -10080.052     -10218.776      138.72427      28329.238      497.09015      16174.559      1.331659       0.76617168   
     39600  -10077.087     -10220.187      143.10029      30626.294      512.77073      16155.185      1.333256       0.76617168   
     39700  -10074.259     -10212.853      138.59385      31014.401      496.62283      16138.189      1.3346601      0.76617168   
     39800  -10073.372     -10215.438      142.06581      29634.777      509.06389      16132.126      1.3351617      0.76617168   
     39900  -10073.918     -10219.092      145.17492      28577.337      520.20474      16134.878      1.3349339      0.76617168   
     40000  -10071.999     -10217.04       145.04014      30132.254      519.7218       16141.826      1.3343594      0.81290821   
     40100  -10071.092     -10214.731      143.6392       28935.807      514.70182      16151.535      1.3335573      0.81290821   
     40200  -10070.259     -10217.548      147.28972      28534.044      527.7827       16165.874      1.3323744      0.81290821   
     40300  -10077.078     -10215.491      138.41272      29711.447      495.97377      16175.07       1.3316169      0.81290821   
     40400  -10078.56      -10220.944      142.38332      26826          510.20162      16172.058      1.3318649      0.81290821   
     40500  -10076.071     -10218.842      142.77142      29024.597      511.5923       16149.158      1.3337536      0.81290821   
     40600  -10071.897     -10215.989      144.09107      29523.232      516.321        16113.136      1.3367353      0.81290821   
     40700  -10070.473     -10215.038      144.56458      33382.82       518.01771      16073.565      1.3400261      0.81290821   
     40800  -10071.038     -10213.836      142.79875      30862.936      511.69023      16034.106      1.3433238      0.81290821   
     40900  -10076.923     -10215.674      138.75062      31800.441      497.18458      16006.905      1.3456066      0.81290821   
     41000  -10076.292     -10220.257      143.96477      35054.527      515.86842      15990.764      1.3469648      0.7585558    
     41100  -10076.144     -10215.081      138.93711      30550.22       497.85284      15990.042      1.3470256      0.7585558    
     41200  -10076.883     -10218.918      142.03562      30899.704      508.95571      16012.028      1.345176       0.7585558    
     41300  -10078.691     -10219.124      140.43316      27465.924      503.21361      16049.119      1.3420672      0.7585558    
     41400  -10082.114     -10219.688      137.57412      32525.644      492.96882      16091.977      1.3384929      0.7585558    
     41500  -10084.674     -10220.304      135.63004      29870.282      486.00262      16139.537      1.3345486      0.7585558    
     41600  -10080.722     -10219.195      138.47338      28648.062      496.19116      16180.901      1.3311371      0.7585558    
     41700  -10083.972     -10222.352      138.37981      30421.675      495.85587      16208.712      1.3288531      0.7585558    
     41800  -10085.987     -10223.238      137.25107      30687.943      491.81124      16215.326      1.328311       0.7585558    
     41900  -10082.357     -10220.347      137.99         28844.827      494.45904      16195.676      1.3299227      0.7585558    
     42000  -10078.368     -10215.554      137.18535      30916.659      491.57576      16158.239      1.333004       0.79402767   
     42100  -10076.371     -10214.61       138.23884      30488.067      495.35074      16115.876      1.336508       0.79402767   
     42200  -10076.425     -10217.211      140.78599      27824.567      504.4779       16070.62       1.3402717      0.79402767   
     42300  -10075.206     -10213.872      138.66566      33815.08       496.88013      16031.822      1.3435152      0.79402767   
     42400  -10076.614     -10212.683      136.06922      35178.823      487.57635      16010.385      1.3453141      0.79402767   
     42500  -10078.435     -10217.841      139.40649      32846.614      499.53474      16013.331      1.3450666      0.79402767   
     42600  -10074.018     -10214.689      140.67154      33762.256      504.0678       16045.228      1.3423926      0.79402767   
     42700  -10076.979     -10216.373      139.39426      29211.793      499.49094      16104.095      1.3374857      0.79402767   
     42800  -10077.565     -10212.285      134.72087      28243.502      482.74478      16173.553      1.3317418      0.79402767   
     42900  -10078.014     -10219.014      141.00049      26324.593      505.24652      16243.6        1.325999       0.79402767   
     43000  -10078.2       -10215.759      137.5588       27128.188      492.91393      16288.202      1.322368       0.75303766   
     43100  -10075.022     -10216.868      141.84602      28860.695      508.27633      16305.25       1.3209853      0.75303766   
     43200  -10075.558     -10216.544      140.98621      28107.41       505.19537      16298.029      1.3215706      0.75303766   
     43300  -10074.096     -10217.295      143.19936      29764.398      513.12574      16278.761      1.3231349      0.75303766   
     43400  -10074.627     -10214.789      140.16149      32368.308      502.24016      16250.152      1.3254643      0.75303766   
     43500  -10077.33      -10219.164      141.8333       29482.721      508.23074      16216.225      1.3282374      0.75303766   
     43600  -10076.435     -10217.468      141.03261      29493.354      505.36163      16173.021      1.3317856      0.75303766   
     43700  -10075.922     -10214.618      138.69627      27194.113      496.98982      16129.47       1.3353816      0.75303766   
     43800  -10072.559     -10212.369      139.81005      31497.148      500.98083      16096.038      1.3381552      0.75303766   
     43900  -10072.702     -10213.085      140.38362      31687.064      503.03612      16075.313      1.3398803      0.75303766   
     44000  -10077.801     -10218.929      141.12877      28577.75       505.70619      16070.837      1.3402536      0.65767352   
     44100  -10077.488     -10217.396      139.90785      32585.486      501.33129      16079.208      1.3395558      0.65767352   
     44200  -10077.532     -10214.726      137.1941       27507.8        491.60709      16098.451      1.3379546      0.65767352   
     44300  -10077.249     -10214.82       137.57142      29386.989      492.95916      16123.163      1.3359039      0.65767352   
     44400  -10076.686     -10218.747      142.06104      29844.847      509.0468       16143.886      1.3341891      0.65767352   
     44500  -10073.921     -10214.774      140.85306      31941.224      504.71824      16159.943      1.3328634      0.65767352   
     44600  -10076         -10217.043      141.04286      30977.44       505.39837      16177.817      1.3313908      0.65767352   
     44700  -10074.129     -10214.217      140.08855      28304.185      501.97877      16184.877      1.3308101      0.65767352   
     44800  -10077.984     -10219.288      141.30383      27980.167      506.33348      16182.024      1.3310446      0.65767352   
     44900  -10077.665     -10218.691      141.02655      26335.591      505.33992      16159.042      1.3329378      0.65767352   
     45000  -10075.069     -10213.955      138.88619      28989.963      497.67036      16120.859      1.3360948      0.72453643   
     45100  -10072.184     -10214.418      142.23433      30269.087      509.66773      16078.485      1.339616       0.72453643   
     45200  -10071.19      -10215.477      144.2868       33527.147      517.02235      16044.941      1.3424167      0.72453643   
     45300  -10071.152     -10214.08       142.92802      28292.116      512.15345      16031.045      1.3435803      0.72453643   
     45400  -10069.615     -10215.401      145.78603      32455.582      522.39452      16038.564      1.3429504      0.72453643   
     45500  -10070.797     -10212.226      141.42845      31048.571      506.78003      16064.583      1.3407753      0.72453643   
     45600  -10071.753     -10211.265      139.51228      34889.275      499.91383      16107.665      1.3371892      0.72453643   
     45700  -10077.477     -10213.061      135.58352      32977.255      485.83594      16162.409      1.33266        0.72453643   
     45800  -10081.183     -10218.292      137.10947      26961.715      491.30387      16222.429      1.3277295      0.72453643   
     45900  -10078.299     -10219.083      140.7841       27831.851      504.47114      16267.546      1.3240471      0.72453643   
     46000  -10080.823     -10219.331      138.50805      25870.531      496.31538      16291.799      1.322076       0.76995183   
     46100  -10083.969     -10223.533      139.56434      28376.935      500.10038      16289.023      1.3223013      0.76995183   
     46200  -10082.825     -10223.324      140.4982       27911.205      503.44667      16254.739      1.3250903      0.76995183   
     46300  -10080.88      -10219.358      138.47757      32318.401      496.20615      16193.561      1.3300963      0.76995183   
     46400  -10078.489     -10218.711      140.22185      29570.587      502.45642      16121.409      1.3360493      0.76995183   
     46500  -10078.114     -10218.955      140.84095      30154.048      504.67484      16057.038      1.3414053      0.76995183   
     46600  -10080.605     -10219.157      138.55205      26417.883      496.47304      16001.45       1.3460653      0.76995183   
     46700  -10076.986     -10214.322      137.33606      32087.056      492.11578      15965.458      1.3490998      0.76995183   
     46800  -10075.557     -10216.177      140.62044      34595.852      503.88471      15961.642      1.3494223      0.76995183   
     46900  -10077.603     -10219.776      142.17281      30598.848      509.44728      15984.999      1.3474506      0.76995183   
     47000  -10078.877     -10216.868      137.99092      30302.02       494.46234      16025.883      1.3440131      0.7293538    
     47100  -10079.743     -10221.317      141.57408      28331.2        507.30187      16076.836      1.3397534      0.7293538    
     47200  -10076.592     -10218.113      141.52107      30420.875      507.11194      16128.525      1.3354598      0.7293538    
     47300  -10078.374     -10217.091      138.71714      29403.795      497.06462      16182.913      1.3309715      0.7293538    
     47400  -10082.893     -10221.292      138.39851      31726.666      495.92287      16230.226      1.3270916      0.7293538    
     47500  -10079.771     -10218.418      138.64697      30583.297      496.81317      16258.328      1.3247978      0.7293538    
     47600  -10079.317     -10217.913      138.59662      27727.796      496.63276      16268.651      1.3239571      0.7293538    
     47700  -10074.647     -10213.798      139.1506       29491.593      498.61784      16260.855      1.3245919      0.7293538    
     47800  -10078.373     -10215.822      137.44836      29495.476      492.51819      16242.119      1.3261199      0.7293538    
     47900  -10074.571     -10216.465      141.89381      26777.159      508.44755      16214.905      1.3283455      0.7293538    
     48000  -10076.5       -10218.409      141.9088       31789.564      508.50129      16182.385      1.3310149      0.81164845   
     48100  -10080.19      -10216.711      136.52134      30995.612      489.1964       16150.081      1.3336773      0.81164845   
     48200  -10075.019     -10214.612      139.59349      27882.681      500.20484      16122.714      1.3359411      0.81164845   
     48300  -10073.418     -10215.407      141.98953      33726.346      508.79056      16102.566      1.3376127      0.81164845   
     48400  -10073.7       -10214.2        140.49976      30705.498      503.45226      16096.96       1.3380785      0.81164845   
     48500  -10074.141     -10214.89       140.749        31679.108      504.34536      16102.807      1.3375927      0.81164845   
     48600  -10075.411     -10215.963      140.55266      31925.47       503.64182      16114.986      1.3365818      0.81164845   
     48700  -10076.951     -10217.5        140.54962      29106.942      503.63092      16126.805      1.3356022      0.81164845   
     48800  -10075.139     -10215.406      140.26618      31182.332      502.61528      16139.828      1.3345246      0.81164845   
     48900  -10077.039     -10215.831      138.79205      30837.734      497.33302      16158.939      1.3329462      0.81164845   
     49000  -10082.748     -10219.579      136.83094      29461.686      490.30579      16175.552      1.3315772      0.75193692   
     49100  -10083.065     -10221.386      138.32104      29868.056      495.64526      16186.11       1.3307087      0.75193692   
     49200  -10080.02      -10222.651      142.63078      30977.885      511.08835      16191.405      1.3302734      0.75193692   
     49300  -10083.234     -10222.755      139.52086      26902.329      499.94459      16187.842      1.3305663      0.75193692   
     49400  -10082.946     -10219.358      136.41144      29465.895      488.8026       16165.034      1.3324436      0.75193692   
     49500  -10080.338     -10220.794      140.45636      33724.106      503.29675      16130.406      1.3353041      0.75193692   
     49600  -10075.418     -10216.532      141.11346      32752.824      505.65134      16091.702      1.3385158      0.75193692   
     49700  -10075.036     -10218.175      143.13851      29769.248      512.90769      16057.15       1.3413959      0.75193692   
     49800  -10075.68      -10211.432      135.75266      30176.83       486.44199      16031.369      1.3435531      0.75193692   
     49900  -10076.954     -10212.513      135.55934      30951.796      485.74929      16022.906      1.3442628      0.75193692   
     50000  -10078.29      -10216          137.71081      34670.709      493.45862      16030.261      1.343646       0.79242687   
     50100  -10078.975     -10219.92       140.94555      31538.987      505.04966      16050.521      1.34195        0.79242687   
     50200  -10079.4       -10217.508      138.10783      30033.083      494.88128      16083.991      1.3391575      0.79242687   
     50300  -10080.603     -10217.997      137.39393      30565.861      492.32314      16126.364      1.3356388      0.79242687   
     50400  -10076.979     -10219.778      142.79925      30398.1        511.69201      16167.935      1.3322045      0.79242687   
     50500  -10076.615     -10218.004      141.38887      27965.24       506.6382       16203.001      1.3293214      0.79242687   
     50600  -10082.075     -10220.389      138.31353      28526.73       495.61835      16221.196      1.3278304      0.79242687   
     50700  -10082.703     -10219.598      136.89533      30821.233      490.53651      16208.272      1.3288891      0.79242687   
     50800  -10079.604     -10217.381      137.77689      26645.656      493.6954       16163.129      1.3326007      0.79242687   
     50900  -10078.582     -10216.378      137.79615      26438.714      493.76442      16088.684      1.3387669      0.79242687   
     51000  -10075.06      -10212.251      137.19142      31786.083      491.59751      15995.631      1.3465549      0.67104359   
     51100  -10075.612     -10215.59       139.97832      34550.547      501.58378      15908.251      1.3539513      0.67104359   
     51200  -10074.217     -10215.392      141.17439      35756.541      505.86966      15842.908      1.3595355      0.67104359   
     51300  -10073.965     -10217.625      143.65961      31038.177      514.77495      15817.689      1.3617032      0.67104359   
     51400  -10076.72      -10217.592      140.87232      33625.997      504.78725      15845.312      1.3593293      0.67104359   
     51500  -10077.117     -10218.047      140.93046      30056.778      504.9956       15919.936      1.3529574      0.67104359   
     51600  -10081.883     -10217.45       135.56709      29324.195      485.77706      16028.198      1.3438189      0.67104359   
     51700  -10083.174     -10219.813      136.63905      29706.504      489.6182       16148.27       1.3338269      0.67104359   
     51800  -10082.911     -10218.018      135.10675      27982.804      484.1275       16248.987      1.3255593      0.67104359   
     51900  -10082.682     -10220.082      137.40023      28107.009      492.34573      16310.685      1.3205452      0.67104359   
     52000  -10081.365     -10218.774      137.40944      25184.975      492.37874      16327.808      1.3191604      0.73618054   
     52100  -10082.703     -10220.649      137.94594      28820.538      494.30117      16307.315      1.320818       0.73618054   
     52200  -10078.865     -10218.307      139.44147      33416.203      499.6601       16261.019      1.3245785      0.73618054   
     52300  -10076.49      -10220.049      143.55842      31290.885      514.41236      16213.836      1.3284331      0.73618054   
     52400  -10075.664     -10217.326      141.66239      32486.81       507.61832      16174.594      1.3316561      0.73618054   
     52500  -10074.147     -10216.613      142.46557      31592.438      510.49636      16149.051      1.3337623      0.73618054   
     52600  -10078.555     -10215.326      136.77092      32372.381      490.09073      16135.383      1.3348921      0.73618054   
     52700  -10074.649     -10216.498      141.84849      26351.372      508.28518      16134.88       1.3349338      0.73618054   
     52800  -10074.467     -10215.521      141.05386      29265.821      505.43778      16134.091      1.3349991      0.73618054   
     52900  -10072.16      -10216.504      144.34442      27805.795      517.22882      16135.699      1.334866       0.73618054   
     53000  -10072.965     -10217.272      144.30708      30499.288      517.09503      16142.446      1.3343081      0.7336326    
     53100  -10072.476     -10216.288      143.81236      31291.645      515.3223       16147.43       1.3338963      0.7336326    
     53200  -10073.48      -10213.674      140.19404      30662.737      502.35677      16154.819      1.3332861      0.7336326    
     53300  -10073.053     -10217.591      144.53814      26520.41       517.92298      16167.305      1.3322564      0.7336326    
     53400  -10073.026     -10217.533      144.50646      31870.857      517.80946      16175.517      1.3315801      0.7336326    
     53500  -10075.807     -10218.315      142.50759      32165.427      510.64692      16178.149      1.3313634      0.7336326    
     53600  -10078.257     -10217.979      139.7218       28938.538      500.66462      16172.672      1.3318143      0.7336326    
     53700  -10080.038     -10219.828      139.78994      32429.556      500.90877      16162.193      1.3326778      0.7336326    
     53800  -10076.151     -10217.716      141.56503      32359.85       507.26943      16150.989      1.3336023      0.7336326    
     53900  -10073.907     -10215.521      141.61473      31437.892      507.44752      16139.339      1.334565       0.7336326    
     54000  -10075.722     -10214.224      138.50131      29676.476      496.29123      16128.427      1.3354679      0.732749     
     54100  -10079.94      -10215.964      136.02354      30050.455      487.41265      16118.065      1.3363264      0.732749     
     54200  -10074.623     -10215.626      141.0035       30855.013      505.25732      16109.14       1.3370668      0.732749     
     54300  -10078.246     -10217.149      138.90311      30624.528      497.731        16107.974      1.3371636      0.732749     
     54400  -10076.856     -10214.396      137.54022      28110.801      492.84735      16111.833      1.3368433      0.732749     
     54500  -10074.967     -10213.829      138.86142      29694.322      497.58161      16121.399      1.3360501      0.732749     
     54600  -10078.59      -10215.805      137.21431      30117.335      491.67951      16135.417      1.3348893      0.732749     
     54700  -10080.383     -10219.687      139.30484      29087.72       499.17052      16153.398      1.3334034      0.732749     
     54800  -10082.58      -10222.497      139.91688      26813.752      501.36362      16167.164      1.3322681      0.732749     
     54900  -10079.376     -10222.213      142.837        30987.433      511.82728      16162.32       1.3326674      0.732749     
     55000  -10077.289     -10217.528      140.23889      30130.512      502.51748      16150.809      1.3336172      0.737557     
     55100  -10080.106     -10219.015      138.9089       30294.841      497.75176      16138.865      1.3346042      0.737557     
     55200  -10080.36      -10218.988      138.62872      27936.827      496.74776      16126.004      1.3356686      0.737557     
     55300  -10082.527     -10219.796      137.26952      31264.814      491.87737      16113.777      1.3366821      0.737557     
     55400  -10081.78      -10220.665      138.88504      30795.335      497.66623      16104.79       1.3374279      0.737557     
     55500  -10081.246     -10220.435      139.18972      31012.551      498.758        16099.737      1.3378477      0.737557     
     55600  -10081.842     -10221.771      139.92889      29763.096      501.40668      16099.181      1.3378939      0.737557     
     55700  -10082.803     -10220.121      137.31815      33595.664      492.05163      16096.6        1.3381084      0.737557     
     55800  -10083.492     -10221.017      137.52482      29914.022      492.79219      16089.41       1.3387065      0.737557     
     55900  -10083.7       -10223.503      139.80308      28568.716      500.95586      16074.892      1.3399155      0.737557     
     56000  -10083.737     -10218.753      135.01593      28978.871      483.80207      16058.426      1.3412894      0.7396576    
     56100  -10085.394     -10222.725      137.33064      31683.27       492.09638      16045.719      1.3423516      0.7396576    
     56200  -10082.77      -10218.817      136.04639      31351.118      487.49451      16038.329      1.3429701      0.7396576    
     56300  -10083.334     -10220.004      136.67009      32298.254      489.72944      16044.289      1.3424712      0.7396576    
     56400  -10082.596     -10221.255      138.65917      32524.495      496.85689      16060.567      1.3411106      0.7396576    
     56500  -10085.348     -10221.984      136.63653      28292.79       489.60916      16083.86       1.3391684      0.7396576    
     56600  -10083.01      -10216.699      133.68872      31520.683      479.04629      16101.007      1.3377422      0.7396576    
     56700  -10077.651     -10217.088      139.43624      31792.634      499.64136      16117.646      1.3363612      0.7396576    
     56800  -10082.218     -10219.597      137.37967      28993.596      492.27207      16134.745      1.334945       0.7396576    
     56900  -10081.074     -10219.503      138.42928      32151.99       496.03313      16152.062      1.3335137      0.7396576    
[...]
   2186900  -10077.669     -10216.903      139.23448      30132.059      498.9184       16092.914      1.338415       0.70657334   
   2187000  -10077.283     -10215.097      137.81429      32043.17       493.82942      16094.766      1.3382609      0.74109779   
   2187100  -10079.467     -10220.873      141.40552      29309.966      506.69787      16099.773      1.3378448      0.74109779   
   2187200  -10083.776     -10220.838      137.06172      29139.787      491.13275      16106.71       1.3372685      0.74109779   
   2187300  -10083.002     -10223.161      140.15898      31360.154      502.23116      16123.227      1.3358986      0.74109779   
   2187400  -10084.757     -10219.992      135.23438      28407.353      484.58485      16142.721      1.3342854      0.74109779   
   2187500  -10081.469     -10219.637      138.16755      27711.146      495.09528      16159.2        1.3329247      0.74109779   
   2187600  -10080.497     -10219.044      138.54636      28923.717      496.45267      16168.057      1.3321945      0.74109779   
   2187700  -10083.376     -10222.4        139.02345      26905.795      498.1622       16168.145      1.3321872      0.74109779   
   2187800  -10082.595     -10221.02       138.42478      29495.84       496.017        16156.307      1.3331633      0.74109779   
   2187900  -10081.081     -10219.173      138.09142      34382.789      494.82248      16133.767      1.3350259      0.74109779   
   2188000  -10082.004     -10220.251      138.2475       29262.171      495.38175      16112.741      1.336768       0.69679008   
   2188100  -10080.372     -10218.821      138.44926      25219.8        496.10472      16097.725      1.3380149      0.69679008   
   2188200  -10080.088     -10218.141      138.05244      29780.081      494.68281      16084.435      1.3391205      0.69679008   
   2188300  -10084.284     -10219.499      135.21474      33159.422      484.51448      16076.706      1.3397643      0.69679008   
   2188400  -10082.934     -10224.069      141.13475      30856.119      505.72764      16072.004      1.3401563      0.69679008   
   2188500  -10079.631     -10217.087      137.45543      28522.582      492.54352      16064.45       1.3407864      0.69679008   
   2188600  -10081.47      -10218.465      136.99492      27298.949      490.89338      16054.517      1.3416159      0.69679008   
   2188700  -10080.697     -10220.951      140.25439      30641.427      502.57303      16049.56       1.3420304      0.69679008   
   2188800  -10080.585     -10219.925      139.34006      32980.992      499.2967       16052.45       1.3417888      0.69679008   
   2188900  -10079.586     -10217.771      138.18484      29794.984      495.15723      16068.662      1.340435       0.69679008   
   2189000  -10078.307     -10217.294      138.98747      29657.869      498.03329      16092.347      1.3384621      0.76686024   
   2189100  -10076.521     -10212.939      136.41765      29144.515      488.82486      16123.485      1.3358772      0.76686024   
   2189200  -10079.883     -10216.426      136.54313      30877.86       489.27449      16160.608      1.3328086      0.76686024   
   2189300  -10080.812     -10219.918      139.10551      30409.846      498.45627      16191.04       1.3303034      0.76686024   
   2189400  -10077.584     -10217.492      139.90785      28298.375      501.33127      16206.403      1.3290424      0.76686024   
   2189500  -10079.883     -10216.245      136.36226      28279.104      488.62637      16203.859      1.3292511      0.76686024   
   2189600  -10079.261     -10215.621      136.36016      28888.15       488.61884      16184.417      1.3308478      0.76686024   
   2189700  -10077.814     -10217.407      139.59325      30016.126      500.20397      16154.074      1.3333476      0.76686024   
   2189800  -10080.233     -10222.094      141.86121      31388.816      508.33073      16120.444      1.3361293      0.76686024   
   2189900  -10078.486     -10221          142.51334      33547.353      510.66753      16081.175      1.339392       0.76686024   
   2190000  -10077.88      -10216.996      139.11589      31669.89       498.49345      16044.651      1.3424409      0.78129637   
   2190100  -10079.241     -10215.748      136.50664      30549.38       489.14375      16017.512      1.3447155      0.78129637   
   2190200  -10078.646     -10218.981      140.33526      31840.827      502.86283      16007.573      1.3455504      0.78129637   
   2190300  -10080.655     -10218.859      138.20455      29839.388      495.22783      16016.6        1.3447921      0.78129637   
   2190400  -10083.667     -10219.635      135.96822      32334.884      487.21442      16037.871      1.3430085      0.78129637   
   2190500  -10086.04      -10222.627      136.58744      29561.066      489.43327      16060.444      1.3411208      0.78129637   
   2190600  -10084.859     -10220.083      135.22409      31465.165      484.54797      16074.43       1.3399539      0.78129637   
   2190700  -10084.702     -10221.827      137.1245       30310.925      491.35772      16083.053      1.3392355      0.78129637   
   2190800  -10083.169     -10218.424      135.25557      30160.151      484.66079      16087.242      1.3388868      0.78129637   
   2190900  -10077.223     -10217.801      140.57744      31778.778      503.7306       16085.298      1.3390486      0.78129637   
   2191000  -10077.599     -10218.315      140.71655      31084.306      504.22911      16085.534      1.339029       0.82583873   
   2191100  -10073.73      -10216.227      142.4964       29984.483      510.60682      16084.645      1.339103       0.82583873   
   2191200  -10077.915     -10213.671      135.75614      32920.936      486.45446      16079.521      1.3395297      0.82583873   
   2191300  -10076.08      -10215.508      139.42787      31400.151      499.61136      16071.703      1.3401813      0.82583873   
   2191400  -10072.7       -10213.789      141.08833      29951.247      505.5613       16064.535      1.3407793      0.82583873   
   2191500  -10073.378     -10212.066      138.68823      31883.772      496.96103      16066.716      1.3405973      0.82583873   
   2191600  -10073.835     -10213.235      139.3997       29339.917      499.51041      16074.116      1.3399801      0.82583873   
   2191700  -10072.52      -10213.669      141.1489       32417.805      505.77832      16081.864      1.3393346      0.82583873   
   2191800  -10074.089     -10215.118      141.02904      28202.209      505.34883      16093.248      1.3383872      0.82583873   
   2191900  -10075.984     -10220.5        144.51641      27573.834      517.8451       16104.146      1.3374814      0.82583873   
   2192000  -10078.16      -10217.292      139.13203      29814.395      498.55129      16102.8        1.3375933      0.77754257   
   2192100  -10078.023     -10217.069      139.04571      29659.271      498.24197      16091.552      1.3385282      0.77754257   
   2192200  -10078.864     -10218.242      139.37802      28812.718      499.43273      16070.882      1.3402498      0.77754257   
   2192300  -10075.118     -10214.614      139.49588      28988.957      499.85508      16039.424      1.3428785      0.77754257   
   2192400  -10076.605     -10215.082      138.47725      33702.046      496.20502      16004.052      1.3458464      0.77754257   
   2192500  -10075.775     -10218.886      143.11081      30835.751      512.80843      15970.153      1.3487032      0.77754257   
   2192600  -10075.762     -10216.55       140.78805      32194.251      504.48531      15945.477      1.3507903      0.77754257   
   2192700  -10077.426     -10216.354      138.92746      27357.681      497.81825      15940.984      1.3511711      0.77754257   
   2192800  -10077.234     -10215.558      138.3241       32143.452      495.65624      15961.476      1.3494364      0.77754257   
   2192900  -10074.876     -10218.174      143.2981       31331.149      513.47957      16001.76       1.3460392      0.77754257   
   2193000  -10076.129     -10214.528      138.39812      29330.785      495.92147      16055.449      1.3415381      0.72348296   
   2193100  -10075.415     -10215.536      140.12159      30707.034      502.09716      16117.512      1.3363723      0.72348296   
   2193200  -10073.985     -10213.096      139.11136      27756.013      498.47724      16178.868      1.3313043      0.72348296   
   2193300  -10077.546     -10216.104      138.55824      27933.005      496.49523      16227.298      1.327331       0.72348296   
   2193400  -10079.71      -10218.798      139.08813      28035.941      498.39399      16250.634      1.325425       0.72348296   
   2193500  -10080.221     -10217.894      137.67344      29916.141      493.32473      16244.853      1.3258966      0.72348296   
   2193600  -10078.951     -10221.198      142.24711      26987.174      509.71353      16215.69       1.3282813      0.72348296   
   2193700  -10078.096     -10220.049      141.9536       30335.896      508.66179      16170.143      1.3320227      0.72348296   
   2193800  -10074.691     -10215.304      140.61376      28541.692      503.86078      16121.751      1.3360209      0.72348296   
   2193900  -10074.882     -10216.593      141.71036      32922.342      507.7902       16076.05       1.3398189      0.72348296   
   2194000  -10076.502     -10215.485      138.98307      28939.949      498.01751      16042.95       1.3425833      0.70138552   
   2194100  -10076.007     -10214.675      138.66843      32721.295      496.89008      16022.769      1.3442743      0.70138552   
   2194200  -10073.683     -10213.629      139.94677      29046.89       501.47073      16013.844      1.3450235      0.70138552   
   2194300  -10074.241     -10213.65       139.40872      29693.484      499.54275      16017.782      1.3446929      0.70138552   
   2194400  -10076.193     -10218          141.80701      27597.474      508.13653      16030.048      1.3436639      0.70138552   
   2194500  -10073.78      -10214.751      140.97072      29515.672      505.13984      16041.064      1.3427411      0.70138552   
   2194600  -10073.469     -10210.696      137.22773      28441.18       491.7276       16054.252      1.3416381      0.70138552   
   2194700  -10074.066     -10217.113      143.04685      31155.976      512.57924      16073.405      1.3400394      0.70138552   
   2194800  -10076.449     -10215.054      138.60486      27809.182      496.66227      16104.698      1.3374356      0.70138552   
   2194900  -10078.38      -10220.416      142.03562      28938.996      508.95572      16140.118      1.3345006      0.70138552   
   2195000  -10079.502     -10217.496      137.99423      27406.765      494.47421      16161.879      1.3327037      0.70097303   
   2195100  -10081.925     -10216.765      134.83947      27771.28       483.16978      16169.532      1.332073       0.70097303   
   2195200  -10077.366     -10217.84       140.47335      28683.414      503.35765      16159.999      1.3328587      0.70097303   
   2195300  -10076.631     -10219.13       142.49958      28844.606      510.61822      16135.276      1.334901       0.70097303   
   2195400  -10075.936     -10215.065      139.12913      29399.824      498.54091      16107.17       1.3372304      0.70097303   
   2195500  -10075.12      -10214.323      139.20325      32415.395      498.80648      16081.67       1.3393507      0.70097303   
   2195600  -10075.762     -10212.347      136.58535      30214.591      489.42579      16060.968      1.3410771      0.70097303   
   2195700  -10077.082     -10219.427      142.34432      32714.106      510.06187      16046.666      1.3422724      0.70097303   
   2195800  -10079.62      -10217.106      137.48549      31295.017      492.65124      16033.416      1.3433816      0.70097303   
   2195900  -10078.983     -10219.582      140.59927      27812.655      503.80883      16020.317      1.3444801      0.70097303   
   2196000  -10081.52      -10221.187      139.66696      30337.686      500.46809      16003.476      1.3458949      0.88472435   
   2196100  -10084.024     -10219.559      135.53529      29881.77       485.66311      15986.13       1.3473552      0.88472435   
   2196200  -10081.848     -10216.979      135.13107      33642.163      484.21465      15977.104      1.3481164      0.88472435   
   2196300  -10079.414     -10218.375      138.96097      29888.817      497.93832      15979.588      1.3479069      0.88472435   
   2196400  -10075.929     -10215.352      139.42281      33295.422      499.59323      15998.677      1.3462986      0.88472435   
   2196500  -10077.776     -10214.445      136.66917      30377.271      489.72613      16031.505      1.3435417      0.88472435   
   2196600  -10083.236     -10217.813      134.57756      28216.287      482.23128      16073.785      1.3400078      0.88472435   
   2196700  -10083.834     -10225.289      141.45452      29899.078      506.87346      16115.374      1.3365496      0.88472435   
   2196800  -10087.047     -10224.306      137.25888      30981.985      491.83925      16146.906      1.3339396      0.88472435   
   2196900  -10082.507     -10222.443      139.93577      26609.081      501.43134      16162.506      1.332652       0.88472435   
   2197000  -10083.467     -10221.05       137.58344      28888.706      493.00222      16167.808      1.332215       0.74808747   
   2197100  -10082.151     -10220.276      138.12521      30671.895      494.94354      16163.895      1.3325376      0.74808747   
   2197200  -10084.575     -10221.512      136.93772      30167.08       490.68843      16148.611      1.3337987      0.74808747   
   2197300  -10085.706     -10221.73       136.02328      31571.179      487.4117       16124.805      1.3357679      0.74808747   
   2197400  -10082.695     -10219.166      136.47085      28596.893      489.01548      16095.218      1.3382234      0.74808747   
   2197500  -10076.7       -10217.684      140.98336      28444.34       505.18515      16061.948      1.3409953      0.74808747   
   2197600  -10073.399     -10213.075      139.67599      31183.712      500.50046      16035.775      1.343184       0.74808747   
   2197700  -10071.077     -10212.515      141.43753      29611.985      506.81257      16029.687      1.3436942      0.74808747   
   2197800  -10073.139     -10217.293      144.15336      32078.197      516.54418      16042.179      1.3426478      0.74808747   
   2197900  -10074.711     -10217.232      142.52067      29296.734      510.6938       16066.23       1.3406379      0.74808747   
   2198000  -10075.083     -10217.323      142.24008      29827.268      509.68835      16095.073      1.3382354      0.84803976   
   2198100  -10076.124     -10215.785      139.66104      30529.477      500.44687      16126.693      1.3356115      0.84803976   
   2198200  -10077.226     -10219.426      142.19982      27280.091      509.54409      16159.264      1.3329194      0.84803976   
   2198300  -10081.209     -10220.602      139.3934       29970.048      499.48785      16180.153      1.3311986      0.84803976   
   2198400  -10081.521     -10224.057      142.53653      27586.441      510.75062      16179.383      1.3312619      0.84803976   
   2198500  -10084.363     -10221.337      136.9743       29467.819      490.81949      16152.986      1.3334375      0.84803976   
   2198600  -10082.86      -10218.849      135.9896       29787.183      487.29102      16111.888      1.3368388      0.84803976   
   2198700  -10080.177     -10218.337      138.15988      25839.561      495.0678       16073.273      1.3400504      0.84803976   
   2198800  -10081.381     -10218.322      136.94096      30683.203      490.70002      16045.301      1.3423866      0.84803976   
   2198900  -10082.123     -10219.683      137.55932      29293.012      492.9158       16031.359      1.343554       0.84803976   
   2199000  -10077.554     -10218.665      141.11104      30156.18       505.64266      16030.199      1.3436512      0.72380012   
   2199100  -10080.12      -10217.529      137.40922      31447.487      492.37793      16043.33       1.3425515      0.72380012   
   2199200  -10081.699     -10219.861      138.16272      28882.077      495.07796      16067.819      1.3405053      0.72380012   
   2199300  -10083.259     -10222.521      139.26218      28530.381      499.01766      16097.842      1.3380052      0.72380012   
   2199400  -10082.757     -10221.485      138.72752      29594.428      497.10179      16126.489      1.3356284      0.72380012   
   2199500  -10081.268     -10219.384      138.11552      28539.795      494.90882      16146.081      1.3340077      0.72380012   
   2199600  -10081.477     -10214.213      132.73627      27700.949      475.63339      16148.168      1.3338353      0.72380012   
   2199700  -10076.602     -10212.402      135.79969      31424.199      486.61053      16142.864      1.3342736      0.72380012   
   2199800  -10074.742     -10214.362      139.62013      29181.286      500.3003       16137.921      1.3346823      0.72380012   
   2199900  -10075.365     -10214.151      138.78634      30738.939      497.31257      16134.228      1.3349878      0.72380012   
   2200000  -10072.643     -10219.42       146.77695      30359.358      525.9453       16130.141      1.335326       0.7299976    
   2200100  -10073.815     -10213.925      140.10935      30128.822      502.05331      16123.652      1.3358634      0.7299976    
   2200200  -10075.667     -10213.736      138.06864      32147.137      494.74084      16117.247      1.3363942      0.7299976    
   2200300  -10074.439     -10213.951      139.51246      29263.503      499.91448      16112.247      1.336809       0.7299976    
   2200400  -10074.92      -10215.889      140.96895      32315.868      505.1335       16110.413      1.3369611      0.7299976    
   2200500  -10068.817     -10212.131      143.31341      30712.351      513.53442      16109.416      1.3370439      0.7299976    
   2200600  -10072.828     -10215.781      142.95311      26931.368      512.24334      16109.815      1.3370108      0.7299976    
   2200700  -10075.046     -10213.7        138.65427      33715.718      496.83934      16111.64       1.3368593      0.7299976    
   2200800  -10079.085     -10221.298      142.21344      26634.56       509.5929       16117.016      1.3364134      0.7299976    
   2200900  -10078.552     -10217.854      139.30214      31737.669      499.16083      16120.166      1.3361523      0.7299976    
   2200917  -10078.88      -10218.383      139.50358      31412.894      499.88265      16120.986      1.3360843      0.7299976    
Loop time of 10964.2 on 1 procs for 2000000 steps with 2160 atoms

Performance: 7.880 ns/day, 3.046 hours/ns, 182.412 timesteps/s, 394.010 katom-step/s
99.8% CPU use with 1 MPI tasks x 1 OpenMP threads

MPI task timing breakdown:
Section |  min time  |  avg time  |  max time  |%varavg| %total
---------------------------------------------------------------
Pair    | 8890.7     | 8890.7     | 8890.7     |   0.0 | 81.09
Neigh   | 94.984     | 94.984     | 94.984     |   0.0 |  0.87
Comm    | 96.232     | 96.232     | 96.232     |   0.0 |  0.88
Output  | 7.2057     | 7.2057     | 7.2057     |   0.0 |  0.07
Modify  | 1829       | 1829       | 1829       |   0.0 | 16.68
Other   |            | 46.04      |            |       |  0.42

Nlocal:           2160 ave        2160 max        2160 min
Histogram: 1 0 0 0 0 0 0 0 0 0
Nghost:           6668 ave        6668 max        6668 min
Histogram: 1 0 0 0 0 0 0 0 0 0
Neighs:              0 ave           0 max           0 min
Histogram: 1 0 0 0 0 0 0 0 0 0
FullNghs:       334076 ave      334076 max      334076 min
Histogram: 1 0 0 0 0 0 0 0 0 0

Total # of neighbors = 334076
Ave neighs/atom = 154.66481
Neighbor list builds = 200000
Dangerous builds = 200000
Total wall time: 3:21:12
