LAMMPS (7 Feb 2024 - Update 1)
KOKKOS mode with Kokkos version 4.2.0 is enabled (src/KOKKOS/kokkos.cpp:72)
  will use up to 4 GPU(s) per node
  using 1 OpenMP thread(s) per MPI task
package kokkos
package kokkos newton on neigh half

units		metal						## E in [eV], t in [ps], P in [10000 Pa], l in [A]
atom_style	atomic						## mass x y z vx vy vz

neighbor	0.5 bin						## neighbor list, skin = 0.5 Angstrom
neigh_modify	every 2 delay 10 check yes			## update of neighbor list

############################## main variables
variable        seed equal 9610

variable	temperature equal 300
variable	tempDamp equal 0.1

variable        pressure equal 8000
variable        pressureDamp equal 1.0 				# This is 1 ps

##############################

read_data water.dat
Reading data file ...
  triclinic box = (0 0 0) to (24.989956 24.989919 23.167336) with tilt (-0.22207236 -0.16357316 -0.098737559)
  2 by 2 by 1 MPI processor grid
  reading atoms ...
  1920 atoms
  read_data CPU = 0.014 seconds

mass		1 1.008    # H
mass		2 15.9994  # O


pair_style	pace/extrapolation
ACE/AL version: 2023.11.25
pair_coeff	* * /home/cicn/cicn607503/pd/pot_dir/interim_potential_ladder_step_1.yaml /home/cicn/cicn607503/pd/pot_dir/interim_potential_ladder_step_1.asi H O
Loading /home/cicn/cicn607503/pd/pot_dir/interim_potential_ladder_step_1.yaml
Total number of basis functions
	H: 23 (r=1) 664 (r>1)
	O: 23 (r=1) 664 (r>1)
Mapping LAMMPS atom type #1(H) -> ACE species type #0
Mapping LAMMPS atom type #2(O) -> ACE species type #1
Loading ASI /home/cicn/cicn607503/pd/pot_dir/interim_potential_ladder_step_1.asi
LINEAR ASI is loaded

fix pace_gamma all pair 1000 pace/extrapolation gamma 1
compute max_pace_gamma all reduce max f_pace_gamma
variable dump_skip equal "c_max_pace_gamma < 10"

dump pace_dump all custom 1000 extrapolative_structures.dump id type x y z f_pace_gamma
dump_modify pace_dump skip v_dump_skip
dump_modify pace_dump element H O

variable max_pace_gamma equal c_max_pace_gamma

timestep	0.0005						## timestep = 0.0005*ps = 0.5 fs

thermo		100
thermo_style custom step etotal pe ke press temp vol density c_max_pace_gamma


min_style cg/kk
minimize 0.0 5.0e-4 10000 100000
Switching to 'neigh_modify every 1 delay 0 check yes' setting during minimization
Neighbor list info ...
  update: every = 1 steps, delay = 0 steps, check = yes
  max neighbors/atom: 2000, page size: 100000
  master list distance cutoff = 6.5
  ghost atom cutoff = 6.5
  binsize = 6.5, bins = 4 4 4
  1 neighbor lists, perpetual/occasional/extra = 1 0 0
  (1) pair pace/extrapolation/kk, perpetual
      attributes: full, newton on, kokkos_device
      pair build: full/bin/kk/device
      stencil: full/bin/3d
      bin: kk/device
WARNING: Fix with atom-based arrays not compatible with sending data in Kokkos communication, switching to classic exchange/border communication (src/KOKKOS/comm_kokkos.cpp:666)
WARNING: Fix with atom-based arrays not compatible with Kokkos sorting on device, switching to classic host sorting (src/KOKKOS/atom_kokkos.cpp:218)
Per MPI rank memory allocation (min/avg/max) = 423.1 | 425.6 | 428.5 Mbytes
   Step         TotEng         PotEng         KinEng         Press           Temp          Volume        Density     c_max_pace_gamma
         0  -9186.3912     -9186.3912      0              71325.798      0              14467.932      1.3233249      0.69469993   
       100  -9273.0205     -9273.0205      0             -8111.276       0              14467.932      1.3233249      0.69469993   
       200  -9273.1148     -9273.1148      0             -8127.9057      0              14467.932      1.3233249      0.69469993   
       299  -9273.1151     -9273.1151      0             -8129.2566      0              14467.932      1.3233249      0.69469993   
Loop time of 1.2073 on 4 procs for 299 steps with 1920 atoms

99.4% CPU use with 4 MPI tasks x 1 OpenMP threads

Minimization stats:
  Stopping criterion = force tolerance
  Energy initial, next-to-last, final = 
     -9186.39119087423  -9273.11512021357   -9273.1151202229
  Force two-norm initial, final = 64.044178 0.0004864568
  Force max component initial, final = 2.4633048 0.00011314805
  Final line search alpha, max atom move = 1 0.00011314805
  Iterations, force evaluations = 299 597

MPI task timing breakdown:
Section |  min time  |  avg time  |  max time  |%varavg| %total
---------------------------------------------------------------
Pair    | 0.78663    | 0.79325    | 0.80054    |   0.6 | 65.70
Neigh   | 0.0029725  | 0.0031162  | 0.0032412  |   0.2 |  0.26
Comm    | 0.1845     | 0.19308    | 0.1989     |   1.4 | 15.99
Output  | 0.00031909 | 0.00031993 | 0.00032229 |   0.0 |  0.03
Modify  | 0.13324    | 0.13723    | 0.1409     |   0.7 | 11.37
Other   |            | 0.0803     |            |       |  6.65

Nlocal:            480 ave         482 max         478 min
Histogram: 1 0 0 0 0 2 0 0 0 1
Nghost:         2630.5 ave        2633 max        2629 min
Histogram: 1 0 2 0 0 0 0 0 0 1
Neighs:              0 ave           0 max           0 min
Histogram: 4 0 0 0 0 0 0 0 0 0
FullNghs:        75286 ave       75712 max       74890 min
Histogram: 1 0 0 1 0 1 0 0 0 1

Total # of neighbors = 301144
Ave neighs/atom = 156.84583
Neighbor list builds = 7
Dangerous builds = 0

################## equilibration of main calculation
# Equilibrate to specified number of ice

fix             3 all nph tri ${pressure} ${pressure} ${pressureDamp}
fix             3 all nph tri 8000 ${pressure} ${pressureDamp}
fix             3 all nph tri 8000 8000 ${pressureDamp}
fix             3 all nph tri 8000 8000 1
fix             4 all temp/csvr ${temperature} ${temperature} ${tempDamp} ${seed}
fix             4 all temp/csvr 300 ${temperature} ${tempDamp} ${seed}
fix             4 all temp/csvr 300 300 ${tempDamp} ${seed}
fix             4 all temp/csvr 300 300 0.1 ${seed}
fix             4 all temp/csvr 300 300 0.1 9610
velocity 	all create ${temperature} ${seed} dist gaussian
velocity 	all create 300 ${seed} dist gaussian
velocity 	all create 300 9610 dist gaussian

run 200000
WARNING: Fix with atom-based arrays not compatible with sending data in Kokkos communication, switching to classic exchange/border communication (src/KOKKOS/comm_kokkos.cpp:666)
WARNING: Fix with atom-based arrays not compatible with Kokkos sorting on device, switching to classic host sorting (src/KOKKOS/atom_kokkos.cpp:218)
Per MPI rank memory allocation (min/avg/max) = 424.7 | 426.4 | 427.6 Mbytes
   Step         TotEng         PotEng         KinEng         Press           Temp          Volume        Density     c_max_pace_gamma
       299  -9198.7001     -9273.1151      74.415065     -2635.4481      300            14467.932      1.3233249      0.69469993   
       300  -9198.7988     -9271.2487      72.449889     -2998.7721      292.0775       14467.921      1.3233259      0.69469993   
       400  -9181.2959     -9224.8979      43.602031      7395.6471      175.77905      14368.728      1.3324613      0.69469993   
       500  -9166.8972     -9217.7383      50.841076      8636.5715      204.96283      14164.167      1.3517049      0.69469993   
       600  -9154.8973     -9214.7208      59.823556      9388.7262      241.17518      13954.993      1.3719659      0.69469993   
       700  -9148.0233     -9211.7817      63.758386      10584.675      257.03822      13811.076      1.3862623      0.69469993   
       800  -9143.9518     -9207.7399      63.788139      13224.358      257.15817      13759.375      1.3914712      0.69469993   
       900  -9139.9611     -9205.2581      65.296953      13818.066      263.24086      13799.921      1.3873829      0.69469993   
      1000  -9137.3231     -9204.5162      67.193061      9776.3714      270.88491      13912.805      1.3761262      0.65203834   
      1100  -9134.9134     -9201.8655      66.952117      9113.3929      269.91356      14062.008      1.3615249      0.65203834   
      1200  -9133.2083     -9200.0103      66.802014      9127.5834      269.30843      14210.099      1.3473358      0.65203834   
      1300  -9131.8929     -9199.8128      67.919971      6735.6122      273.8154       14332.208      1.3358566      0.65203834   
      1400  -9129.1407     -9199.0872      69.946549      6751.4396      281.98544      14407.323      1.3288919      0.65203834   
      1500  -9126.3844     -9198.1656      71.78111       8257.4334      289.38136      14431.731      1.3266444      0.65203834   
      1600  -9123.5574     -9197.7695      74.212115      6117.2156      299.18182      14411.639      1.3284939      0.65203834   
      1700  -9122.4636     -9194.864       72.400481      6045.7842      291.87832      14365.756      1.332737       0.65203834   
      1800  -9121.7221     -9196.5992      74.877136      7668.4796      301.86281      14306.875      1.338222       0.65203834   
      1900  -9121.9129     -9194.7627      72.849873      8296.7392      293.69002      14248.572      1.3436978      0.65203834   
      2000  -9120.5009     -9194.4637      73.962778      11058.805      298.17663      14206.066      1.3477182      0.64893597   
      2100  -9119.3182     -9193.8538      74.535538      10486.957      300.48568      14188.246      1.3494109      0.64893597   
      2200  -9118.9293     -9195.1628      76.23347       10215.762      307.33079      14198.876      1.3484007      0.64893597   
      2300  -9119.0806     -9195.6039      76.523266      9421.3695      308.49909      14236.937      1.3447959      0.64893597   
      2400  -9120.1184     -9193.4861      73.367758      8030.5325      295.77784      14292.361      1.3395809      0.64893597   
      2500  -9120.6719     -9194.9377      74.265813      7929.5772      299.3983       14353.581      1.3338675      0.64893597   
      2600  -9120.3569     -9193.8512      73.494287      9134.4934      296.28794      14398.571      1.3296997      0.64893597   
      2700  -9118.9064     -9195.2001      76.2937        9243.3852      307.5736       14422.671      1.3274778      0.64893597   
      2800  -9119.7535     -9194.2761      74.522639      7109.9285      300.43368      14425.841      1.327186       0.64893597   
      2900  -9119.3653     -9194.8419      75.476594      5932.7202      304.27949      14399.669      1.3295982      0.64893597   
      3000  -9121.4987     -9197.2466      75.747964      8289.0423      305.3735       14343.305      1.3348231      0.63413046   
      3100  -9118.4666     -9192.8621      74.395531      11684.016      299.92125      14270.946      1.3415911      0.63413046   
      3200  -9118.996      -9194.1527      75.156736      13491.899      302.99         14209.318      1.3474098      0.63413046   
      3300  -9118.1487     -9193.7943      75.645547      12091.484      304.96062      14172.052      1.3509529      0.63413046   
      3400  -9118.1355     -9194.1008      75.965302      10661.919      306.24969      14166.975      1.351437       0.63413046   
      3500  -9118.0771     -9196.0371      77.960002      9691.5379      314.29121      14194.497      1.3488167      0.63413046   
      3600  -9118.4574     -9192.5231      74.065655      10047.837      298.59137      14246.542      1.3438893      0.63413046   
      3700  -9120.0284     -9194.0779      74.04945       7953.1359      298.52604      14317.099      1.3372663      0.63413046   
      3800  -9121.1729     -9195.4356      74.262711      7399.9849      299.38579      14382.905      1.331148       0.63413046   
      3900  -9120.2111     -9192.7642      72.553116      6599.7745      292.49366      14425.579      1.3272101      0.63413046   
      4000  -9118.6424     -9192.5261      73.883705      5455.5772      297.85785      14439.187      1.3259593      0.70324051   
      4100  -9120.0703     -9193.7243      73.65408       5954.7139      296.93213      14420.497      1.3276779      0.70324051   
      4200  -9119.0256     -9193.0525      74.026916      7838.5622      298.4352       14372.54       1.3321079      0.70324051   
      4300  -9119.1239     -9193.7195      74.595629      9849.1053      300.72793      14305.425      1.3383576      0.70324051   
      4400  -9120.1192     -9195.654       75.534818      9350.0358      304.51422      14234.234      1.3450513      0.70324051   
      4500  -9119.3378     -9193.4462      74.108332      10309.707      298.76342      14177.17       1.3504652      0.70324051   
      4600  -9119.3956     -9193.3367      73.941074      10732.56       298.08913      14150.949      1.3529675      0.70324051   
      4700  -9118.8701     -9193.8524      74.982342      9677.8252      302.28694      14157.267      1.3523638      0.70324051   
      4800  -9118.6043     -9195.8938      77.289482      10653.558      311.58804      14195.3        1.3487404      0.70324051   
      4900  -9120.2069     -9193.5694      73.362466      7689.8758      295.75651      14263.383      1.3423025      0.70324051   
      5000  -9119.4882     -9194.007       74.518761      5613.9124      300.41804      14342.346      1.3349123      0.65886194   
      5100  -9118.3104     -9191.1029      72.79248       4223.9948      293.45864      14407.986      1.3288308      0.65886194   
      5200  -9119.6689     -9193.7284      74.059542      7170.9043      298.56673      14445.887      1.3253444      0.65886194   
      5300  -9120.1951     -9195.3033      75.10814       7808.3469      302.79409      14445.006      1.3254251      0.65886194   
      5400  -9119.9806     -9194.7187      74.738133      6668.4399      301.30243      14405.2        1.3290878      0.65886194   
      5500  -9118.3229     -9192.5242      74.201319      9598.2734      299.13829      14334.295      1.3356621      0.65886194   
      5600  -9116.6067     -9194.1507      77.543985      9113.5401      312.61406      14252.673      1.3433112      0.65886194   
      5700  -9115.0546     -9190.3929      75.338312      8409.3117      303.72201      14182.04       1.3500015      0.65886194   
      5800  -9115.1248     -9192.5377      77.412859      8875.9578      312.08543      14144.382      1.3535957      0.65886194   
      5900  -9114.4293     -9192.0876      77.658236      10549.932      313.07465      14145.026      1.353534       0.65886194   
      6000  -9117.0796     -9194.8211      77.741507      11556.641      313.41035      14184.724      1.349746       0.71214637   
      6100  -9118.9421     -9193.1272      74.185073      7949.8863      299.0728       14250.811      1.3434867      0.71214637   
      6200  -9119.3641     -9193.5201      74.155978      6528.5794      298.9555       14328.032      1.336246       0.71214637   
      6300  -9119.884      -9193.3241      73.440118      4379.8407      296.06956      14398.08       1.329745       0.71214637   
      6400  -9120.5159     -9195.4942      74.978275      5242.8532      302.27055      14442.604      1.3256456      0.71214637   
      6500  -9120.7541     -9195.0744      74.320317      8052.0893      299.61803      14445.153      1.3254117      0.71214637   
      6600  -9122.2136     -9195.4066      73.193012      7401.8818      295.07336      14409.464      1.3286945      0.71214637   
      6700  -9123.1974     -9194.0656      70.868262      8055.521       285.70127      14340.31       1.3351019      0.71214637   
      6800  -9121.9111     -9195.9927      74.08165       8461.3389      298.65586      14253.437      1.3432392      0.71214637   
      6900  -9121.2798     -9195.7033      74.423556      13007.082      300.03423      14174.64       1.3507062      0.71214637   
      7000  -9121.6363     -9195.3321      73.695802      10334.672      297.10033      14121.644      1.3557752      0.65095625   
      7100  -9120.7079     -9194.0776      73.36977       8848.2421      295.78595      14104.289      1.3574434      0.65095625   
      7200  -9120.7668     -9196.1331      75.36637       9390.1974      303.83513      14128.058      1.3551596      0.65095625   
      7300  -9120.7606     -9196.0659      75.305249      8099.4556      303.58872      14180.772      1.3501222      0.65095625   
      7400  -9120.5418     -9194.4216      73.879871      9872.2151      297.84239      14255.79       1.3430174      0.65095625   
      7500  -9120.2096     -9194.6514      74.441825      7985.6015      300.10788      14332.637      1.3358166      0.65095625   
      7600  -9119.0761     -9196.6678      77.591649      6473.8762      312.80621      14389.47       1.3305407      0.65095625   
      7700  -9116.6313     -9193.7934      77.162049      10172.313      311.0743       14416.047      1.3280877      0.65095625   
      7800  -9116.2719     -9193.1233      76.851426      8422.9819      309.82205      14418.847      1.3278298      0.65095625   
      7900  -9114.6466     -9192.181       77.534356      6575.6562      312.57524      14396.572      1.3298843      0.65095625   
      8000  -9113.8565     -9190.0104      76.153821      5819.0986      307.00969      14355.566      1.333683       0.66847204   
      8100  -9114.3568     -9190.6588      76.301964      8486.5358      307.60692      14310.154      1.3379153      0.66847204   
      8200  -9114.4161     -9192.1115      77.695384      9051.6993      313.22441      14269.021      1.3417721      0.66847204   
      8300  -9116.1559     -9195.1692      79.013303      10869.535      318.53753      14240.218      1.3444861      0.66847204   
      8400  -9114.114      -9192.179       78.064994      10825.262      314.71448      14226.336      1.345798       0.66847204   
      8500  -9116.6757     -9192.2863      75.61066       11171.084      304.81997      14227.232      1.3457132      0.66847204   
      8600  -9117.9464     -9194.3988      76.452408      9596.212       308.21343      14247.198      1.3438273      0.66847204   
      8700  -9119.2798     -9195.9962      76.716413      8574.2999      309.27775      14277.999      1.3409284      0.66847204   
      8800  -9118.0176     -9192.9214      74.903789      8911.4709      301.97026      14306.562      1.3382513      0.66847204   
      8900  -9116.8902     -9193.2335      76.343326      8187.8512      307.77367      14333.496      1.3357366      0.66847204   
      9000  -9117.3957     -9192.4639      75.068281      9728.7402      302.6334       14348.697      1.3343215      0.67758503   
      9100  -9118.3863     -9193.7731      75.386854      6905.5526      303.91771      14350.237      1.3341783      0.67758503   
      9200  -9118.0809     -9194.6914      76.610468      3838.4744      308.85064      14340.194      1.3351127      0.67758503   
      9300  -9118.3691     -9191.9077      73.538612      7631.7955      296.46663      14319.629      1.33703        0.67758503   
      9400  -9117.0194     -9192.8662      75.846776      6351.3246      305.77186      14294.698      1.339362       0.67758503   
      9500  -9117.8632     -9194.7101      76.846881      8250.2183      309.80372      14269.467      1.3417302      0.67758503   
      9600  -9118.1606     -9195.4077      77.247062      8438.374       311.41703      14247.073      1.3438392      0.67758503   
      9700  -9119.649      -9195.1027      75.453754      10291.918      304.18741      14232.007      1.3452618      0.67758503   
      9800  -9119.0273     -9194.0237      74.996334      9416.4983      302.34335      14227.662      1.3456726      0.67758503   
      9900  -9120.9413     -9194.243       73.301654      7519.041       295.51135      14237.077      1.3447827      0.67758503   
     10000  -9119.6326     -9194.2743      74.641656      8208.2992      300.91349      14256.586      1.3429424      0.72916585   
     10100  -9121.648      -9195.0662      73.418129      8204.9214      295.98091      14282.881      1.3404701      0.72916585   
     10200  -9123.8973     -9196.2953      72.397985      6459.1594      291.86826      14306.259      1.3382796      0.72916585   
     10300  -9123.0239     -9196.3694      73.345505      6406.2397      295.68813      14316.465      1.3373255      0.72916585   
     10400  -9123.0772     -9196.3368      73.259568      6964.2209      295.34168      14311.28       1.3378101      0.72916585   
     10500  -9123.7954     -9196.5591      72.763635      5548.7506      293.34235      14289.327      1.3398654      0.72916585   
     10600  -9123.0977     -9196.7514      73.653671      6611.2129      296.93048      14250.952      1.3434734      0.72916585   
     10700  -9121.4367     -9196.4072      74.970478      7107.8442      302.23912      14208.035      1.3475315      0.72916585   
     10800  -9119.3264     -9193.938       74.611695      10205.407      300.7927       14171.621      1.350994       0.72916585   
     10900  -9119.2755     -9197.3819      78.10644       11623.419      314.88156      14158.024      1.3522914      0.72916585   
     11000  -9118.7458     -9194.363       75.617219      10424.522      304.84641      14165.347      1.3515924      0.72373808   
     11100  -9118.5916     -9194.0575      75.465944      8465.102       304.23656      14196.137      1.3486609      0.72373808   
     11200  -9119.2729     -9193.0387      73.765753      8928.2372      297.38233      14242.185      1.3443003      0.72373808   
     11300  -9119.6392     -9193.5103      73.871074      7692.4622      297.80693      14298.523      1.3390037      0.72373808   
     11400  -9117.6996     -9194.6075      76.907853      5245.3452      310.04953      14348.017      1.3343847      0.72373808   
     11500  -9118.3414     -9192.3726      74.031287      6162.7397      298.45282      14378.03       1.3315993      0.72373808   
     11600  -9121.0082     -9194.9968      73.988519      5674.2359      298.2804       14388.05       1.330672       0.72373808   
     11700  -9121.7453     -9194.7653      73.02          9576.7308      294.37587      14374.065      1.3319666      0.72373808   
     11800  -9119.4574     -9195.2114      75.754029      7149.0498      305.39795      14338.651      1.3352564      0.72373808   
     11900  -9120.5018     -9196.4317      75.929898      8161.5116      306.10696      14290.722      1.3397346      0.72373808   
     12000  -9119.1808     -9193.0985      73.91776       9192.6164      297.99514      14239.872      1.3445187      0.63192907   
     12100  -9117.049      -9192.0798      75.030759      8771.9524      302.48213      14201.712      1.3481314      0.63192907   
     12200  -9114.8173     -9193.4213      78.603997      9390.8062      316.88743      14188.365      1.3493997      0.63192907   
     12300  -9115.724      -9191.6076      75.883606      10107.716      305.92034      14202.584      1.3480487      0.63192907   
     12400  -9117.2434     -9192.4563      75.21289       7860.7912      303.21638      14239.973      1.3445092      0.63192907   
     12500  -9118.3997     -9194.6878      76.288085      6002.895       307.55097      14291.515      1.3396603      0.63192907   
     12600  -9117.4884     -9194.0042      76.515808      7300.4387      308.46902      14343.724      1.3347841      0.63192907   
     12700  -9116.0635     -9192.9473      76.883799      8230.5676      309.95255      14382.077      1.3312246      0.63192907   
     12800  -9118.4804     -9193.7435      75.263056      7073.9378      303.41862      14402.445      1.329342       0.63192907   
     12900  -9120.9793     -9193.7548      72.775511      4901.8478      293.39023      14398.95       1.3296646      0.63192907   
     13000  -9119.5996     -9193.0224      73.422765      6329.6787      295.9996       14371.63       1.3321923      0.63996233   
     13100  -9119.2756     -9193.8026      74.526994      7103.3011      300.45123      14325.556      1.3364769      0.63996233   
     13200  -9119.2741     -9194.9884      75.714357      8111.951       305.23802      14274.086      1.341296       0.63996233   
     13300  -9116.7465     -9191.4269      74.680452      6998.7417      301.06989      14229.726      1.3454774      0.63996233   
     13400  -9117.1337     -9192.6157      75.48201       7555.0508      304.30132      14204.975      1.3478218      0.63996233   
     13500  -9118.5252     -9193.0625      74.537303      9325.1381      300.49279      14198.338      1.3484518      0.63996233   
     13600  -9119.4544     -9194.7437      75.289229      8814.3026      303.52414      14207.237      1.3476072      0.63996233   
     13700  -9123.1332     -9196.9352      73.801964      7670.3157      297.52832      14227.619      1.3456766      0.63996233   
     13800  -9121.1551     -9196.3221      75.167032      9019.7059      303.03151      14252.083      1.3433668      0.63996233   
     13900  -9119.1352     -9192.5729      73.437771      10584.525      296.06009      14276.198      1.3410976      0.63996233   
     14000  -9119.4721     -9193.5339      74.061723      8664.2535      298.57552      14303.077      1.3385773      0.6597124    
     14100  -9118.146      -9192.953       74.806959      4853.6502      301.5799       14330.225      1.3360415      0.6597124    
     14200  -9118.2972     -9194.0712      75.774042      5719.5134      305.47863      14351.179      1.3340907      0.6597124    
     14300  -9117.981      -9193.8012      75.820202      8899.1731      305.66473      14356.242      1.3336202      0.6597124    
     14400  -9116.9533     -9192.613       75.659684      9126.0921      305.01761      14351.766      1.3340362      0.6597124    
     14500  -9118.1654     -9192.2889      74.123494      5872.3999      298.82455      14337.296      1.3353826      0.6597124    
     14600  -9119.2187     -9193.248       74.029282      7846.2012      298.44474      14313.775      1.3375769      0.6597124    
     14700  -9119.5659     -9196.6833      77.117397      8882.153       310.89429      14287.028      1.340081       0.6597124    
     14800  -9119.9703     -9196.347       76.37666       9399.5873      307.90805      14254.367      1.3431516      0.6597124    
     14900  -9120.5191     -9195.8421      75.322984      7463.8284      303.66022      14226.865      1.345748       0.6597124    
     15000  -9119.5904     -9192.29        72.699529      8298.2967      293.08391      14213.372      1.3470255      0.62740759   
     15100  -9118.252      -9193.8892      75.637263      10359.176      304.92722      14219.661      1.3464298      0.62740759   
     15200  -9118.5011     -9195.0137      76.512602      9379.5709      308.45609      14238.346      1.3446629      0.62740759   
     15300  -9119.7057     -9195.0783      75.372575      7998.4615      303.86014      14268.202      1.3418491      0.62740759   
     15400  -9119.2908     -9194.9923      75.70146       4939.0335      305.18603      14303.888      1.3385015      0.62740759   
     15500  -9119.033      -9194.2544      75.221378      6550.3307      303.2506       14339.871      1.3351427      0.62740759   
     15600  -9120.8903     -9195.3457      74.455462      7156.7788      300.16285      14368.872      1.332448       0.62740759   
     15700  -9120.4383     -9194.4911      74.052824      5920.4393      298.53964      14384.277      1.331021       0.62740759   
     15800  -9119.6336     -9194.3149      74.681335      7653.6584      301.07345      14375.204      1.3318611      0.62740759   
     15900  -9118.3287     -9194.0795      75.750791      9280.7946      305.3849       14347.485      1.3344342      0.62740759   
     16000  -9117.4087     -9194.1844      76.77569       8335.9532      309.51672      14304.826      1.3384137      0.67072721   
     16100  -9119.7762     -9195.9895      76.213344      9560.6428      307.24965      14254.341      1.3431539      0.67072721   
     16200  -9119.7687     -9192.9002      73.131505      7681.6015      294.8254       14203.925      1.3479214      0.67072721   
     16300  -9119.6561     -9193.5657      73.909655      8963.8043      297.96247      14172.022      1.3509558      0.67072721   
     16400  -9120.2229     -9195.1728      74.949847      9812.1606      302.15594      14166.937      1.3514406      0.67072721   
     16500  -9121.8587     -9194.9507      73.092055      7323.6098      294.66636      14189.441      1.3492973      0.67072721   
     16600  -9120.2013     -9195.2749      75.0736        8345.0138      302.65484      14230.982      1.3453587      0.67072721   
     16700  -9118.4947     -9193.7293      75.234629      9271.9627      303.30402      14281.332      1.3406154      0.67072721   
     16800  -9118.5791     -9193.2613      74.682218      8596.0804      301.07701      14330.352      1.3360296      0.67072721   
     16900  -9119.3178     -9193.059       73.741182      5641.2086      297.28328      14370.046      1.3323391      0.67072721   
     17000  -9118.1614     -9194.4255      76.264113      7399.4846      307.45433      14391.825      1.330323       0.66273999   
     17100  -9119.9651     -9195.6561      75.690996      9356.3298      305.14384      14394.394      1.3300855      0.66273999   
     17200  -9121.2069     -9195.2235      74.016656      5468.5         298.39384      14375.826      1.3318035      0.66273999   
     17300  -9117.134      -9192.0477      74.913681      5711.4499      302.01014      14339.985      1.3351321      0.66273999   
     17400  -9115.491      -9192.6286      77.137605      10680.328      310.97576      14297.213      1.3391263      0.66273999   
     17500  -9116.6006     -9193.3778      76.777177      8155.7359      309.52272      14260.77       1.3425485      0.66273999   
     17600  -9116.7951     -9189.7529      72.957816      9279.5763      294.12519      14241.883      1.3443289      0.66273999   
     17700  -9119.1846     -9195.8277      76.643152      7847.1374      308.9824       14243.151      1.3442092      0.66273999   
     17800  -9119.1503     -9194.921       75.770643      8617.9783      305.46493      14255.985      1.3429991      0.66273999   
     17900  -9118.0005     -9190.962       72.961463      11281.565      294.13989      14276.01       1.3411152      0.66273999   
     18000  -9117.9824     -9193.9899      76.007528      10773.852      306.41992      14303.059      1.338579       0.67417377   
     18100  -9117.9779     -9194.0804      76.102462      8412.3939      306.80264      14326.637      1.3363761      0.67417377   
     18200  -9119.5057     -9195.3652      75.859556      6303.0179      305.82338      14344.161      1.3347435      0.67417377   
     18300  -9119.9695     -9193.1025      73.133016      8836.0255      294.83149      14351.063      1.3341015      0.67417377   
     18400  -9119.188      -9194.648       75.460053      6656.62        304.2128       14345.103      1.3346557      0.67417377   
     18500  -9119.2525     -9194.1584      74.905914      7487.5072      301.97883      14325.636      1.3364694      0.67417377   
     18600  -9118.3268     -9192.9003      74.573512      8992.9947      300.63877      14300.949      1.3387765      0.67417377   
     18700  -9118.7182     -9195.5122      76.794067      9403.6036      309.59081      14274.866      1.3412227      0.67417377   
     18800  -9118.8214     -9193.6698      74.848434      7359.9081      301.7471       14253.227      1.343259       0.67417377   
     18900  -9118.4605     -9194.2164      75.755943      9432.747       305.40567      14244.613      1.3440712      0.67417377   
     19000  -9119.3792     -9193.8593      74.480102      10356.412      300.26219      14249.144      1.3436439      0.72020529   
     19100  -9119.7893     -9195.3917      75.60231       9127.6706      304.78631      14264.829      1.3421665      0.72020529   
     19200  -9119.6267     -9194.9632      75.336555      7513.1503      303.71493      14285.486      1.3402257      0.72020529   
     19300  -9120.3752     -9196.4881      76.112912      5822.1663      306.84477      14305.226      1.3383762      0.72020529   
     19400  -9121.1868     -9193.3819      72.19511       7362.922       291.05038      14318.297      1.3371545      0.72020529   
     19500  -9121.0899     -9197.5676      76.477698      7641.704       308.31538      14323.304      1.3366871      0.72020529   
     19600  -9121.3115     -9193.3279      72.016393      9930.4894      290.32989      14312.5        1.337696       0.72020529   
     19700  -9120.5629     -9196.2004      75.637529      10862.548      304.92829      14293.689      1.3394565      0.72020529   
     19800  -9118.4089     -9193.2317      74.822788      9637.1175      301.64371      14270.806      1.3416043      0.72020529   
     19900  -9120.3845     -9194.4115      74.027009      9434.4329      298.43557      14252.58       1.3433199      0.72020529   
     20000  -9121.4152     -9195.542       74.126741      7249.1201      298.83764      14244.34       1.344097       0.70411251   
     20100  -9120.1156     -9195.973       75.857479      7286.0876      305.81501      14245.356      1.3440012      0.70411251   
     20200  -9120.4605     -9197.0955      76.634938      9105.421       308.94929      14252.64       1.3433143      0.70411251   
     20300  -9120.5268     -9194.585       74.058159      8577.3347      298.56115      14265.182      1.3421332      0.70411251   
     20400  -9121.3956     -9197.5177      76.122111      5963.5423      306.88185      14281.203      1.3406276      0.70411251   
     20500  -9119.643      -9193.3499      73.706834      7388.1656      297.1448       14296.89       1.3391566      0.70411251   
     20600  -9119.5981     -9194.7112      75.113053      9184.4829      302.8139       14311.648      1.3377757      0.70411251   
     20700  -9117.9011     -9194.6206      76.719496      7883.563       309.29018      14320.963      1.3369055      0.70411251   
     20800  -9118.8482     -9193.5164      74.668178      6182.7682      301.02041      14319.584      1.3370343      0.70411251   
     20900  -9117.4795     -9193.1328      75.653224      8210.1705      304.99156      14315.897      1.3373786      0.70411251   
     21000  -9119.5729     -9193.4408      73.867861      8418.6779      297.79398      14311.11       1.337826       0.65894538   
     21100  -9121.0621     -9194.7457      73.683554      5318.769       297.05096      14299.253      1.3389353      0.65894538   
     21200  -9122.8449     -9195.8357      72.990756      7483.1732      294.25798      14280.701      1.3406747      0.65894538   
     21300  -9124.287      -9197.4548      73.167878      5614.058       294.97203      14260.217      1.3426005      0.65894538   
     21400  -9122.0667     -9195.3185      73.251798      5521.7737      295.31035      14239.124      1.3445894      0.65894538   
     21500  -9121.4726     -9193.6724      72.199739      6244.7231      291.06904      14223.128      1.3461016      0.65894538   
     21600  -9120.6078     -9195.2167      74.60888       8204.4529      300.78135      14217.354      1.3466482      0.65894538   
     21700  -9119.9891     -9193.5214      73.532375      11180.656      296.44148      14228.135      1.3456279      0.65894538   
     21800  -9121.3478     -9196.9779      75.630108      9321.967       304.89837      14253.39       1.3432436      0.65894538   
     21900  -9122.7274     -9195.2964      72.569009      9217.9864      292.55773      14284.785      1.3402914      0.65894538   
     22000  -9123.1277     -9197.0355      73.907727      10447.806      297.95469      14316.728      1.337301       0.71491147   
     22100  -9123.3213     -9198.3352      75.013919      7823.8873      302.41424      14337.054      1.3354051      0.71491147   
     22200  -9123.8598     -9195.5174      71.657607      7444.0619      288.88347      14338.591      1.3352619      0.71491147   
     22300  -9124.804      -9197.3892      72.585221      8762.0951      292.62309      14325.219      1.3365084      0.71491147   
     22400  -9126.1167     -9197.484       71.367233      10550.001      287.71284      14301.337      1.3387401      0.71491147   
     22500  -9126.1618     -9197.6633      71.501486      7845.8975      288.25408      14271.948      1.3414969      0.71491147   
     22600  -9124.795      -9197.392       72.596993      6247.4939      292.67055      14240.522      1.3444574      0.71491147   
     22700  -9122.7537     -9196.3174      73.563699      8452.9342      296.56776      14214.953      1.3468757      0.71491147   
     22800  -9123.202      -9196.5642      73.36221       8581.5586      295.75548      14204.209      1.3478945      0.71491147   
     22900  -9123.6022     -9197.018       73.415794      10857.898      295.97149      14213.455      1.3470177      0.71491147   
     23000  -9121.9058     -9196.0427      74.136886      10131.363      298.87854      14233.192      1.3451498      0.66416005   
     23100  -9123.6549     -9197.3445      73.689637      10030.16       297.07548      14259.125      1.3427033      0.66416005   
     23200  -9121.4322     -9194.8468      73.414619      10251.005      295.96676      14281.73       1.3405781      0.66416005   
     23300  -9120.1371     -9195.4824      75.345235      8674.4257      303.74993      14303.391      1.338548       0.66416005   
     23400  -9119.1057     -9195.396       76.290261      6587.3794      307.55974      14322.849      1.3367295      0.66416005   
     23500  -9121.977      -9196.4142      74.437107      6512.5799      300.08886      14332.183      1.3358589      0.66416005   
     23600  -9121.4921     -9195.8189      74.326854      6019.9892      299.64438      14326.327      1.3364049      0.66416005   
     23700  -9122.1004     -9195.2533      73.152877      6422.0527      294.91156      14304.933      1.3384036      0.66416005   
     23800  -9122.2892     -9194.6468      72.357567      9200.6717      291.70532      14278.554      1.3408763      0.66416005   
     23900  -9120.3369     -9195.2874      74.950467      7898.3717      302.15844      14253.711      1.3432133      0.66416005   
     24000  -9117.5955     -9191.8883      74.292743      8555.0616      299.50686      14233.445      1.3451258      0.70248145   
     24100  -9116.3244     -9193.2213      76.896975      8618.6599      310.00567      14230.759      1.3453798      0.70248145   
     24200  -9118.4838     -9195.9701      77.486263      10280.766      312.38136      14245.475      1.34399        0.70248145   
     24300  -9118.794      -9194.575       75.781017      7941.3558      305.50676      14273.349      1.3413653      0.70248145   
     24400  -9119.164      -9194.2736      75.109596      9792.749       302.79996      14305.646      1.338337       0.70248145   
     24500  -9121.1386     -9197.2445      76.105891      6420.6158      306.81646      14332.952      1.3357872      0.70248145   
     24600  -9121.1072     -9193.3949      72.287696      6023.979       291.42363      14343.012      1.3348504      0.70248145   
     24700  -9120.2498     -9195.1924      74.942648      7443.5085      302.12692      14339.006      1.3352232      0.70248145   
     24800  -9118.904      -9193.7219      74.817917      7232.0387      301.62407      14317.899      1.3371916      0.70248145   
     24900  -9117.8725     -9194.5986      76.726167      6858.1585      309.31707      14289.932      1.3398087      0.70248145   
     25000  -9120.2247     -9194.7164      74.491669      6434.9617      300.30882      14263.971      1.3422471      0.67472798   
     25100  -9120.0117     -9195.0914      75.079656      8953.3387      302.67926      14249.826      1.3435796      0.67472798   
     25200  -9119.4377     -9196.2096      76.771856      9170.744       309.50126      14248.249      1.3437283      0.67472798   
     25300  -9120.6837     -9195.0839      74.400206      7522.8472      299.94009      14258.053      1.3428042      0.67472798   
     25400  -9122.6395     -9195.715       73.07551       8292.0342      294.59966      14275.091      1.3412016      0.67472798   
     25500  -9119.8319     -9196.3464      76.514438      6174.5837      308.4635       14294.751      1.3393569      0.67472798   
     25600  -9119.4059     -9195.8836      76.477716      9837.004       308.31546      14313.183      1.3376322      0.67472798   
     25700  -9119.5222     -9193.515       73.992755      9394.7896      298.29748      14325.917      1.3364432      0.67472798   
     25800  -9119.1063     -9193.8401      74.733792      5903.5399      301.28493      14333.523      1.335734       0.67472798   
     25900  -9119.1504     -9193.4564      74.306013      6385.7958      299.56036      14329.618      1.336098       0.67472798   
     26000  -9120.3661     -9195.0391      74.673069      7444.7974      301.04013      14315.307      1.3374337      0.69586999   
     26100  -9123.3241     -9196.3986      73.074574      7984.0401      294.59589      14293.696      1.3394558      0.69586999   
     26200  -9121.4963     -9195.2647      73.768396      7673.2033      297.39299      14261.831      1.3424486      0.69586999   
     26300  -9121.535      -9194.9605      73.425489      8675.8748      296.01058      14225.061      1.3459186      0.69586999   
     26400  -9121.2953     -9194.9106      73.615262      9482.1466      296.77564      14198.776      1.3484102      0.69586999   
     26500  -9121.7166     -9196.0006      74.284004      7244.2785      299.47163      14189.433      1.3492981      0.69586999   
     26600  -9118.2329     -9194.547       76.31412       6904.8441      307.65593      14201.769      1.348126       0.69586999   
     26700  -9118.2537     -9194.5222      76.268497      8714.2307      307.472        14235.542      1.3449277      0.69586999   
     26800  -9116.0189     -9191.1682      75.149257      7032.5993      302.95985      14288.468      1.3399459      0.69586999   
     26900  -9118.2379     -9194.2576      76.019745      6256.7217      306.46917      14351.352      1.3340746      0.69586999   
     27000  -9116.0551     -9193.447       77.39191       4257.8733      312.00098      14407.456      1.3288796      0.74544427   
     27100  -9115.9158     -9192.5793      76.663442      8041.6049      309.0642       14444.202      1.3254989      0.74544427   
     27200  -9116.6184     -9191.9406      75.322188      3700.4006      303.65701      14453.865      1.3246128      0.74544427   
     27300  -9116.8195     -9192.7488      75.929349      6178.89        306.10474      14432.294      1.3265926      0.74544427   
     27400  -9117.5187     -9190.7553      73.236675      8985.7404      295.24939      14385.617      1.330897       0.74544427   
     27500  -9118.106      -9193.8594      75.753439      7308.5625      305.39558      14326.846      1.3363566      0.74544427   
     27600  -9117.2082     -9192.8121      75.603822      9650.9099      304.7924       14263.562      1.3422856      0.74544427   
     27700  -9116.6761     -9190.2868      73.610725      9800.0318      296.75735      14215.77       1.3467982      0.74544427   
     27800  -9118.0779     -9192.3082      74.23026       10912.437      299.25497      14196.634      1.3486137      0.74544427   
     27900  -9121.5176     -9195.348       73.830388      7955.2554      297.64291      14204.172      1.347898       0.74544427   
     28000  -9122.2201     -9195.1578      72.937731      8527.9382      294.04421      14223.602      1.3460567      0.68887222   
     28100  -9120.3978     -9193.8971      73.499253      8869.4953      296.30796      14250.793      1.3434884      0.68887222   
     28200  -9121.843      -9195.8355      73.992534      9423.6061      298.29659      14278.633      1.3408689      0.68887222   
     28300  -9122.7928     -9195.5967      72.80396       8985.79        293.50492      14296.735      1.3391712      0.68887222   
     28400  -9122.1675     -9195.1471      72.979623      7097.8527      294.2131       14301.5        1.3387249      0.68887222   
     28500  -9119.2728     -9193.628       74.35517       4795.7606      299.75854      14295.088      1.3393254      0.68887222   
     28600  -9118.5137     -9194.7806      76.266834      5029.4791      307.4653       14287.376      1.3400483      0.68887222   
     28700  -9117.0662     -9193.7549      76.688682      7618.9791      309.16595      14282.45       1.3405105      0.68887222   
     28800  -9121.3204     -9195.9672      74.646875      7281.0832      300.93453      14276.362      1.3410822      0.68887222   
     28900  -9120.9846     -9195.8958      74.911189      8498.4563      302.00009      14266.807      1.3419804      0.68887222   
     29000  -9123.7606     -9199.0231      75.262431      9416.162       303.41611      14249.608      1.3436001      0.69284631   
     29100  -9122.5949     -9196.7864      74.191482      10170.559      299.09864      14221.742      1.3462327      0.69284631   
     29200  -9122.7147     -9196.5496      73.834913      8659.7853      297.66115      14193.621      1.3488999      0.69284631   
     29300  -9122.1334     -9195.6908      73.557423      8420.8373      296.54246      14173.605      1.3508049      0.69284631   
     29400  -9121.9027     -9196.7998      74.897158      7648.3355      301.94353      14171.689      1.3509875      0.69284631   
     29500  -9121.2613     -9196.2357      74.974401      6869.1465      302.25493      14185.78       1.3496456      0.69284631   
     29600  -9122.0352     -9195.7804      73.745236      11074.652      297.29962      14213.083      1.3470529      0.69284631   
     29700  -9120.6585     -9194.7431      74.084649      10351.02       298.66795      14249.027      1.3436548      0.69284631   
     29800  -9120.7181     -9194.7632      74.045146      7558.072       298.50869      14289.085      1.3398881      0.69284631   
     29900  -9120.6089     -9195.3133      74.704385      8548.9906      301.16638      14319.325      1.3370584      0.69284631   
     30000  -9121.3548     -9195.7994      74.444632      8595.3148      300.11919      14336.205      1.3354842      0.64883123   
     30100  -9120.5586     -9196.7772      76.21866       6421.7202      307.27109      14337.681      1.3353466      0.64883123   
     30200  -9122.3009     -9195.8707      73.569835      6992.2336      296.5925       14319.188      1.3370713      0.64883123   
     30300  -9120.8052     -9194.8237      74.018532      9377.1694      298.4014       14282.885      1.3404697      0.64883123   
     30400  -9121.9731     -9197.2488      75.275752      5749.7618      303.46981      14238.938      1.3446069      0.64883123   
     30500  -9120.1161     -9195.6706      75.55445       9996.8798      304.59336      14191.747      1.349078       0.64883123   
     30600  -9119.5574     -9195.8192      76.261818      11119.895      307.44508      14155.69       1.3525144      0.64883123   
     30700  -9121.2412     -9195.0593      73.818058      12328.509      297.5932       14141.26       1.3538945      0.64883123   
     30800  -9119.44       -9193.9676      74.527516      9586.7611      300.45334      14153.475      1.3527261      0.64883123   
     30900  -9119.6447     -9195.8182      76.173464      9082.9855      307.08888      14196.864      1.3485918      0.64883123   
     31000  -9119.8211     -9195.4556      75.63446       11145.074      304.91592      14262.412      1.3423939      0.62297189   
     31100  -9120.4286     -9193.8744      73.445855      5288.7539      296.09269      14338.081      1.3353094      0.62297189   
     31200  -9120.6604     -9194.323       73.662669      3945.9247      296.96676      14405.508      1.3290593      0.62297189   
     31300  -9119.2723     -9193.6078      74.335546      4059.2542      299.67942      14444.349      1.3254855      0.62297189   
     31400  -9119.0894     -9191.8516      72.76213       5975.5905      293.33629      14442.702      1.3256367      0.62297189   
     31500  -9119.2361     -9193.9065      74.670421      5295.809       301.02945      14404.316      1.3291693      0.62297189   
     31600  -9119.336      -9193.5695      74.233492      7226.1859      299.268        14334.589      1.3356347      0.62297189   
     31700  -9120.588      -9195.5689      74.980855      8564.7848      302.28095      14245.708      1.343968       0.62297189   
     31800  -9123.1531     -9196.7646      73.611557      11991.369      296.7607       14159.337      1.352166       0.62297189   
     31900  -9122.2929     -9196.5387      74.245806      8280.2912      299.31764      14094.797      1.3583576      0.62297189   
     32000  -9120.2998     -9194.1465      73.84665       10868.764      297.70847      14061.394      1.3615844      0.72222612   
     32100  -9120.2382     -9196.4955      76.257277      12245.554      307.42677      14071.847      1.360573       0.72222612   
     32200  -9123.3497     -9197.8339      74.484217      11183.522      300.27878      14126.046      1.3553527      0.72222612   
     32300  -9123.8993     -9196.1571      72.257815      8658.8115      291.30317      14208.261      1.3475101      0.72222612   
     32400  -9123.3047     -9196.6887      73.383968      9253.6968      295.84319      14296.096      1.339231       0.72222612   
     32500  -9124.1793     -9195.5034      71.324141      7291.9209      287.53912      14364.713      1.3328338      0.72222612   
     32600  -9121.2702     -9193.5781      72.307914      4066.0306      291.50514      14402.792      1.3293099      0.72222612   
     32700  -9119.5242     -9194.7274      75.203138      4112.1053      303.17707      14404.421      1.3291596      0.72222612   
     32800  -9119.1156     -9194.9369      75.82127       6004.251       305.66903      14372.659      1.3320969      0.72222612   
     32900  -9119.3489     -9194.3909      75.041983      9158.0951      302.52738      14315.977      1.3373711      0.72222612   
     33000  -9119.7722     -9195.4092      75.637016      6490.6325      304.92622      14251.304      1.3434402      0.73678373   
     33100  -9120.2145     -9194.69        74.47548       8267.7661      300.24356      14188.636      1.3493739      0.73678373   
     33200  -9118.6746     -9193.5941      74.919518      11531.171      302.03367      14144.433      1.3535908      0.73678373   
     33300  -9116.8031     -9194.7614      77.958305      7104.4041      314.28436      14131.497      1.3548299      0.73678373   
     33400  -9118.4626     -9195.9375      77.474936      11273.029      312.33569      14151.885      1.352878       0.73678373   
     33500  -9116.8283     -9193.0688      76.240481      8663.2107      307.35905      14203.976      1.3479165      0.73678373   
     33600  -9116.5441     -9192.2297      75.685546      7530.3035      305.12187      14277.367      1.3409878      0.73678373   
     33700  -9117.5551     -9193.9766      76.421521      6419.2621      308.08891      14352.826      1.3339377      0.73678373   
     33800  -9120.0203     -9195.2243      75.204031      5325.3168      303.18067      14415.064      1.3281782      0.73678373   
     33900  -9119.8308     -9194.3751      74.544209      2730.7925      300.52063      14449.631      1.3250009      0.73678373   
     34000  -9120.2574     -9194.6286      74.371218      5947.8115      299.82323      14450.498      1.3249214      0.6746481    
     34100  -9122.6886     -9195.7131      73.024573      6135.0842      294.39431      14412.873      1.3283801      0.6746481    
     34200  -9124.2546     -9196.4221      72.167485      6335.6403      290.93901      14338.063      1.3353111      0.6746481    
     34300  -9123.2593     -9197.5711      74.311805      8579.1397      299.58371      14240.15       1.3444925      0.6746481    
     34400  -9122.1835     -9196.0045      73.820915      9582.6714      297.60472      14144.58       1.3535768      0.6746481    
     34500  -9121.4748     -9197.2832      75.808362      9009.1439      305.61699      14080.088      1.3597766      0.6746481    
     34600  -9121.571      -9195.9073      74.336276      11164.77       299.68237      14059.401      1.3617774      0.6746481    
     34700  -9121.9601     -9195.5945      73.634491      11073.892      296.85316      14088.536      1.3589613      0.6746481    
     34800  -9121.5889     -9195.4207      73.831884      10532.947      297.64894      14162.684      1.3518465      0.6746481    
     34900  -9121.3976     -9197.3384      75.940828      5303.3674      306.15102      14261.495      1.3424802      0.6746481    
     35000  -9119.8376     -9193.8153      73.977639      5349.9201      298.23654      14356.053      1.3336378      0.66721012   
     35100  -9120.4152     -9194.6298      74.214555      5457.5804      299.19165      14423.937      1.3273612      0.66721012   
     35200  -9118.4115     -9194.3977      75.986158      5052.1356      306.33377      14456.188      1.3243999      0.66721012   
     35300  -9117.4562     -9194.06        76.60382       6908.457       308.82383      14449.207      1.3250399      0.66721012   
     35400  -9118.9393     -9192.123       73.183737      7633.8411      295.03597      14408.646      1.3287699      0.66721012   
     35500  -9118.4755     -9191.9218      73.446278      8960.4975      296.09439      14342.639      1.3348851      0.66721012   
     35600  -9118.1719     -9193.6398      75.467903      8710.9989      304.24445      14274.88       1.3412214      0.66721012   
     35700  -9118.929      -9194.4902      75.561188      10682.408      304.62053      14216.349      1.3467434      0.66721012   
     35800  -9119.4705     -9193.322       73.851437      10415.01       297.72777      14175.587      1.350616       0.66721012   
     35900  -9119.9836     -9195.2898      75.306145      6766.3281      303.59233      14162.098      1.3519024      0.66721012   
     36000  -9120.5248     -9195.3388      74.813922      9399.3289      301.60797      14171.295      1.3510251      0.65216758   
     36100  -9121.0116     -9193.7887      72.77711       6973.6297      293.39668      14205.726      1.3477505      0.65216758   
     36200  -9123.8147     -9197.5295      73.714766      7120.3929      297.17678      14253.235      1.3432581      0.65216758   
     36300  -9123.7322     -9196.2085      72.476328      6487.2939      292.18409      14296.349      1.3392073      0.65216758   
     36400  -9122.2179     -9197.2123      74.994388      6253.5817      302.33551      14330.695      1.3359976      0.65216758   
     36500  -9122.7657     -9195.5059      72.740214      5541.6641      293.24793      14346.976      1.3344816      0.65216758   
     36600  -9123.1896     -9195.5647      72.375166      7873.4621      291.77627      14340.976      1.3350399      0.65216758   
     36700  -9122.961      -9197.5349      74.573884      9136.3577      300.64027      14315.755      1.3373919      0.65216758   
     36800  -9120.1503     -9194.4521      74.301825      5133.715       299.54348      14268.936      1.3417801      0.65216758   
     36900  -9122.4946     -9195.4077      72.913091      6381.3335      293.94488      14215.939      1.3467822      0.65216758   
     37000  -9122.2588     -9196.7338      74.47496       8625.7353      300.24146      14170.109      1.3511381      0.67994079   
     37100  -9123.4396     -9197.5669      74.127271      8978.2258      298.83977      14144.516      1.3535829      0.67994079   
     37200  -9121.7375     -9195.7242      73.986646      9959.0486      298.27285      14138.857      1.3541246      0.67994079   
     37300  -9120.8559     -9196.9684      76.112419      12273.85       306.84278      14159.509      1.3521497      0.67994079   
     37400  -9121.7415     -9197.3071      75.565549      8631.4034      304.63811      14204.615      1.347856       0.67994079   
     37500  -9121.8331     -9196.2846      74.451521      10022.639      300.14697      14264.614      1.3421866      0.67994079   
     37600  -9122.1114     -9195.6125      73.501111      8274.6327      296.31545      14324.7        1.3365567      0.67994079   
     37700  -9119.8926     -9195.4689      75.576287      7293.7521      304.6814       14374.226      1.3319517      0.67994079   
     37800  -9117.5989     -9193.6086      76.00972       7051.75        306.42876      14402.113      1.3293726      0.67994079   
     37900  -9117.7768     -9193.7843      76.007525      8792.2657      306.41991      14402.934      1.3292968      0.67994079   
     38000  -9117.6741     -9195.507       77.832843      8085.354       313.77857      14378.905      1.3315183      0.65114835   
     38100  -9118.9035     -9194.6643      75.760804      10300.318      305.42527      14329.552      1.3361042      0.65114835   
     38200  -9119.4597     -9192.8148      73.35512       11193.025      295.72689      14267.309      1.3419332      0.65114835   
     38300  -9122.2369     -9196.0159      73.779         10049.466      297.43574      14204.527      1.3478643      0.65114835   
     38400  -9120.8436     -9195.0352      74.191671      10687.136      299.0994       14147.563      1.3532913      0.65114835   
     38500  -9119.2178     -9195.7877      76.569855      10747.876      308.68691      14110.626      1.3568338      0.65114835   
     38600  -9118.6906     -9194.0187      75.32813       11202.914      303.68097      14110.466      1.3568492      0.65114835   
     38700  -9119.8098     -9196.0869      76.277187      8512.6242      307.50703      14149.881      1.3530696      0.65114835   
     38800  -9122.2191     -9196.015       73.795979      8408.9568      297.50419      14220.915      1.346311       0.65114835   
     38900  -9123.1682     -9195.1592      71.990967      8718.8071      290.22739      14301.357      1.3387383      0.65114835   
     39000  -9124.7007     -9196.4945      71.793797      8558.9493      289.43251      14370.235      1.3323216      0.65566346   
     39100  -9122.7708     -9195.9736      73.202843      7812.7154      295.113        14412.616      1.3284039      0.65566346   
     39200  -9120.7364     -9193.7263      72.989823      7428.3493      294.25422      14419.431      1.327776       0.65566346   
     39300  -9120.65       -9195.6826      75.032619      5346.2297      302.48963      14387.632      1.3307106      0.65566346   
     39400  -9120.4241     -9195.1159      74.691764      6231.645       301.11549      14324.537      1.3365719      0.65566346   
     39500  -9117.8286     -9193.018       75.189399      7789.5253      303.12168      14248.05       1.343747       0.65566346   
     39600  -9116.5361     -9193.1582      76.622096      8335.426       308.89752      14178.57       1.3503318      0.65566346   
     39700  -9118.4479     -9196.2656      77.817702      8538.5007      313.71753      14133.982      1.3545917      0.65566346   
     39800  -9118.6947     -9193.2841      74.589415      10193.524      300.70288      14118.663      1.3560615      0.65566346   
     39900  -9119.8372     -9195.1811      75.343952      8376.6015      303.74475      14138.019      1.3542049      0.65566346   
     40000  -9118.315      -9192.8336      74.518595      9900.3148      300.41737      14187.655      1.3494672      0.68889073   
     40100  -9118.5816     -9194.4892      75.90761       8068.1745      306.01711      14256.471      1.3429533      0.68889073   
     40200  -9119.05       -9193.7604      74.710402      8601.9178      301.19063      14325.202      1.3365099      0.68889073   
     40300  -9117.7022     -9192.4175      74.715309      7298.3934      301.21041      14381.061      1.3313187      0.68889073   
     40400  -9117.5693     -9192.5852      75.015928      6261.1644      302.42234      14407.901      1.3288386      0.68889073   
     40500  -9117.6228     -9194.4252      76.80237       5076.6072      309.62428      14401.848      1.3293971      0.68889073   
     40600  -9118.3198     -9195.4624      77.142553      7637.3405      310.99571      14361.624      1.3331204      0.68889073   
     40700  -9118.3902     -9194.1006      75.710455      6520.4884      305.22229      14299.161      1.3389439      0.68889073   
     40800  -9118.5994     -9193.5102      74.910775      6594.4792      301.99843      14232.67       1.3451991      0.68889073   
     40900  -9119.533      -9195.0154      75.482405      8247.4419      304.30292      14178.383      1.3503497      0.68889073   
     41000  -9118.5591     -9192.6986      74.139412      9640.741       298.88872      14148.375      1.3532136      0.69839217   
     41100  -9119.0261     -9193.1288      74.102715      8251.1379      298.74078      14150.164      1.3530426      0.69839217   
     41200  -9118.6213     -9195.5671      76.945808      9331.6862      310.20254      14176.494      1.3505296      0.69839217   
     41300  -9118.2077     -9193.1516      74.943959      11597.537      302.1322       14220.406      1.3463592      0.69839217   
     41400  -9120.2124     -9193.8366      73.624192      8870.0153      296.81164      14276.161      1.3411011      0.69839217   
     41500  -9122.2803     -9195.119       72.838609      8306.5078      293.64461      14330.453      1.3360202      0.69839217   
     41600  -9124.9374     -9200.0084      75.070994      8025.8998      302.64434      14367.328      1.3325911      0.69839217   
     41700  -9123.9928     -9196.6762      72.683407      7308.3232      293.01892      14371.868      1.3321702      0.69839217   
     41800  -9121.1345     -9194.654       73.519538      5943.9717      296.38973      14344.23       1.334737       0.69839217   
     41900  -9119.9879     -9193.259       73.271015      7121.2006      295.38783      14299.857      1.3388787      0.69839217   
     42000  -9119.8131     -9194.2735      74.460346      5116.358       300.18255      14254.467      1.3431421      0.63213008   
     42100  -9117.7306     -9192.4696      74.738932      5962.2544      301.30565      14212.559      1.3471026      0.63213008   
     42200  -9118.2236     -9193.315       75.091464      8888.7519      302.72686      14189.102      1.3493296      0.63213008   
     42300  -9116.9508     -9194.1975      77.246695      10926.184      311.41555      14190.699      1.3491777      0.63213008   
     42400  -9120.5835     -9194.9534      74.369966      7750.8867      299.81818      14209.938      1.347351       0.63213008   
     42500  -9119.5411     -9192.6122      73.071146      7115.1742      294.58207      14235.529      1.3449289      0.63213008   
     42600  -9119.5857     -9193.8046      74.218916      7312.6525      299.20923      14267.426      1.3419221      0.63213008   
     42700  -9120.3738     -9194.1077      73.733961      8437.4961      297.25417      14304.928      1.3384042      0.63213008   
     42800  -9123.6209     -9195.7379      72.116965      6389.6082      290.73534      14332.668      1.3358137      0.63213008   
     42900  -9121.7493     -9197.1124      75.36312       6517.1925      303.82203      14338.092      1.3353084      0.63213008   
     43000  -9122.6373     -9196.9224      74.285181      9446.0545      299.47638      14323.471      1.3366714      0.66029118   
     43100  -9124.3749     -9196.6554      72.280527      8165.4829      291.39473      14290.245      1.3397793      0.66029118   
     43200  -9122.2771     -9193.4636      71.186545      8971.7466      286.98441      14242.933      1.3442298      0.66029118   
     43300  -9121.2379     -9197.0368      75.798885      8007.9507      305.57879      14196.503      1.3486261      0.66029118   
     43400  -9120.4925     -9195.5648      75.072332      8554.8351      302.64973      14160.685      1.3520373      0.66029118   
     43500  -9119.4363     -9194.0268      74.590417      10230.344      300.70692      14147.171      1.3533288      0.66029118   
     43600  -9118.1116     -9193.5087      75.397079      9506.7882      303.95893      14165.74       1.3515548      0.66029118   
     43700  -9117.8655     -9193.3132      75.447762      8621.6434      304.16325      14212.945      1.347066       0.66029118   
     43800  -9119.5804     -9195.4063      75.825911      8663.2277      305.68774      14281.629      1.3405876      0.66029118   
     43900  -9119.1057     -9193.1428      74.037169      5415.0291      298.47653      14347.505      1.3344323      0.66029118   
     44000  -9119.2784     -9195.6017      76.323314      5910.0108      307.69299      14395.746      1.3299606      0.75831389   
     44100  -9119.1049     -9192.9163      73.811428      5706.1524      297.56647      14415.844      1.3281064      0.75831389   
     44200  -9118.0839     -9193.6851      75.601267      6594.7046      304.7821       14405.354      1.3290735      0.75831389   
     44300  -9118.1033     -9191.4146      73.311341      9568.765       295.5504       14365.251      1.3327838      0.75831389   
     44400  -9116.9619     -9191.8622      74.900241      7796.9393      301.95596      14301.611      1.3387145      0.75831389   
     44500  -9114.7179     -9191.9655      77.247532      7836.842       311.41892      14229.033      1.3455429      0.75831389   
     44600  -9114.7783     -9191.7367      76.958418      5595.0268      310.25338      14167.942      1.3513448      0.75831389   
     44700  -9116.0026     -9192.0602      76.057602      8381.7833      306.62179      14136.745      1.354327       0.75831389   
     44800  -9115.7526     -9194.1689      78.416287      9124.654       316.13069      14143.379      1.3536917      0.75831389   
     44900  -9117.5283     -9193.156       75.627781      8383.9223      304.88899      14184.12       1.3498035      0.75831389   
     45000  -9117.5163     -9193.9228      76.406487      8958.3216      308.0283       14248.176      1.3437351      0.68790875   
     45100  -9118.1497     -9193.2451      75.095415      8032.6814      302.74279      14319.519      1.3370403      0.68790875   
     45200  -9118.623      -9192.8677      74.244721      7916.037       299.31327      14380.657      1.331356       0.68790875   
     45300  -9120.1223     -9195.412       75.289763      7055.1052      303.52629      14414.255      1.3282528      0.68790875   
     45400  -9121.9621     -9195.9823      74.020146      7602.964       298.4079       14416.699      1.3280277      0.68790875   
     45500  -9120.5082     -9194.1595      73.65135       7000.1929      296.92113      14383.983      1.3310482      0.68790875   
     45600  -9118.9413     -9194.4431      75.501739      5986.6551      304.38086      14327.354      1.3363092      0.68790875   
     45700  -9119.8044     -9194.1432      74.338834      8565.317       299.69268      14262.308      1.3424037      0.68790875   
     45800  -9122.7527     -9195.4735      72.720849      10396.565      293.16986      14200.795      1.3482185      0.68790875   
     45900  -9123.154      -9198.4672      75.313203      10620.31       303.62079      14161.929      1.3519186      0.68790875   
     46000  -9120.7837     -9194.5991      73.815326      10880.595      297.58218      14147.659      1.3532822      0.63137505   
     46100  -9118.5863     -9193.9958      75.40956       8748.8283      304.00925      14160.749      1.3520312      0.63137505   
     46200  -9119.227      -9193.7968      74.569809      6605.0557      300.62384      14199.483      1.3483431      0.63137505   
     46300  -9120.5853     -9196.14        75.554724      7089.1506      304.59447      14248.667      1.3436888      0.63137505   
     46400  -9119.7131     -9196.2092      76.49617       10576.915      308.38985      14293.389      1.3394846      0.63137505   
     46500  -9119.9516     -9194.0021      74.050462      9394.2958      298.53012      14327.092      1.3363337      0.63137505   
     46600  -9122.8626     -9194.689       71.826371      7676.4325      289.56383      14346.88       1.3344905      0.63137505   
     46700  -9120.8349     -9193.0174      72.182525      7533.5936      290.99965      14346.32       1.3345425      0.63137505   
     46800  -9118.9045     -9195.0447      76.140185      8037.3886      306.95472      14326.267      1.3364106      0.63137505   
     46900  -9119.2091     -9194.7568      75.547663      6717.4375      304.566        14290.715      1.3397353      0.63137505   
     47000  -9119.2143     -9193.4308      74.216482      9313.3411      299.19942      14254.875      1.3431037      0.67058531   
     47100  -9118.1394     -9194.6602      76.520778      12924.853      308.48906      14228.179      1.3456236      0.67058531   
     47200  -9118.3971     -9192.5627      74.165536      9366.0031      298.99404      14216.672      1.3467129      0.67058531   
     47300  -9119.8254     -9194.064       74.238617      6832.0015      299.28866      14224.781      1.3459451      0.67058531   
     47400  -9118.8295     -9193.9368      75.107316      7483.5968      302.79077      14244.255      1.344105       0.67058531   
     47500  -9118.4603     -9192.895       74.434727      8556.1869      300.07926      14270.434      1.3416393      0.67058531   
     47600  -9119.8566     -9194.5092      74.652565      6902.5447      300.95746      14298.55       1.3390012      0.67058531   
     47700  -9119.4852     -9194.0686      74.583307      7082.3455      300.67826      14321.745      1.3368325      0.67058531   
     47800  -9116.8149     -9192.5766      75.761654      8559.7089      305.42869      14337.7        1.3353449      0.67058531   
     47900  -9115.8445     -9192.6098      76.765326      10405.237      309.47494      14344.601      1.3347025      0.67058531   
     48000  -9117.6771     -9192.5708      74.8937        10448.923      301.92959      14343.005      1.334851       0.66537995   
     48100  -9115.9634     -9193.6583      77.694867      8776.094       313.22233      14330.98       1.3359711      0.66537995   
     48200  -9117.2264     -9192.3152      75.088773      7114.764       302.71601      14312.929      1.3376559      0.66537995   
     48300  -9119.1816     -9194.7419      75.560336      8855.6469      304.61709      14290.954      1.3397128      0.66537995   
     48400  -9120.5888     -9196.9004      76.311575      6947.7979      307.64567      14269.053      1.3417691      0.66537995   
     48500  -9120.6032     -9194.2326      73.629395      7457.936       296.83261      14245.221      1.3440139      0.66537995   
     48600  -9122.3501     -9196.2868      73.936699      6691.2049      298.07149      14229.224      1.3455248      0.66537995   
     48700  -9121.5057     -9196.6843      75.178632      7911.3233      303.07827      14224.622      1.3459602      0.66537995   
     48800  -9121.652      -9194.3247      72.672617      9301.4603      292.97542      14227.328      1.3457042      0.66537995   
     48900  -9124.6108     -9196.6106      71.999796      7449.2917      290.26298      14236.854      1.3448037      0.66537995   
     49000  -9123.5085     -9196.7163      73.207771      5598.1867      295.13286      14249.99       1.3435641      0.65956087   
     49100  -9124.3991     -9197.6486      73.249517      9512.3493      295.30116      14264.341      1.3422123      0.65956087   
     49200  -9122.2802     -9194.6884      72.40823       8888.7661      291.90956      14277.229      1.3410007      0.65956087   
     49300  -9121.4621     -9194.8274      73.36529       6779.1467      295.76789      14290.793      1.339728       0.65956087   
     49400  -9121.6961     -9195.4424      73.74626       4923.1154      297.30375      14299.037      1.3389555      0.65956087   
     49500  -9118.6217     -9194.421       75.799318      6620.2728      305.58054      14302.83       1.3386004      0.65956087   
     49600  -9118.8288     -9193.4901      74.661256      5851.0005      300.9925       14301.824      1.3386946      0.65956087   
     49700  -9117.2011     -9192.4051      75.204043      8184.947       303.18072      14293.544      1.3394701      0.65956087   
     49800  -9118.1713     -9192.9041      74.732803      9390.0477      301.28094      14286.358      1.3401439      0.65956087   
     49900  -9120.4914     -9194.2508      73.75945       6808.715       297.35693      14284.028      1.3403624      0.65956087   
     50000  -9122.8047     -9196.7839      73.979163      8571.9355      298.24269      14281.527      1.3405971      0.64908889   
     50100  -9122.3764     -9195.8667      73.490351      7430.8747      296.27207      14270.822      1.3416028      0.64908889   
     50200  -9122.7194     -9198.0399      75.320501      7401.3079      303.65021      14256.146      1.342984       0.64908889   
     50300  -9122.477      -9196.3294      73.852394      7606.4373      297.73162      14239.265      1.344576       0.64908889   
     50400  -9122.4169     -9195.4893      73.072393      9940.2371      294.58709      14224.843      1.3459393      0.64908889   
     50500  -9120.8032     -9193.9389      73.13574       8616.1689      294.84247      14224.644      1.3459581      0.64908889   
     50600  -9120.0571     -9195.3003      75.2432        8920.2328      303.33858      14240.797      1.3444314      0.64908889   
     50700  -9120.3108     -9195.9964      75.685568      9183.9371      305.12196      14265.666      1.3420877      0.64908889   
     50800  -9121.2483     -9196.1929      74.944585      8393.2994      302.13473      14287.603      1.3400271      0.64908889   
     50900  -9120.68       -9195.0562      74.376209      8065.3602      299.84335      14304.429      1.3384508      0.64908889   
     51000  -9122.6463     -9193.9684      71.322086      5448.2147      287.53083      14311.658      1.3377747      0.68035788   
     51100  -9121.4609     -9196.4022      74.941334      5963.4481      302.12162      14305.422      1.3383579      0.68035788   
     51200  -9120.4436     -9193.3444      72.900784      9083.8578      293.89526      14291.122      1.3396971      0.68035788   
     51300  -9119.3776     -9192.8023      73.424692      7624.5432      296.00737      14279.691      1.3407695      0.68035788   
     51400  -9119.9242     -9196.3783      76.454108      8626.8919      308.22028      14273.97       1.3413069      0.68035788   
     51500  -9119.2693     -9193.8582      74.588904      10504.021      300.70082      14266.166      1.3420406      0.68035788   
     51600  -9118.4696     -9193.791       75.321417      9959.8413      303.6539       14259.334      1.3426836      0.68035788   
     51700  -9118.3509     -9193.264       74.913142      6396.4183      302.00796      14261.55       1.342475       0.68035788   
     51800  -9119.5721     -9192.7209      73.148791      7955.0058      294.89509      14273.007      1.3413974      0.68035788   
     51900  -9120.3338     -9196.6075      76.273681      5088.5116      307.4929       14291.541      1.3396578      0.68035788   
     52000  -9121.1824     -9196.9904      75.808053      8229.6653      305.61575      14308.283      1.3380903      0.67990561   
     52100  -9117.8955     -9191.976       74.080525      8393.3798      298.65132      14319.712      1.3370223      0.67990561   
     52200  -9121.0325     -9196.7435      75.710982      7503.4769      305.22441      14326.299      1.3364076      0.67990561   
     52300  -9119.4972     -9194.8527      75.355525      8691.0798      303.79141      14317.256      1.3372517      0.67990561   
     52400  -9119.8447     -9193.6345      73.789718      10855.205      297.47895      14299.812      1.338883       0.67990561   
     52500  -9119.6381     -9193.8641      74.225979      10648.551      299.23771      14275.617      1.3411521      0.67990561   
     52600  -9118.9867     -9194.5332      75.546509      10297.159      304.56135      14252.062      1.3433688      0.67990561   
     52700  -9119.0893     -9195.7296      76.640322      9997.1158      308.97099      14234.511      1.3450252      0.67990561   
     52800  -9120.1324     -9194.0178      73.885408      10947.479      297.86472      14230.364      1.3454171      0.67990561   
     52900  -9122.8886     -9196.5636      73.674996      9129.3144      297.01645      14240.615      1.3444485      0.67990561   
     53000  -9124.5454     -9196.8493      72.303879      9608.896       291.48888      14257.119      1.3428922      0.67547078   
     53100  -9125.2222     -9197.7653      72.543058      8036.6423      292.45311      14273.573      1.3413442      0.67547078   
     53200  -9126.147      -9198.5129      72.365872      6794.302       291.7388       14287.913      1.339998       0.67547078   
     53300  -9123.6318     -9196.5707      72.938944      8727.9866      294.0491       14295.657      1.3392721      0.67547078   
     53400  -9122.1028     -9196.2736      74.17087       8248.4938      299.01554      14295.177      1.3393171      0.67547078   
     53500  -9120.1302     -9194.8457      74.715438      7440.0779      301.21093      14290.833      1.3397242      0.67547078   
     53600  -9118.1153     -9192.1146      73.999231      8328.0533      298.32359      14289.107      1.339886       0.67547078   
     53700  -9118.6591     -9194.6606      76.001505      11890.599      306.39564      14292.877      1.3395326      0.67547078   
     53800  -9119.1316     -9194.9584      75.826839      7930.5712      305.69148      14301.43       1.3387314      0.67547078   
     53900  -9118.8815     -9194.4615      75.580022      5673.3014      304.69646      14311.355      1.3378031      0.67547078   
     54000  -9118.507      -9194.1498      75.642827      7335.8296      304.94965      14321.33       1.3368713      0.74295445   
     54100  -9118.9632     -9193.9597      74.996436      6789.6247      302.34376      14324.901      1.336538       0.74295445   
     54200  -9118.9197     -9193.659       74.739269      6865.2615      301.30701      14324.733      1.3365537      0.74295445   
     54300  -9118.8986     -9194.5909      75.692267      4356.19        305.14896      14322.483      1.3367636      0.74295445   
     54400  -9121.2137     -9195.9021      74.688419      7821.3847      301.10201      14320.118      1.3369845      0.74295445   
     54500  -9121.5998     -9196.7382      75.138413      8740.417       302.91613      14316.171      1.337353       0.74295445   
     54600  -9122.95       -9195.0576      72.107673      6726.5951      290.69788      14306.427      1.3382639      0.74295445   
     54700  -9121.1164     -9195.8404      74.724018      8754.6483      301.24552      14291.867      1.3396273      0.74295445   
     54800  -9121.0136     -9195.7471      74.733503      7573.0058      301.28376      14274.146      1.3412904      0.74295445   
     54900  -9118.5439     -9194.5392      75.995257      10548.565      306.37045      14260.286      1.3425941      0.74295445   
     55000  -9118.926      -9192.2335      73.307545      9394.3416      295.5351       14255.945      1.3430028      0.62876107   
     55100  -9119.9575     -9195.4235      75.466012      7566.8616      304.23683      14267.027      1.3419596      0.62876107   
     55200  -9123.5551     -9198.1826      74.627474      8398.7696      300.85631      14286.491      1.3401313      0.62876107   
     55300  -9123.2738     -9196.8208      73.546927      7292.6532      296.50015      14297.138      1.3391334      0.62876107   
     55400  -9124.957      -9197.3745      72.417565      8005.8813      291.94719      14295.315      1.3393042      0.62876107   
     55500  -9124.309      -9198.4562      74.147178      7763.626       298.92003      14280.686      1.3406761      0.62876107   
     55600  -9125.2682     -9197.9436      72.675363      8758.2162      292.98649      14256.721      1.3429298      0.62876107   
[...]
    386200  -9119.2162     -9194.4638      75.247652      6994.9432      303.35652      14283.111      1.3404485      0.65582325   
    386300  -9119.3824     -9192.4803      73.097946      6804.8735      294.69011      14271.631      1.3415267      0.65582325   
    386400  -9119.1356     -9194.2395      75.103938      11443.608      302.77715      14262.364      1.3423984      0.65582325   
    386500  -9119.5738     -9195.5173      75.943468      10215.397      306.16167      14260.799      1.3425457      0.65582325   
    386600  -9119.5459     -9194.8315      75.285626      7025.1084      303.50961      14262.429      1.3423923      0.65582325   
    386700  -9118.9914     -9195.9347      76.943294      6829.211       310.19241      14267.175      1.3419457      0.65582325   
    386800  -9118.7846     -9193.734       74.94942       7913.0899      302.15422      14277.75       1.3409518      0.65582325   
    386900  -9119.0309     -9194.2396      75.20872       6173.8001      303.19957      14293.325      1.3394907      0.65582325   
    387000  -9119.7329     -9194.1394      74.406483      7394.7198      299.9654       14307.473      1.3381661      0.72960907   
    387100  -9120.9675     -9193.6381      72.67063       6947.3326      292.96741      14315.573      1.3374089      0.72960907   
    387200  -9121.1663     -9196.0418      74.875503      6276.3387      301.85623      14314.596      1.3375002      0.72960907   
    387300  -9120.3599     -9193.8782      73.518306      7570.6657      296.38477      14306.84       1.3382252      0.72960907   
    387400  -9120.4606     -9195.2058      74.745241      10244.841      301.33108      14297.573      1.3390926      0.72960907   
    387500  -9119.8976     -9193.9166      74.019074      11138.145      298.40358      14287.234      1.3400617      0.72960907   
    387600  -9119.5552     -9194.7757      75.220503      8541.2712      303.24707      14274.426      1.3412641      0.72960907   
    387700  -9119.8445     -9194.0578      74.213368      8814.0989      299.18687      14264.585      1.3421894      0.72960907   
    387800  -9118.064      -9193.1009      75.036939      9814.6247      302.50705      14261.825      1.3424492      0.72960907   
    387900  -9119.4899     -9195.1257      75.635801      10784.467      304.92133      14268.336      1.3418365      0.72960907   
    388000  -9117.7439     -9192.2007      74.456837      9113.5864      300.1684       14280.672      1.3406774      0.67101883   
    388100  -9120.4863     -9193.0382      72.551923      7127.6806      292.48885      14296.455      1.3391974      0.67101883   
    388200  -9123.3532     -9197.0565      73.703258      5181.6076      297.13039      14307.475      1.3381659      0.67101883   
    388300  -9121.7624     -9194.817       73.054645      2751.9089      294.51554      14308.962      1.3380268      0.67101883   
    388400  -9120.2487     -9193.66        73.411227      5690.915       295.95308      14298.146      1.339039       0.67101883   
    388500  -9119.2434     -9196.2773      77.0339        7505.7196      310.55768      14282.059      1.3405472      0.67101883   
    388600  -9118.2906     -9193.3591      75.068541      9896.9563      302.63445      14263.438      1.3422974      0.67101883   
    388700  -9121.7021     -9194.6647      72.962653      9611.7625      294.14468      14253.057      1.343275       0.67101883   
    388800  -9120.9896     -9196.4149      75.425302      10430.695      304.07271      14250.568      1.3435096      0.67101883   
    388900  -9121.3318     -9195.0723      73.740538      8116.1707      297.28068      14253.7        1.3432144      0.67101883   
    389000  -9121.506      -9195.902       74.395977      9125.5114      299.92305      14260.586      1.3425658      0.75028428   
    389100  -9120.231      -9194.9449      74.713982      10118.892      301.20507      14272.436      1.3414511      0.75028428   
    389200  -9120.2631     -9196.3996      76.136434      8933.683       306.9396       14288.299      1.3399618      0.75028428   
    389300  -9121.9372     -9195.1887      73.251506      9038.6685      295.30918      14302.813      1.338602       0.75028428   
    389400  -9120.3023     -9195.1713      74.868993      8361.2607      301.82998      14311.341      1.3378043      0.75028428   
    389500  -9119.9834     -9194.0953      74.11181       7961.1501      298.77744      14314.309      1.337527       0.75028428   
    389600  -9119.7152     -9193.4492      73.733926      4902.9403      297.25402      14314.335      1.3375246      0.75028428   
    389700  -9120.3757     -9195.7467      75.370973      5479.7794      303.85368      14310.875      1.3378479      0.75028428   
    389800  -9119.875      -9192.9525      73.077561      5915.7246      294.60793      14305.775      1.3383248      0.75028428   
    389900  -9117.8015     -9194.3657      76.564156      8964.7351      308.66393      14306.859      1.3382234      0.75028428   
    390000  -9116.6911     -9195.4272      78.736185      9002.3037      317.42034      14308.406      1.3380787      0.72648806   
    390100  -9118.0229     -9193.1127      75.089835      8605.0964      302.72029      14311.086      1.3378282      0.72648806   
    390200  -9118.9082     -9192.6059      73.697715      9006.8378      297.10804      14313.291      1.3376221      0.72648806   
    390300  -9118.0381     -9193.3714      75.333296      8863.9682      303.70179      14315.948      1.3373738      0.72648806   
    390400  -9119.1478     -9193.4345      74.286728      8223.2454      299.48262      14320.732      1.3369271      0.72648806   
    390500  -9120.2134     -9193.5064      73.293005      9291.7555      295.47648      14319.731      1.3370206      0.72648806   
    390600  -9120.1997     -9194.4242      74.224458      8779.7599      299.23158      14314.385      1.3375199      0.72648806   
    390700  -9118.4892     -9194.2125      75.723255      5818.0693      305.27389      14306.293      1.3382764      0.72648806   
    390800  -9119.598      -9193.719       74.12105       6802.6819      298.81469      14300.081      1.3388578      0.72648806   
    390900  -9120.3015     -9194.5411      74.239588      5309.3261      299.29257      14292.708      1.3395485      0.72648806   
    391000  -9120.0206     -9193.2028      73.182182      7254.2768      295.0297       14285.746      1.3402013      0.68676366   
    391100  -9120.3661     -9194.2776      73.911485      9557.7997      297.96984      14280.405      1.3407025      0.68676366   
    391200  -9121.1429     -9195.7311      74.58818       9835.503       300.6979       14280.798      1.3406656      0.68676366   
    391300  -9122.3258     -9196.1307      73.804905      8318.0554      297.54017      14285.279      1.3402451      0.68676366   
    391400  -9121.1461     -9194.813       73.666887      10581.218      296.98376      14288.577      1.3399357      0.68676366   
    391500  -9120.8716     -9195.649       74.777371      8920.225       301.46061      14295.003      1.3393334      0.68676366   
    391600  -9121.6994     -9196.7418      75.0424        4828.8333      302.52906      14307.694      1.3381454      0.68676366   
    391700  -9120.5051     -9195.2689      74.763763      6166.6344      301.40575      14315.165      1.337447       0.68676366   
    391800  -9120.0657     -9193.6598      73.594077      7129.1169      296.69023      14318.318      1.3371525      0.68676366   
    391900  -9120.0756     -9195.0922      75.016682      10609.478      302.42538      14324.62       1.3365642      0.68676366   
    392000  -9119.1657     -9192.8692      73.703539      8497.9391      297.13152      14333.436      1.3357421      0.69811054   
    392100  -9118.8914     -9194.027       75.13556       7519.8434      302.90463      14343.701      1.3347862      0.69811054   
    392200  -9117.9504     -9192.1824      74.232056      8205.6995      299.26221      14348.468      1.3343427      0.69811054   
    392300  -9119.9155     -9193.175       73.2595        7156.8236      295.34141      14348.78       1.3343138      0.69811054   
    392400  -9120.0291     -9192.9759      72.946768      7544.4292      294.08064      14337.247      1.3353871      0.69811054   
    392500  -9119.6551     -9193.7999      74.144834      6571.201       298.91058      14320.036      1.3369921      0.69811054   
    392600  -9119.0125     -9193.7902      74.777732      6521.0424      301.46207      14306.121      1.3382925      0.69811054   
    392700  -9118.3732     -9194.608       76.234832      7749.6109      307.33628      14295.245      1.3393107      0.69811054   
    392800  -9115.5583     -9191.807       76.248645      8132.5035      307.39197      14286.867      1.3400961      0.69811054   
    392900  -9114.375      -9189.6834      75.308407      9339.759       303.60145      14290.57       1.3397488      0.69811054   
    393000  -9116.4601     -9191.3008      74.840718      8691.8326      301.71599      14311.265      1.3378115      0.73965939   
    393100  -9117.2023     -9194.5         77.297701      6208.3556      311.62118      14337.617      1.3353526      0.73965939   
    393200  -9119.5444     -9193.8111      74.266735      10003.5        299.40202      14361.524      1.3331297      0.73965939   
    393300  -9119.9316     -9196.361       76.429311      7448.3752      308.12031      14378.208      1.3315829      0.73965939   
    393400  -9120.9755     -9193.8983      72.922775      7296.9758      293.98392      14378.277      1.3315765      0.73965939   
    393500  -9121.3762     -9195.067       73.690778      7705.6664      297.08008      14360.062      1.3332655      0.73965939   
    393600  -9122.2709     -9196.2346      73.963729      9463.6017      298.18046      14323.99       1.336623       0.73965939   
    393700  -9121.4001     -9196.6975      75.297451      9736.5402      303.55729      14277.493      1.340976       0.73965939   
    393800  -9119.8649     -9193.5373      73.67237       9697.3123      297.00586      14234.395      1.345036       0.73965939   
    393900  -9118.3666     -9194.7683      76.401715      9405.8845      308.00906      14206.591      1.3476684      0.73965939   
    394000  -9118.3371     -9195.9454      77.608269      9606.7998      312.87321      14198.265      1.3484588      0.68199121   
    394100  -9116.5282     -9190.6206      74.092401      7150.3439      298.6992       14212.773      1.3470823      0.68199121   
    394200  -9117.6938     -9190.5528      72.859037      7976.6515      293.72696      14253.233      1.3432584      0.68199121   
    394300  -9116.9693     -9194.6855      77.71612       7117.2268      313.30801      14310.406      1.3378918      0.68199121   
    394400  -9117.6854     -9189.889       72.203583      6037.2402      291.08454      14373.881      1.3319837      0.68199121   
    394500  -9117.1754     -9192.2595      75.084032      7903.6022      302.6969       14433.661      1.3264669      0.68199121   
    394600  -9117.4803     -9193.6684      76.188111      6807.7123      307.14793      14474.042      1.3227663      0.68199121   
    394700  -9117.9676     -9193.5888      75.621138      7326.2895      304.86221      14482.378      1.3220049      0.68199121   
    394800  -9117.3385     -9192.8013      75.462818      10847.174      304.22395      14451.137      1.3248629      0.68199121   
    394900  -9117.3505     -9195.3363      77.985758      8627.9181      314.39504      14388.66       1.3306155      0.68199121   
    395000  -9118.5655     -9193.6189      75.053409      7877.2959      302.57345      14304.229      1.3384695      0.65098252   
    395100  -9119.4802     -9196.0531      76.572891      5078.7963      308.69915      14219.62       1.3464336      0.65098252   
    395200  -9119.2919     -9194.8344      75.542489      7917.4351      304.54514      14148.499      1.3532018      0.65098252   
    395300  -9122.5733     -9195.0811      72.507823      9055.8459      292.31106      14106.518      1.357229       0.65098252   
    395400  -9119.6461     -9195.8325      76.186407      11291.678      307.14106      14103.072      1.3575605      0.65098252   
    395500  -9119.6778     -9195.665       75.987206      10319.388      306.33799      14139.296      1.3540826      0.65098252   
    395600  -9119.2912     -9192.6095      73.31826       11192.073      295.57829      14207.246      1.3476064      0.65098252   
    395700  -9120.0141     -9195.9467      75.932504      7341.2852      306.11746      14294.127      1.3394154      0.65098252   
    395800  -9122.0723     -9195.342       73.269634      6603.4057      295.38226      14375.144      1.3318667      0.65098252   
    395900  -9121.6131     -9196.2912      74.678084      6129.1787      301.06034      14433.382      1.3264926      0.65098252   
    396000  -9121.1072     -9195.5899      74.482681      5218.9755      300.27259      14452.174      1.3247678      0.65572031   
    396100  -9119.6224     -9193.8089      74.186413      5334.5395      299.0782       14429.218      1.3268754      0.65572031   
    396200  -9119.9413     -9194.7093      74.767998      5627.5657      301.42283      14378.845      1.3315239      0.65572031   
    396300  -9119.6685     -9195.2314      75.562881      6252.9229      304.62735      14318.943      1.3370942      0.65572031   
    396400  -9121.5732     -9196.7656      75.192404      7053.0716      303.1338       14262.849      1.3423528      0.65572031   
    396500  -9122.3926     -9196.0823      73.68968       8007.9764      297.07565      14217.468      1.3466375      0.65572031   
    396600  -9121.5591     -9194.6613      73.102166      7988.8594      294.70712      14190.714      1.3491763      0.65572031   
    396700  -9121.7888     -9196.3965      74.607667      6519.3271      300.77646      14187.448      1.3494869      0.65572031   
    396800  -9120.6717     -9194.8911      74.219406      8761.4962      299.21121      14209.261      1.3474152      0.65572031   
    396900  -9123.7936     -9197.528       73.734394      8595.6929      297.25591      14249.595      1.3436013      0.65572031   
    397000  -9123.6051     -9197.8179      74.212833      8527.4669      299.18471      14294.022      1.3394253      0.70585722   
    397100  -9123.7297     -9195.4839      71.754211      6907.5789      289.27292      14328.812      1.3361732      0.70585722   
    397200  -9121.0078     -9194.3745      73.366634      7344.442       295.77331      14349.597      1.3342378      0.70585722   
    397300  -9119.5061     -9195.0117      75.505564      8631.2323      304.39628      14355.166      1.3337202      0.70585722   
    397400  -9120.3886     -9195.0743      74.6857        8052.1095      301.09105      14344.411      1.3347202      0.70585722   
    397500  -9122.2575     -9194.9368      72.679324      7492.6036      293.00246      14322.149      1.3367948      0.70585722   
    397600  -9121.2447     -9193.695       72.450312      8513.8589      292.07921      14291.164      1.3396932      0.70585722   
    397700  -9121.3178     -9195.8999      74.582052      8347.6773      300.6732       14255.926      1.3430046      0.70585722   
    397800  -9122.8271     -9196.4374      73.610249      9442.3204      296.75543      14227.406      1.3456968      0.70585722   
    397900  -9122.0984     -9194.5453      72.446894      8912.3694      292.06543      14207.63       1.3475699      0.70585722   
    398000  -9122.0803     -9196.1739      74.093606      12940.271      298.70406      14195.075      1.3487618      0.65472825   
    398100  -9122.6696     -9197.8483      75.178675      10865.479      303.07845      14198.975      1.3483913      0.65472825   
    398200  -9122.4314     -9195.987       73.555555      7891.8792      296.53493      14218.114      1.3465763      0.65472825   
    398300  -9122.0965     -9194.5753      72.478757      8998.1841      292.19388      14247.731      1.3437771      0.65472825   
    398400  -9122.969      -9197.1562      74.18714       5087.5493      299.08113      14283.94       1.3403707      0.65472825   
    398500  -9124.4248     -9196.1049      71.680104      6187.3368      288.97416      14315.581      1.3374082      0.65472825   
    398600  -9122.0137     -9194.3607      72.347046      6956.5234      291.6629       14336.49       1.3354577      0.65472825   
    398700  -9120.3649     -9195.7303      75.36539       8040.8284      303.83118      14343.875      1.33477        0.65472825   
    398800  -9120.8706     -9193.5268      72.656253      7709.7861      292.90945      14332.038      1.3358724      0.65472825   
    398900  -9121.0867     -9196.645       75.558328      4878.0397      304.60899      14302.286      1.3386513      0.65472825   
    399000  -9120.0336     -9193.208       73.174438      7986.6727      294.99848      14259.225      1.342694       0.65709274   
    399100  -9118.4475     -9193.9765      75.529042      8897.5531      304.49093      14216.611      1.3467186      0.65709274   
    399200  -9119.0428     -9195.7647      76.721846      6918.478       309.29965      14190.994      1.3491497      0.65709274   
    399300  -9120.9784     -9191.513       70.534605      8439.9812      284.35615      14181.375      1.3500648      0.65709274   
    399400  -9122.7915     -9195.6421      72.85066       7413.0276      293.69319      14191.162      1.3491337      0.65709274   
    399500  -9124.0228     -9196.7034      72.680524      7762.1337      293.0073       14214.933      1.3468776      0.65709274   
    399600  -9121.5702     -9197.1788      75.60857       7312.7178      304.81155      14246.982      1.3438477      0.65709274   
    399700  -9119.2857     -9194.267       74.981278      7178.7024      302.28265      14280.595      1.3406846      0.65709274   
    399800  -9119.7648     -9193.162       73.397213      8419.6018      295.89659      14314.567      1.3375029      0.65709274   
    399900  -9121.1598     -9197.5209      76.361147      7503.8739      307.84551      14342.328      1.334914       0.65709274   
    400000  -9123.5        -9196.6777      73.177708      7558.7162      295.01167      14343.95       1.3347631      0.73230934   
    400100  -9123.8168     -9197.3661      73.549231      9623.312       296.50944      14316.436      1.3373283      0.73230934   
    400200  -9122.2213     -9194.8462      72.624905      8144.9751      292.78307      14270.101      1.3416706      0.73230934   
    400299  -9121.0631     -9196.0289      74.965739      7908.8562      302.22001      14217.934      1.3465933      0.73230934   
Loop time of 542.567 on 4 procs for 200000 steps with 1920 atoms

Performance: 15.924 ns/day, 1.507 hours/ns, 368.618 timesteps/s, 707.747 katom-step/s
99.6% CPU use with 4 MPI tasks x 1 OpenMP threads

MPI task timing breakdown:
Section |  min time  |  avg time  |  max time  |%varavg| %total
---------------------------------------------------------------
Pair    | 272.3      | 274.44     | 275.41     |   7.5 | 50.58
Neigh   | 7.8823     | 7.989      | 8.0802     |   2.8 |  1.47
Comm    | 65.047     | 67.114     | 70.952     |  29.0 | 12.37
Output  | 0.30837    | 0.31446    | 0.32194    |   0.9 |  0.06
Modify  | 188.65     | 190.3      | 191.72     |   9.3 | 35.07
Other   |            | 2.41       |            |       |  0.44

Nlocal:            480 ave         486 max         474 min
Histogram: 1 0 0 1 0 0 1 0 0 1
Nghost:         2648.5 ave        2653 max        2641 min
Histogram: 1 0 0 0 0 1 0 0 0 2
Neighs:              0 ave           0 max           0 min
Histogram: 4 0 0 0 0 0 0 0 0 0
FullNghs:        75933 ave       76955 max       75158 min
Histogram: 1 0 1 0 1 0 0 0 0 1

Total # of neighbors = 303732
Ave neighs/atom = 158.19375
Neighbor list builds = 19999
Dangerous builds = 19998

unfix		3
unfix		4
Total wall time: 0:18:08
