LAMMPS (7 Feb 2024 - Update 1)
KOKKOS mode with Kokkos version 4.2.0 is enabled (src/KOKKOS/kokkos.cpp:72)
  will use up to 4 GPU(s) per node
  using 1 OpenMP thread(s) per MPI task
package kokkos
package kokkos newton on neigh half

units		metal						## E in [eV], t in [ps], P in [10000 Pa], l in [A]
atom_style	atomic						## mass x y z vx vy vz

neighbor	0.5 bin						## neighbor list, skin = 0.5 Angstrom
neigh_modify	every 2 delay 10 check yes			## update of neighbor list

############################## main variables
variable        seed equal 6991

variable	temperature equal 305
variable	tempDamp equal 0.1

variable        pressure equal 8000
variable        pressureDamp equal 1.0 				# This is 1 ps

##############################

read_data water.dat
Reading data file ...
  triclinic box = (0 0 0) to (24.989956 24.989919 23.167336) with tilt (-0.22207236 -0.16357316 -0.098737559)
  2 by 2 by 1 MPI processor grid
  reading atoms ...
  1920 atoms
  read_data CPU = 0.014 seconds

mass		1 1.008    # H
mass		2 15.9994  # O


pair_style	pace/extrapolation
ACE/AL version: 2023.11.25
pair_coeff	* * /home/cicn/cicn607503/pd/pot_dir/interim_potential_ladder_step_1.yaml /home/cicn/cicn607503/pd/pot_dir/interim_potential_ladder_step_1.asi H O
Loading /home/cicn/cicn607503/pd/pot_dir/interim_potential_ladder_step_1.yaml
Total number of basis functions
	H: 23 (r=1) 664 (r>1)
	O: 23 (r=1) 664 (r>1)
Mapping LAMMPS atom type #1(H) -> ACE species type #0
Mapping LAMMPS atom type #2(O) -> ACE species type #1
Loading ASI /home/cicn/cicn607503/pd/pot_dir/interim_potential_ladder_step_1.asi
LINEAR ASI is loaded

fix pace_gamma all pair 1000 pace/extrapolation gamma 1
compute max_pace_gamma all reduce max f_pace_gamma
variable dump_skip equal "c_max_pace_gamma < 10"

dump pace_dump all custom 1000 extrapolative_structures.dump id type x y z f_pace_gamma
dump_modify pace_dump skip v_dump_skip
dump_modify pace_dump element H O

variable max_pace_gamma equal c_max_pace_gamma

timestep	0.0005						## timestep = 0.0005*ps = 0.5 fs

thermo		100
thermo_style custom step etotal pe ke press temp vol density c_max_pace_gamma


min_style cg/kk
minimize 0.0 5.0e-4 10000 100000
Switching to 'neigh_modify every 1 delay 0 check yes' setting during minimization
Neighbor list info ...
  update: every = 1 steps, delay = 0 steps, check = yes
  max neighbors/atom: 2000, page size: 100000
  master list distance cutoff = 6.5
  ghost atom cutoff = 6.5
  binsize = 6.5, bins = 4 4 4
  1 neighbor lists, perpetual/occasional/extra = 1 0 0
  (1) pair pace/extrapolation/kk, perpetual
      attributes: full, newton on, kokkos_device
      pair build: full/bin/kk/device
      stencil: full/bin/3d
      bin: kk/device
WARNING: Fix with atom-based arrays not compatible with sending data in Kokkos communication, switching to classic exchange/border communication (src/KOKKOS/comm_kokkos.cpp:666)
WARNING: Fix with atom-based arrays not compatible with Kokkos sorting on device, switching to classic host sorting (src/KOKKOS/atom_kokkos.cpp:218)
Per MPI rank memory allocation (min/avg/max) = 423.1 | 425.6 | 428.5 Mbytes
   Step         TotEng         PotEng         KinEng         Press           Temp          Volume        Density     c_max_pace_gamma
         0  -9186.3912     -9186.3912      0              71325.798      0              14467.932      1.3233249      0.69469994   
       100  -9273.0205     -9273.0205      0             -8111.2383      0              14467.932      1.3233249      0.69469994   
       200  -9273.1147     -9273.1147      0             -8131.2633      0              14467.932      1.3233249      0.69469994   
       300  -9273.1151     -9273.1151      0             -8129.1459      0              14467.932      1.3233249      0.69469994   
       318  -9273.1151     -9273.1151      0             -8129.2391      0              14467.932      1.3233249      0.69469994   
Loop time of 1.29118 on 4 procs for 318 steps with 1920 atoms

99.6% CPU use with 4 MPI tasks x 1 OpenMP threads

Minimization stats:
  Stopping criterion = force tolerance
  Energy initial, next-to-last, final = 
     -9186.39119087423  -9273.11512029385  -9273.11512029945
  Force two-norm initial, final = 64.044178 0.00046747864
  Force max component initial, final = 2.4633048 8.0687401e-05
  Final line search alpha, max atom move = 1 8.0687401e-05
  Iterations, force evaluations = 318 635

MPI task timing breakdown:
Section |  min time  |  avg time  |  max time  |%varavg| %total
---------------------------------------------------------------
Pair    | 0.8324     | 0.84291    | 0.85492    |   0.9 | 65.28
Neigh   | 0.0029371  | 0.0030857  | 0.0032175  |   0.2 |  0.24
Comm    | 0.20062    | 0.21487    | 0.22654    |   2.0 | 16.64
Output  | 0.00045037 | 0.00045131 | 0.00045323 |   0.0 |  0.03
Modify  | 0.14225    | 0.14453    | 0.14901    |   0.7 | 11.19
Other   |            | 0.08534    |            |       |  6.61

Nlocal:            480 ave         482 max         478 min
Histogram: 1 0 0 0 0 2 0 0 0 1
Nghost:         2630.5 ave        2633 max        2629 min
Histogram: 1 0 2 0 0 0 0 0 0 1
Neighs:              0 ave           0 max           0 min
Histogram: 4 0 0 0 0 0 0 0 0 0
FullNghs:      75285.5 ave       75712 max       74890 min
Histogram: 1 0 0 1 0 1 0 0 0 1

Total # of neighbors = 301142
Ave neighs/atom = 156.84479
Neighbor list builds = 7
Dangerous builds = 0

################## equilibration of main calculation
# Equilibrate to specified number of ice

fix             3 all nph tri ${pressure} ${pressure} ${pressureDamp}
fix             3 all nph tri 8000 ${pressure} ${pressureDamp}
fix             3 all nph tri 8000 8000 ${pressureDamp}
fix             3 all nph tri 8000 8000 1
fix             4 all temp/csvr ${temperature} ${temperature} ${tempDamp} ${seed}
fix             4 all temp/csvr 305 ${temperature} ${tempDamp} ${seed}
fix             4 all temp/csvr 305 305 ${tempDamp} ${seed}
fix             4 all temp/csvr 305 305 0.1 ${seed}
fix             4 all temp/csvr 305 305 0.1 6991
velocity 	all create ${temperature} ${seed} dist gaussian
velocity 	all create 305 ${seed} dist gaussian
velocity 	all create 305 6991 dist gaussian

run 200000
WARNING: Fix with atom-based arrays not compatible with sending data in Kokkos communication, switching to classic exchange/border communication (src/KOKKOS/comm_kokkos.cpp:666)
WARNING: Fix with atom-based arrays not compatible with Kokkos sorting on device, switching to classic host sorting (src/KOKKOS/atom_kokkos.cpp:218)
Per MPI rank memory allocation (min/avg/max) = 424.7 | 426.4 | 427.6 Mbytes
   Step         TotEng         PotEng         KinEng         Press           Temp          Volume        Density     c_max_pace_gamma
       318  -9197.4598     -9273.1151      75.655317     -2543.867       305            14467.932      1.3233249      0.69469994   
       400  -9183.8835     -9227.1366      43.253085      9106.2277      174.37229      14401.775      1.3294038      0.69469994   
       500  -9167.7015     -9218.0136      50.312101      7428.902       202.8303       14210.526      1.3472953      0.69469994   
       600  -9154.3373     -9213.2773      58.939928      7054.8679      237.61288      13990.458      1.3684881      0.69469994   
       700  -9146.532      -9210.0509      63.518969      8861.2071      256.07302      13829.368      1.3844287      0.69469994   
       800  -9141.9977     -9206.3637      64.365994      11954.481      259.48776      13755.738      1.3918391      0.69469994   
       900  -9137.1271     -9203.7875      66.660314      13577.611      268.73717      13770.289      1.3903684      0.69469994   
      1000  -9134.3328     -9204.3894      70.056625      13089.506      282.4292       13862.22       1.3811478      0.67572874   
      1100  -9132.8024     -9203.0459      70.243527      11759.441      283.18268      14000.165      1.3675392      0.67572874   
      1200  -9129.2518     -9199.4298      70.177996      9465.6111      282.9185       14154.334      1.352644       0.67572874   
      1300  -9127.4741     -9198.3442      70.870095      7228.3216      285.70866      14291.368      1.339674       0.67572874   
      1400  -9123.7169     -9199.0539      75.336994      4242.019       303.7167       14385.485      1.3309092      0.67572874   
      1500  -9120.9551     -9194.4666      73.51143       6906.7648      296.35705      14431.592      1.3266572      0.67572874   
      1600  -9119.1452     -9192.6814      73.536278      6761.6399      296.45722      14437.145      1.3261469      0.67572874   
      1700  -9118.9359     -9192.751       73.815122      2385.2144      297.58136      14407.921      1.3288367      0.67572874   
      1800  -9116.1606     -9192.7439      76.583273      5771.6753      308.741        14352.668      1.3339523      0.67572874   
      1900  -9116.3128     -9191.5826      75.269876      8074.3708      303.44612      14289.352      1.339863       0.67572874   
      2000  -9116.0252     -9192.1232      76.098088      10232.215      306.78501      14236.924      1.3447971      0.68106896   
      2100  -9117.8628     -9193.312       75.449201      7202.6246      304.16906      14203.503      1.3479615      0.68106896   
      2200  -9116.6915     -9193.6183      76.926802      10872.325      310.12592      14190.556      1.3491913      0.68106896   
      2300  -9114.8801     -9191.9311      77.050978      8707.0561      310.62653      14200.06       1.3482882      0.68106896   
      2400  -9115.3727     -9191.6283      76.255564      8434.2381      307.41986      14237.242      1.3447671      0.68106896   
      2500  -9115.1777     -9191.8738      76.696078      6949.9403      309.19577      14295.03       1.3393308      0.68106896   
      2600  -9114.9965     -9191.5143      76.51778       6744.6966      308.47697      14360.645      1.3332114      0.68106896   
      2700  -9115.3912     -9191.2989      75.907679      6540.5309      306.01738      14419.816      1.3277406      0.68106896   
      2800  -9116.8406     -9192.7591      75.918445      3847.2354      306.06079      14461.684      1.3238967      0.68106896   
      2900  -9117.034      -9192.2882      75.254173      7289.0949      303.38281      14476.847      1.32251        0.68106896   
      3000  -9116.5091     -9191.9297      75.420659      5684.0711      304.05399      14457.013      1.3243244      0.69099177   
      3100  -9115.4328     -9189.6777      74.244946      8108.992       299.31417      14405.426      1.3290669      0.69099177   
      3200  -9116.9823     -9190.4944      73.512057      8391.7917      296.35957      14336.006      1.3355027      0.69099177   
      3300  -9116.3226     -9192.3575      76.034871      7865.5965      306.53015      14264.661      1.3421823      0.69099177   
      3400  -9115.223      -9190.1413      74.918239      11582.048      302.02852      14203.334      1.3479775      0.69099177   
      3500  -9114.9611     -9191.3836      76.422452      12167.056      308.09266      14170.038      1.3511449      0.69099177   
      3600  -9115.5818     -9195.271       79.689106      8062.4438      321.26199      14180.515      1.3501466      0.69099177   
      3700  -9115.6773     -9192.4245      76.747183      9578.6413      309.4018       14228.912      1.3455544      0.69099177   
      3800  -9116.1616     -9192.0989      75.937347      9826.7259      306.13699      14303.955      1.3384952      0.69099177   
      3900  -9117.9734     -9195.7422      77.768818      6435.8041      313.52046      14393.628      1.3301563      0.69099177   
      4000  -9117.5014     -9192.2907      74.789329      4910.7562      301.50882      14468.312      1.3232901      0.67486388   
      4100  -9118.0682     -9192.556       74.48778       5136.6642      300.29315      14507.167      1.3197459      0.67486388   
      4200  -9114.9583     -9192.0883      77.13001       6586.4541      310.94514      14507.771      1.319691       0.67486388   
      4300  -9111.4427     -9189.2077      77.765021      7980.8964      313.50515      14472.462      1.3229107      0.67486388   
      4400  -9112.5529     -9189.8265      77.273622      7733.6109      311.5241       14413.706      1.3283034      0.67486388   
      4500  -9113.9545     -9192.0895      78.134972      7531.3133      314.99659      14342.181      1.3349277      0.67486388   
      4600  -9113.9448     -9192.4362      78.491403      7630.484       316.43352      14271.776      1.3415131      0.67486388   
      4700  -9112.385      -9189.7228      77.337781      10809.798      311.78276      14215.128      1.3468591      0.67486388   
      4800  -9113.0659     -9190.2034      77.137476      9730.2049      310.97524      14192.882      1.3489702      0.67486388   
      4900  -9114.2244     -9191.1733      76.948846      8599.5928      310.21479      14207.147      1.3476157      0.67486388   
      5000  -9114.6403     -9192.7707      78.13045       8757.698       314.97836      14257.362      1.3428693      0.73067141   
      5100  -9115.7184     -9192.8996      77.181205      10392.817      311.15153      14329.642      1.3360959      0.73067141   
      5200  -9116.3382     -9192.5155      76.177254      5390.2152      307.10416      14409.645      1.3286778      0.73067141   
      5300  -9117.4683     -9190.3052      72.836914      4584.7175      293.63777      14476.855      1.3225093      0.73067141   
      5400  -9119.395      -9194.2696      74.874583      3981.9705      301.85252      14511.755      1.3193287      0.73067141   
      5500  -9117.8897     -9192.8732      74.983504      5979.5625      302.29163      14495.811      1.3207798      0.73067141   
      5600  -9116.3996     -9192.0465      75.646916      8555.4064      304.96613      14438.008      1.3260676      0.73067141   
      5700  -9116.8305     -9193.9752      77.144676      8849.392       311.00427      14350.977      1.3341095      0.73067141   
      5800  -9117.8585     -9194.77        76.911536      9851.4441      310.06438      14251.691      1.3434037      0.73067141   
      5900  -9118.0965     -9192.7386      74.642116      9526.99        300.91534      14167.473      1.3513895      0.73067141   
      6000  -9117.9484     -9194.4522      76.503797      10031.654      308.4206       14116.895      1.3562313      0.65711506   
      6100  -9115.8677     -9193.7211      77.85344       10586.734      313.8616       14110.928      1.3568048      0.65711506   
      6200  -9117.1075     -9192.715       75.607503      7204.3274      304.80724      14151.165      1.3529469      0.65711506   
      6300  -9117.8874     -9193.4644      75.577016      11786.177      304.68433      14227.998      1.3456408      0.65711506   
      6400  -9118.9563     -9193.6973      74.740952      9691.381       301.31379      14321.968      1.3368117      0.65711506   
      6500  -9120.5234     -9192.8985      72.375116      6682.873       291.77606      14405.264      1.3290818      0.65711506   
      6600  -9119.6626     -9193.9114      74.248803      7179.839       299.32972      14456.223      1.3243967      0.65711506   
      6700  -9118.5817     -9192.8906      74.308902      4663.6685      299.57201      14464.161      1.3236699      0.65711506   
      6800  -9117.911      -9193.0384      75.127448      5413.9793      302.87193      14431.741      1.3266435      0.65711506   
      6900  -9115.7909     -9193.2431      77.452227      7046.1193      312.24414      14366.141      1.3327013      0.65711506   
      7000  -9116.5963     -9192.3908      75.7945        8824.3082      305.56111      14290.394      1.3397653      0.67044237   
      7100  -9117.0856     -9192.7439      75.658324      10079.683      305.01212      14221.983      1.3462099      0.67044237   
      7200  -9116.5468     -9192.0071      75.460256      8294.8576      304.21363      14178.454      1.3503429      0.67044237   
      7300  -9116.485      -9191.9603      75.475305      10087.752      304.2743       14169.613      1.3511855      0.67044237   
      7400  -9116.1798     -9192.6619      76.482043      7525.7182      308.3329       14198.163      1.3484684      0.67044237   
      7500  -9118.7648     -9193.4666      74.701798      8415.8003      301.15594      14252.602      1.3433178      0.67044237   
      7600  -9120.2117     -9192.6592      72.447499      7680.9352      292.06787      14318.134      1.3371697      0.67044237   
      7700  -9119.1702     -9194.5631      75.392977      7242.8473      303.94239      14377.863      1.3316148      0.67044237   
      7800  -9119.2628     -9192.2379      72.97518       7077.4397      294.19519      14418.628      1.32785        0.67044237   
      7900  -9119.793      -9192.5928      72.799843      5942.6183      293.48832      14434.771      1.326365       0.67044237   
      8000  -9118.595      -9193.6875      75.092516      8120.5295      302.7311       14419.077      1.3278086      0.75751712   
      8100  -9115.0157     -9191.9371      76.92139       9370.7366      310.1041       14376.694      1.331723       0.75751712   
      8200  -9116.1939     -9190.4098      74.215823      7326.6245      299.19677      14325.186      1.3365114      0.75751712   
      8300  -9116.8002     -9192.9756      76.175443      7365.6463      307.09686      14278.414      1.3408894      0.75751712   
      8400  -9119.3439     -9192.5033      73.159432      7796.0647      294.93799      14242.03       1.344315       0.75751712   
      8500  -9117.8738     -9195.5035      77.629741      9404.1998      312.95978      14224.04       1.3460152      0.75751712   
      8600  -9119.2086     -9195.1955      75.986977      11413.859      306.33707      14227.972      1.3456432      0.75751712   
      8700  -9120.1123     -9192.3364      72.22403       9106.0237      291.16697      14247.456      1.343803       0.75751712   
      8800  -9120.2177     -9193.3614      73.143682      6246.6193      294.87449      14277.079      1.3410149      0.75751712   
      8900  -9120.9533     -9196.4993      75.545993      6540.1028      304.55927      14306.563      1.3382512      0.75751712   
      9000  -9119.7206     -9194.5231      74.802488      8155.1314      301.56187      14325.808      1.3364534      0.69686161   
      9100  -9118.2299     -9194.1023      75.872412      9225.0387      305.87521      14337.176      1.3353937      0.69686161   
      9200  -9115.7612     -9191.9876      76.226421      7429.6099      307.30237      14343.335      1.3348203      0.69686161   
      9300  -9116.8472     -9192.9468      76.099615      7347.7507      306.79117      14345.187      1.3346479      0.69686161   
      9400  -9116.574      -9191.5441      74.97017       6611.978       302.23787      14337.484      1.335365       0.69686161   
      9500  -9116.7668     -9191.481       74.71418       4911.1449      301.20586      14320.909      1.3369106      0.69686161   
      9600  -9116.425      -9191.7573      75.332343      6292.2516      303.69795      14299.361      1.3389252      0.69686161   
      9700  -9116.0309     -9191.4188      75.387898      4695.1208      303.92192      14273.285      1.3413713      0.69686161   
      9800  -9116.2766     -9189.5825      73.305836      12619.079      295.5282       14251.031      1.3434659      0.69686161   
      9900  -9115.2333     -9191.1916      75.958247      11051.295      306.22125      14241.686      1.3443475      0.69686161   
     10000  -9116.4626     -9191.9495      75.486921      8595.3738      304.32112      14242.685      1.3442531      0.6390495    
     10100  -9116.1598     -9192.8921      76.732257      7001.691       309.34162      14254.367      1.3431515      0.6390495    
     10200  -9116.0514     -9193.2498      77.198367      7303.5689      311.22072      14276.711      1.3410494      0.6390495    
     10300  -9117.223      -9191.2395      74.016557      8781.3393      298.39344      14304.24       1.3384685      0.6390495    
     10400  -9117.8399     -9192.915       75.075018      7402.3284      302.66056      14330.122      1.336051       0.6390495    
     10500  -9117.8374     -9191.8799      74.042498      5372.4011      298.49802      14344.387      1.3347224      0.6390495    
     10600  -9119.1108     -9192.1043      72.993476      5900.689       294.26894      14345.403      1.3346278      0.6390495    
     10700  -9117.8957     -9194.2283      76.332557      8418.7067      307.73025      14331.201      1.3359505      0.6390495    
     10800  -9118.3708     -9194.0405      75.669683      9201.1252      305.05792      14303.215      1.3385644      0.6390495    
     10900  -9117.6549     -9193.1275      75.472598      6917.6983      304.26338      14267.079      1.3419548      0.6390495    
     11000  -9116.2496     -9191.324       75.074407      7276.7379      302.6581       14231.051      1.3453521      0.68258522   
     11100  -9116.0931     -9194.1059      78.012853      6090.9734      314.50427      14206.022      1.3477224      0.68258522   
     11200  -9116.7195     -9193.9493      77.229838      8377.0548      311.34759      14193.457      1.3489155      0.68258522   
     11300  -9117.8474     -9192.7884      74.940909      10959.227      302.11991      14197.621      1.3485199      0.68258522   
     11400  -9118.3472     -9195.1023      76.755072      7583.0448      309.4336       14223.837      1.3460344      0.68258522   
     11500  -9118.4571     -9194.4206      75.963513      7451.4465      306.24248      14261.377      1.3424913      0.68258522   
     11600  -9117.2586     -9192.4337      75.17515       7089.5437      303.06424      14300.621      1.3388072      0.68258522   
     11700  -9118.0725     -9190.2531      72.180597      5906.9         290.99187      14335.303      1.3355682      0.68258522   
     11800  -9117.3323     -9193.7877      76.455433      4385.9289      308.22562      14358.541      1.3334067      0.68258522   
     11900  -9118.8195     -9192.6729      73.853356      8357.8516      297.7355       14362.537      1.3330357      0.68258522   
     12000  -9119.5095     -9192.8738      73.364258      7419.1728      295.76373      14344.923      1.3346725      0.69099438   
     12100  -9118.2927     -9193.833       75.540269      5864.6363      304.53619      14307.16       1.3381953      0.69099438   
     12200  -9116.9006     -9193.3315      76.430863      5951.0602      308.12657      14260.843      1.3425416      0.69099438   
     12300  -9119.1627     -9194.5392      75.376534      6764.2971      303.87611      14221.522      1.3462536      0.69099438   
     12400  -9117.3258     -9192.5577      75.231928      9424.7304      303.29313      14193.676      1.3488948      0.69099438   
     12500  -9116.6095     -9192.751       76.141496      9379.3857      306.96         14187.931      1.3494409      0.69099438   
     12600  -9117.324      -9193.0805      75.756503      6847.7308      305.40793      14203.781      1.3479351      0.69099438   
     12700  -9118.7501     -9194.3042      75.554095      7902.4588      304.59193      14236.889      1.3448004      0.69099438   
     12800  -9116.4633     -9191.9836      75.520302      11768.425      304.4557       14279.88       1.3407518      0.69099438   
     12900  -9116.1127     -9191.4446      75.331926      8970.9692      303.69627      14328.156      1.3362344      0.69099438   
     13000  -9117.6187     -9194.3415      76.722868      7877.2689      309.30377      14374.2        1.3319541      0.63754573   
     13100  -9113.3171     -9190.1255      76.808401      7006.4794      309.64859      14401.926      1.3293899      0.63754573   
     13200  -9115.1965     -9191.9416      76.74509       8598.6278      309.39336      14409.288      1.3287107      0.63754573   
     13300  -9115.761      -9191.7269      75.965974      9252.618       306.2524       14394.667      1.3300602      0.63754573   
     13400  -9114.6458     -9190.3937      75.747964      7725.1228      305.3735       14364.163      1.3328848      0.63754573   
     13500  -9114.0948     -9191.4495      77.354699      9743.0219      311.85096      14327.615      1.3362849      0.63754573   
     13600  -9112.8378     -9192.1702      79.332398      8258.2378      319.82394      14292.654      1.3395535      0.63754573   
     13700  -9114.0381     -9191.1161      77.07797       6439.0334      310.73535      14267.485      1.3419166      0.63754573   
     13800  -9117.0591     -9191.8123      74.753125      7742.8183      301.36287      14251.356      1.3434353      0.63754573   
     13900  -9119.4521     -9194.593       75.1409        8247.183       302.92616      14241.422      1.3443724      0.63754573   
     14000  -9121.188      -9194.8835      73.695429      6945.2432      297.09883      14241.706      1.3443456      0.73221685   
     14100  -9120.4387     -9193.9892      73.550465      7331.3452      296.51441      14250.195      1.3435448      0.73221685   
     14200  -9120.5187     -9194.1894      73.670655      7342.7552      296.99895      14261.005      1.3425263      0.73221685   
     14300  -9119.5183     -9193.7166      74.198237      11107.383      299.12587      14271.898      1.3415016      0.73221685   
     14400  -9118.3755     -9193.4129      75.03744       7361.28        302.50906      14282.919      1.3404665      0.73221685   
     14500  -9117.5484     -9192.1523      74.603961      5951.5781      300.76152      14293.779      1.3394481      0.73221685   
     14600  -9120.4337     -9195.6253      75.191588      5784.9346      303.13051      14303.763      1.3385131      0.73221685   
     14700  -9119.2714     -9194.4312      75.159884      6962.8118      303.00269      14302.592      1.3386227      0.73221685   
     14800  -9118.0315     -9191.7647      73.733254      6955.0387      297.25132      14293.592      1.3394656      0.73221685   
     14900  -9119.5737     -9193.7672      74.193474      8013.6498      299.10667      14281.318      1.3406168      0.73221685   
     15000  -9119.4075     -9195.4069      75.999341      8063.9502      306.38692      14264.848      1.3421647      0.63626292   
     15100  -9120.0758     -9195.1861      75.11028       10165.146      302.80272      14246.775      1.3438673      0.63626292   
     15200  -9118.6786     -9193.534       74.855398      9809.2266      301.77517      14234.159      1.3450584      0.63626292   
     15300  -9119.7791     -9194.1361      74.35695       5618.3891      299.76571      14234.169      1.3450574      0.63626292   
     15400  -9119.7496     -9193.9258      74.17618       7221.6193      299.03695      14242.642      1.3442573      0.63626292   
     15500  -9119.5354     -9193.7736      74.238167      7209.8324      299.28684      14255.349      1.343059       0.63626292   
     15600  -9118.2631     -9192.3698      74.106704      9352.2459      298.75686      14275.575      1.3411561      0.63626292   
     15700  -9118.5153     -9192.8306      74.315344      8046.0872      299.59798      14300.711      1.3387988      0.63626292   
     15800  -9121.123      -9194.6504      73.527419      5519.2407      296.42151      14319.922      1.3370027      0.63626292   
     15900  -9120.4875     -9194.1589      73.67136       7640.7082      297.00179      14323.786      1.3366421      0.63626292   
     16000  -9119.0843     -9193.3326      74.248331      7710.8615      299.32782      14312.022      1.3377407      0.71160399   
     16100  -9118.5291     -9193.4803      74.951171      8588.2537      302.16128      14289.56       1.3398435      0.71160399   
     16200  -9116.7991     -9192.3699      75.570756      8300.2929      304.6591       14261.403      1.3424889      0.71160399   
     16300  -9118.3599     -9194.292       75.932127      8172.6721      306.11594      14236.133      1.3448719      0.71160399   
     16400  -9117.0376     -9193.3168      76.279152      7924.8402      307.51496      14215.249      1.3468477      0.71160399   
     16500  -9117.9972     -9191.0104      73.013204      9975.6472      294.34848      14209.02       1.3474381      0.71160399   
     16600  -9119.6293     -9194.5778      74.948521      9621.9962      302.15059      14221.984      1.3462098      0.71160399   
     16700  -9120.4997     -9195.5958      75.096148      6859.0275      302.74575      14245.552      1.3439827      0.71160399   
     16800  -9121.3401     -9192.9039      71.563758      7741.387       288.50512      14272.093      1.3414833      0.71160399   
     16900  -9122.4936     -9194.9984      72.504817      6501.7515      292.29894      14299.136      1.3389462      0.71160399   
     17000  -9121.3997     -9193.8422      72.44243       8047.7212      292.04743      14317.583      1.3372211      0.72927999   
     17100  -9122.2048     -9194.0223      71.817491      8674.7585      289.52803      14326.137      1.3364227      0.72927999   
     17200  -9122.356      -9197.9882      75.632174      7965.1941      304.9067       14318.917      1.3370965      0.72927999   
     17300  -9122.0756     -9195.1251      73.049535      7182.8642      294.49494      14293.074      1.3395141      0.72927999   
     17400  -9119.2565     -9194.0512      74.794633      9426.7218      301.5302       14258.964      1.3427185      0.72927999   
     17500  -9116.3546     -9192.2061      75.851483      10545.09       305.79083      14229.861      1.3454647      0.72927999   
     17600  -9116.6617     -9192.3199      75.658272      9385.4508      305.01191      14215.49       1.3468248      0.72927999   
     17700  -9117.501      -9194.0898      76.588841      9188.102       308.76345      14220.954      1.3463073      0.72927999   
     17800  -9117.6199     -9193.1483      75.52842       7840.1403      304.48842      14243.496      1.3441766      0.72927999   
     17900  -9118.9274     -9192.7048      73.777428      9233.1934      297.4294       14278.06       1.3409227      0.72927999   
     18000  -9117.888      -9193.6201      75.732142      6708.2718      305.30972      14313.505      1.3376021      0.69958796   
     18100  -9118.1068     -9193.8373      75.730514      9470.9624      305.30315      14338.451      1.335275       0.69958796   
     18200  -9118.5033     -9193.3619      74.858649      9018.9578      301.78828      14350.194      1.3341823      0.69958796   
     18300  -9118.7293     -9192.7589      74.029639      8436.4179      298.44618      14349.762      1.3342225      0.69958796   
     18400  -9116.7054     -9192.8067      76.101255      7655.6583      306.79778      14338.93       1.3352303      0.69958796   
     18500  -9118.8722     -9194.8106      75.93839       7613.9044      306.1412       14323.22       1.3366949      0.69958796   
     18600  -9119.5241     -9195.4914      75.967291      3800.2993      306.25771      14299.282      1.3389326      0.69958796   
     18700  -9120.1516     -9194.4456      74.293936      6797.3047      299.51167      14265.959      1.3420602      0.69958796   
     18800  -9119.5623     -9194.8338      75.271494      9250.6055      303.45264      14236.089      1.3448761      0.69958796   
     18900  -9119.152      -9193.5455      74.393456      9680.7393      299.91288      14218.414      1.3465478      0.69958796   
     19000  -9119.6215     -9195.7019      76.080435      7297.9275      306.71384      14217.475      1.3466368      0.64528408   
     19100  -9120.0745     -9194.137       74.062485      6905.0281      298.57859      14225.278      1.3458981      0.64528408   
     19200  -9119.9045     -9194.9242      75.019693      6659.1569      302.43752      14243.68       1.3441593      0.64528408   
     19300  -9120.9978     -9196.1057      75.107919      7457.3465      302.7932       14264.078      1.3422371      0.64528408   
     19400  -9118.9191     -9195.8199      76.900801      8480.8261      310.0211       14283.647      1.3403982      0.64528408   
     19500  -9118.9285     -9192.9657      74.037201      8580.1473      298.47666      14303.116      1.3385736      0.64528408   
     19600  -9120.0445     -9195.096       75.051491      9182.6958      302.56571      14315.677      1.3373991      0.64528408   
     19700  -9121.6372     -9194.4657      72.828442      5251.7577      293.60362      14319.878      1.3370068      0.64528408   
     19800  -9121.482      -9195.0197      73.53769       6971.79        296.46291      14313.541      1.3375987      0.64528408   
     19900  -9119.8188     -9195.5712      75.752408      7430.3075      305.39142      14295.654      1.3392724      0.64528408   
     20000  -9119.48       -9194.1166      74.636567      10018.074      300.89297      14270.12       1.3416688      0.74956694   
     20100  -9120.6354     -9195.1139      74.478557      9911.4215      300.25596      14248.366      1.3437172      0.74956694   
     20200  -9120.3993     -9196.3232      75.92387       7659.7801      306.08266      14232.396      1.3452249      0.74956694   
     20300  -9121.9393     -9196.4934      74.554131      6908.9897      300.56064      14222.777      1.3461348      0.74956694   
     20400  -9121.2605     -9195.6319      74.371377      11073.696      299.82387      14219.656      1.3464302      0.74956694   
     20500  -9119.8369     -9194.8983      75.061394      10033.714      302.60564      14225.951      1.3458345      0.74956694   
     20600  -9120.6361     -9194.436       73.799967      8525.771       297.52027      14243.11       1.3442131      0.74956694   
     20700  -9120.5207     -9193.734       73.213324      7981.4122      295.15525      14265.541      1.3420995      0.74956694   
     20800  -9119.5208     -9195.1664      75.645608      10502.467      304.96086      14289.201      1.3398772      0.74956694   
     20900  -9120.4238     -9194.5182      74.094421      6141.5931      298.70734      14307.205      1.3381911      0.74956694   
     21000  -9118.1607     -9193.8828      75.72212       6813.8639      305.26931      14314.268      1.3375308      0.65829989   
     21100  -9117.8633     -9193.021       75.157673      7230.4488      302.99378      14308.206      1.3380975      0.65829989   
     21200  -9116.174      -9192.9293      76.755256      7200.2293      309.43434      14294.368      1.3393929      0.65829989   
     21300  -9115.938      -9192.7721      76.834046      7344.5418      309.75198      14278.966      1.3408376      0.65829989   
     21400  -9115.2848     -9192.7098      77.424937      8166.4032      312.13412      14267.841      1.3418831      0.65829989   
     21500  -9114.6404     -9193.8784      79.238039      7359.5797      319.44354      14263.913      1.3422526      0.65829989   
     21600  -9115.8637     -9192.7513      76.88763       5448.6931      309.968        14266.853      1.341976       0.65829989   
     21700  -9114.3938     -9190.878       76.484274      9747.968       308.34189      14277.813      1.3409458      0.65829989   
     21800  -9114.7999     -9191.8814      77.081559      7048.9523      310.74981      14292.504      1.3395675      0.65829989   
     21900  -9114.1085     -9191.565       77.456511      8784.773       312.26141      14311.537      1.337786       0.65829989   
     22000  -9115.1771     -9191.6497      76.472612      8139.7294      308.29488      14334.996      1.3355968      0.67758881   
     22100  -9117.2577     -9193.9443      76.686586      7714.5783      309.1575       14350.684      1.3341367      0.67758881   
     22200  -9116.1853     -9192.7371      76.551748      11644.921      308.61391      14354.002      1.3338283      0.67758881   
     22300  -9114.1125     -9192.8675      78.754961      10253.636      317.49604      14345.277      1.3346396      0.67758881   
     22400  -9116.1273     -9192.8605      76.73325       8690.3178      309.34563      14324.458      1.3365793      0.67758881   
     22500  -9116.4911     -9194.4586      77.967493      7785.6348      314.3214       14298.871      1.3389711      0.67758881   
     22600  -9115.9484     -9191.6117      75.663344      7884.9419      305.03236      14275.403      1.3411722      0.67758881   
     22700  -9116.7324     -9194.6864      77.954056      9756.0721      314.26723      14259.927      1.3426278      0.67758881   
     22800  -9117.5294     -9192.789       75.259565      8080.1254      303.40455      14249.635      1.3435975      0.67758881   
     22900  -9117.9823     -9192.7505      74.768261      9244.6448      301.42389      14247.095      1.3438371      0.67758881   
     23000  -9117.3271     -9191.5417      74.214544      9064.7407      299.19161      14253.607      1.3432231      0.69171156   
     23100  -9115.7791     -9191.3992      75.62011       9261.6185      304.85807      14269.074      1.3417672      0.69171156   
     23200  -9115.9432     -9192.226       76.282854      7513.8869      307.52988      14292.225      1.3395937      0.69171156   
     23300  -9115.6838     -9191.9834      76.299628      8851.6651      307.59751      14319.683      1.337025       0.69171156   
     23400  -9117.4512     -9193.0672      75.616009      8429.4605      304.84153      14344.049      1.3347538      0.69171156   
     23500  -9119.7717     -9196.0384      76.266719      4961.4123      307.46483      14359.33       1.3333334      0.69171156   
     23600  -9117.9878     -9192.1401      74.152301      5918.6373      298.94068      14361.542      1.3331281      0.69171156   
     23700  -9119.8086     -9194.6744      74.865783      9706.1557      301.81704      14351.668      1.3340453      0.69171156   
     23800  -9120.3974     -9195.6854      75.288037      8490.5602      303.51933      14327.856      1.3362624      0.69171156   
     23900  -9119.1094     -9193.9915      74.882038      11724.586      301.88257      14295.659      1.339272       0.69171156   
     24000  -9118.9967     -9193.0499      74.053244      8353.9489      298.54134      14264.156      1.3422297      0.69116196   
     24100  -9118.6028     -9195.3546      76.751789      5968.7217      309.42036      14242.015      1.3443164      0.69116196   
     24200  -9116.7998     -9192.8154      76.015595      5451.5713      306.45244      14237.057      1.3447846      0.69116196   
     24300  -9117.2267     -9191.7754      74.548737      8827.773       300.53889      14245.247      1.3440114      0.69116196   
     24400  -9117.3856     -9192.8576      75.472059      8842.5045      304.26121      14264.089      1.342236       0.69116196   
     24500  -9117.3565     -9193.8258      76.469209      6884.9826      308.28116      14286.973      1.3400862      0.69116196   
     24600  -9118.1241     -9194.0999      75.975872      8110.1197      306.2923       14305.916      1.3383117      0.69116196   
     24700  -9118.2804     -9193.8489      75.568411      7313.7885      304.64965      14313.749      1.3375793      0.69116196   
     24800  -9119.2387     -9193.9775      74.738718      7545.3563      301.30479      14311.624      1.3377779      0.69116196   
     24900  -9122.2898     -9196.7663      74.476445      8483.8691      300.24745      14299.37       1.3389244      0.69116196   
     25000  -9118.7955     -9193.2431      74.447529      9792.5904      300.13087      14274.694      1.3412389      0.68408298   
     25100  -9119.0541     -9193.7608      74.70678       8405.3371      301.17603      14250.516      1.3435145      0.68408298   
     25200  -9119.2129     -9194.5906      75.377752      8925.0173      303.88102      14234.579      1.3450187      0.68408298   
     25300  -9119.3854     -9195.5534      76.168061      8458.5297      307.0671       14225.225      1.3459031      0.68408298   
     25400  -9118.9601     -9193.4371      74.476962      9456.8085      300.24953      14226.743      1.3457595      0.68408298   
     25500  -9118.5562     -9194.8044      76.248242      7220.3424      307.39034      14240.086      1.3444985      0.68408298   
     25600  -9118.9088     -9195.9831      77.074235      6979.1982      310.72029      14260.193      1.3426027      0.68408298   
     25700  -9119.6391     -9194.5921      74.952924      5934.8047      302.16835      14280.578      1.3406862      0.68408298   
     25800  -9120.2289     -9193.6995      73.470563      8546.8582      296.19229      14303.135      1.3385719      0.68408298   
     25900  -9121.053      -9196.2807      75.22773       4620.8628      303.27621      14326.182      1.3364185      0.68408298   
     26000  -9118.0612     -9193.3819      75.320731      7622.8839      303.65114      14335.316      1.335567       0.64797789   
     26100  -9117.8599     -9191.7135      73.853543      9053.7753      297.73626      14329.389      1.3361194      0.64797789   
     26200  -9117.0919     -9192.5969      75.505034      10455.743      304.39415      14316.092      1.3373605      0.64797789   
     26300  -9118.3129     -9194.424       76.111054      10894.502      306.83728      14295.937      1.3392459      0.64797789   
     26400  -9119.7483     -9196.2098      76.461509      10897.02       308.25012      14267.786      1.3418883      0.64797789   
     26500  -9118.719      -9194.3392      75.620284      10327.756      304.85877      14230.948      1.3453618      0.64797789   
     26600  -9118.6733     -9195.779       77.105666      6337.8465      310.847        14199.782      1.3483147      0.64797789   
     26700  -9117.9753     -9192.2126      74.237283      7727.5524      299.28328      14183.87       1.3498272      0.64797789   
     26800  -9117.981      -9192.8491      74.868094      9010.6618      301.82636      14192.74       1.3489837      0.64797789   
     26900  -9118.3516     -9193.4675      75.115858      9950.5922      302.82521      14224.775      1.3459457      0.64797789   
     27000  -9118.9598     -9194.4817      75.521953      7192.8284      304.46235      14277.766      1.3409503      0.62678867   
     27100  -9118.9486     -9196.1202      77.171639      8112.0273      311.11297      14331.614      1.335912       0.62678867   
     27200  -9118.063      -9193.1634      75.100404      6727.0615      302.7629       14372.935      1.3320714      0.62678867   
     27300  -9116.8204     -9192.5791      75.758679      8240.9683      305.4167       14396.657      1.3298764      0.62678867   
     27400  -9117.1046     -9193.8457      76.741103      6220.6481      309.37729      14396.828      1.3298606      0.62678867   
     27500  -9116.8041     -9191.8626      75.058507      7803.5505      302.594        14368.096      1.3325199      0.62678867   
     27600  -9118.7923     -9192.462       73.66964       7088.2341      296.99486      14319.044      1.3370847      0.62678867   
     27700  -9117.0016     -9193.1796      76.178092      6018.8244      307.10754      14256.343      1.3429653      0.62678867   
     27800  -9118.3127     -9194.9581      76.645417      5930.4186      308.99153      14195.822      1.3486908      0.62678867   
     27900  -9119.7697     -9193.9551      74.185349      9780.3827      299.07391      14151.355      1.3529287      0.62678867   
     28000  -9119.3358     -9193.9107      74.574884      10183.854      300.6443       14137.114      1.3542916      0.64270465   
     28100  -9117.6687     -9194.2433      76.574583      8394.2616      308.70597      14157.499      1.3523416      0.64270465   
     28200  -9116.7123     -9193.097       76.384634      9250.8445      307.9402       14210.393      1.3473079      0.64270465   
     28300  -9116.6523     -9192.576       75.923647      6419.3821      306.08176      14285.892      1.3401876      0.64270465   
     28400  -9117.0404     -9194.5446      77.504163      7607.8357      312.45352      14368.908      1.3324447      0.64270465   
     28500  -9115.8378     -9191.8231      75.985305      7115.1408      306.33033      14443.598      1.3255544      0.64270465   
     28600  -9117.6473     -9194.181       76.533684      6690.5891      308.54109      14491.408      1.3211812      0.64270465   
     28700  -9116.9023     -9193.0356      76.133307      8428.072       306.92699      14496.991      1.3206723      0.64270465   
     28800  -9116.5632     -9191.626       75.062762      8004.1923      302.61115      14462.128      1.323856       0.64270465   
     28900  -9117.4061     -9192.8699      75.463783      7849.2658      304.22784      14398.637      1.3296936      0.64270465   
     29000  -9117.4386     -9191.9006      74.462062      7258.9364      300.18946      14312.096      1.3377338      0.70797418   
     29100  -9116.8997     -9192.4944      75.594623      8380.8472      304.75532      14223.005      1.3461131      0.70797418   
     29200  -9114.9069     -9190.3228      75.415818      9576.6233      304.03448      14154.497      1.3526284      0.70797418   
     29300  -9117.7188     -9193.1924      75.473665      10103.185      304.26768      14121.278      1.3558103      0.70797418   
     29400  -9121.1139     -9195.8918      74.777954      10437.557      301.46296      14121.449      1.3557939      0.70797418   
     29500  -9121.498      -9196.1866      74.688665      8093.4873      301.103        14150.788      1.3529829      0.70797418   
     29600  -9121.9225     -9195.0551      73.132632      9535.1807      294.82994      14195.622      1.3487098      0.70797418   
     29700  -9121.8196     -9192.7016      70.882036      9111.6259      285.7568       14251.502      1.3434215      0.70797418   
     29800  -9123.5969     -9198.0279      74.430995      7873.5217      300.06422      14305.232      1.3383756      0.70797418   
     29900  -9122.4562     -9196.8544      74.398214      7498.741       299.93206      14340.345      1.3350986      0.70797418   
     30000  -9119.6807     -9193.5174      73.83669       7742.1785      297.66831      14352.274      1.3339889      0.73250815   
     30100  -9119.7159     -9193.5552      73.839268      7410.6332      297.6787       14345.991      1.3345731      0.73250815   
     30200  -9117.8947     -9194.5165      76.621859      7780.1662      308.89656      14323.493      1.3366694      0.73250815   
     30300  -9118.0591     -9194.7011      76.64202       7002.8311      308.97784      14289.701      1.3398303      0.73250815   
     30400  -9117.6194     -9195.7801      78.160726      8425.92        315.10041      14253.526      1.3432307      0.73250815   
     30500  -9119.8483     -9194.5562      74.707887      11068.219      301.18049      14224.098      1.3460097      0.73250815   
     30600  -9120.606      -9195.9455      75.339499      10754.296      303.7268       14205.783      1.3477451      0.73250815   
     30700  -9117.6084     -9194.4747      76.866316      10529.607      309.88207      14201.454      1.3481559      0.73250815   
     30800  -9116.8512     -9193.0628      76.211573      8975.8555      307.24252      14219.052      1.3464874      0.73250815   
     30900  -9117.8211     -9193.0396      75.218592      11238.368      303.23937      14261.835      1.3424482      0.73250815   
     31000  -9119.83       -9193.7053      73.87528       7955.4507      297.82389      14316.104      1.3373593      0.67322646   
     31100  -9119.7648     -9194.5525      74.787727      8153.56        301.50236      14363.418      1.3329539      0.67322646   
     31200  -9119.7198     -9191.9051      72.185211      9879.1811      291.01047      14396.316      1.3299079      0.67322646   
     31300  -9119.2256     -9194.6844      75.458812      6436.4008      304.2078       14409.362      1.3287039      0.67322646   
     31400  -9117.6174     -9194.1117      76.494296      9254.3678      308.3823       14394.64       1.3300628      0.67322646   
     31500  -9118.5991     -9192.8664      74.267246      8541.0213      299.40407      14356.376      1.3336078      0.67322646   
     31600  -9117.1339     -9193.2185      76.08459       5967.1156      306.73059      14299.902      1.3388745      0.67322646   
     31700  -9115.5791     -9191.9775      76.398383      9485.4422      307.99563      14237.559      1.3447371      0.67322646   
     31800  -9115.3331     -9192.117       76.78388       9133.8923      309.54974      14185.106      1.3497096      0.67322646   
     31900  -9115.9766     -9192.8455      76.868895      10505.869      309.89247      14155.348      1.3525471      0.67322646   
     32000  -9116.4164     -9192.5478      76.131341      12117.603      306.91907      14157.568      1.352335       0.72767149   
     32100  -9117.1184     -9194.2164      77.097965      11836.683      310.81595      14195.596      1.3487122      0.72767149   
     32200  -9115.4118     -9191.5815      76.169725      9089.6558      307.07381      14262.736      1.3423634      0.72767149   
     32300  -9118.1921     -9193.0433      74.85122       7820.1874      301.75833      14346.641      1.3345127      0.72767149   
     32400  -9119.5283     -9193.4396      73.911268      7062.8355      297.96897      14421.526      1.3275831      0.72767149   
     32500  -9120.348      -9194.0344      73.686389      8593.2313      297.06238      14469.451      1.323186       0.72767149   
     32600  -9117.7209     -9192.2347      74.513808      7640.3693      300.39808      14479.487      1.3222688      0.72767149   
     32700  -9117.0392     -9193.0266      75.987448      7450.298       306.33897      14449.14       1.3250459      0.72767149   
     32800  -9119.2474     -9193.9091      74.661711      8434.1706      300.99434      14387.607      1.3307129      0.72767149   
     32900  -9116.3348     -9193.2272      76.892457      6398.6204      309.98746      14310.329      1.337899       0.72767149   
     33000  -9116.5631     -9191.0423      74.47921       8295.3411      300.2586       14231.701      1.3452907      0.70255285   
     33100  -9116.8171     -9192.91        76.092953      9560.97        306.76431      14175.315      1.3506419      0.70255285   
     33200  -9117.5836     -9193.1387      75.555096      9617.7128      304.59597      14147.449      1.3533023      0.70255285   
     33300  -9117.7038     -9195.9401      78.23629       9101.0337      315.40504      14153.946      1.3526811      0.70255285   
     33400  -9116.241      -9193.6998      77.458769      8321.4839      312.27051      14191.311      1.3491195      0.70255285   
     33500  -9116.0864     -9191.7889      75.702473      7102.1677      305.19011      14247.376      1.3438106      0.70255285   
     33600  -9117.1417     -9194.397       77.255306      6010.0994      311.45027      14311.486      1.3377909      0.70255285   
     33700  -9117.1537     -9191.5018      74.348071      7748.8507      299.72992      14369.491      1.3323906      0.70255285   
     33800  -9118.3519     -9192.716       74.364176      3490.4839      299.79484      14406.132      1.3290018      0.70255285   
     33900  -9115.4465     -9192.4613      77.014818      4397.759       310.48075      14413.101      1.3283592      0.70255285   
     34000  -9118.2679     -9193.3241      75.05629       6310.9739      302.58506      14394.046      1.3301176      0.65299683   
     34100  -9118.2226     -9193.9756      75.752994      7980.4459      305.39378      14356.493      1.3335969      0.65299683   
     34200  -9118.1063     -9195.1808      77.074541      7741.3547      310.72152      14307.748      1.3381404      0.65299683   
     34300  -9114.9927     -9191.7359      76.743205      9232.1258      309.38576      14257.811      1.342827       0.65299683   
     34400  -9115.4672     -9192.0574      76.590177      7592.3926      308.76884      14219.978      1.3463997      0.65299683   
     34500  -9115.9135     -9193.9909      78.077387      9245.5065      314.76444      14200.579      1.348239       0.65299683   
     34600  -9117.8486     -9194.0864      76.237887      7829.1728      307.3486       14205.633      1.3477594      0.65299683   
     34700  -9119.8706     -9193.7063      73.835713      9513.8539      297.66437      14230.809      1.345375       0.65299683   
     34800  -9118.1019     -9193.9614      75.859515      8010.0783      305.82321      14269.163      1.3417588      0.65299683   
     34900  -9120.1644     -9194.1471      73.982678      7942.7658      298.25686      14309.524      1.3379743      0.65299683   
     35000  -9121.4839     -9194.7925      73.30859       9470.5506      295.53931      14339.61       1.335167       0.71540598   
     35100  -9118.8415     -9193.0169      74.175366      6697.1245      299.03366      14352.47       1.3339707      0.71540598   
     35200  -9117.3133     -9194.2685      76.955184      7837.3712      310.24034      14346.963      1.3344828      0.71540598   
     35300  -9116.0756     -9192.7447      76.669091      8375.241       309.08697      14326.663      1.3363736      0.71540598   
     35400  -9115.9482     -9192.8719      76.92372       8787.0992      310.1135       14296.216      1.3392197      0.71540598   
     35500  -9117.6595     -9194.25        76.590553      10037.869      308.77035      14264.051      1.3422396      0.71540598   
     35600  -9118.0838     -9194.1572      76.073374      11621.061      306.68538      14234.869      1.3449913      0.71540598   
     35700  -9117.9389     -9195.0206      77.081628      11111.866      310.75009      14216.014      1.3467752      0.71540598   
     35800  -9117.844      -9196.9721      79.128134      5679.8058      319.00046      14207.697      1.3475636      0.71540598   
     35900  -9118.6256     -9193.1574      74.531838      9361.2376      300.47076      14211.333      1.3472188      0.71540598   
     36000  -9118.3757     -9192.7693      74.393524      7953.2714      299.91316      14233.683      1.3451033      0.69489514   
     36100  -9117.6653     -9193.4069      75.741642      9016.18        305.34802      14264.676      1.3421808      0.69489514   
     36200  -9119.349      -9195.2896      75.940572      8779.3972      306.14999      14296.2        1.3392213      0.69489514   
     36300  -9118.9127     -9193.5528      74.640082      9418.6901      300.90714      14321.934      1.3368149      0.69489514   
     36400  -9116.7155     -9191.6354      74.91992       8786.3288      302.03529      14338.076      1.3353099      0.69489514   
     36500  -9117.8655     -9193.3996      75.534098      6138.9636      304.51131      14342.788      1.3348712      0.69489514   
     36600  -9117.6205     -9194.7458      77.125254      7865.2419      310.92597      14330.193      1.3360444      0.69489514   
     36700  -9117.0458     -9193.332       76.286245      7718.735       307.54355      14303.585      1.3385298      0.69489514   
     36800  -9114.0918     -9191.4047      77.31293       6713.261       311.68257      14275.013      1.3412089      0.69489514   
     36900  -9115.4533     -9192.398       76.94475       7862.6497      310.19828      14253.747      1.3432099      0.69489514   
     37000  -9116.0665     -9191.3658      75.299384      7644.7201      303.56508      14243.176      1.3442068      0.74979333   
     37100  -9116.1767     -9194.2598      78.083166      8329.5676      314.78773      14242.017      1.3443163      0.74979333   
     37200  -9118.3391     -9192.7594      74.420309      7821.3079      300.02114      14252.296      1.3433467      0.74979333   
     37300  -9117.8963     -9193.6624      75.766146      9206.1063      305.4468       14268.109      1.3418579      0.74979333   
     37400  -9117.1229     -9194.3301      77.207177      10968.448      311.25624      14289.981      1.3398041      0.74979333   
     37500  -9117.4426     -9192.754       75.311368      8990.8674      303.61339      14311.839      1.3377578      0.74979333   
     37600  -9116.4666     -9194.5403      78.073707      5819.2839      314.7496       14332.329      1.3358453      0.74979333   
     37700  -9115.3227     -9192.7296      77.406843      6603.6626      312.06118      14343.793      1.3347777      0.74979333   
     37800  -9116.6636     -9191.2042      74.54054       7823.4594      300.50584      14346.147      1.3345587      0.74979333   
     37900  -9115.0137     -9190.2018      75.188069      7434.2096      303.11632      14340.736      1.3350622      0.74979333   
     38000  -9116.0615     -9193.158       77.096518      7189.4185      310.81012      14333.774      1.3357106      0.67138809   
     38100  -9116.9139     -9192.4749      75.561027      9514.3773      304.61988      14319.088      1.3370806      0.67138809   
     38200  -9117.8886     -9194.8462      76.957635      7314.8359      310.25022      14302.805      1.3386028      0.67138809   
     38300  -9117.6509     -9193.6594      76.008562      8552.5303      306.42409      14281.801      1.3405714      0.67138809   
     38400  -9114.8828     -9192.8505      77.967697      8884.9344      314.32223      14262.458      1.3423896      0.67138809   
     38500  -9115.747      -9194.0988      78.351875      9169.0641      315.87102      14255.393      1.3430549      0.67138809   
     38600  -9115.62       -9192.7717      77.151712      9488.7629      311.03263      14257.404      1.3428655      0.67138809   
     38700  -9116.9325     -9194.7843      77.85178       7344.0664      313.85491      14269.787      1.3417001      0.67138809   
     38800  -9115.7495     -9192.5227      76.773229      9722.9435      309.5068       14288.031      1.339987       0.67138809   
     38900  -9116.6681     -9192.4243      75.756183      10946.754      305.40664      14306.274      1.3382782      0.67138809   
     39000  -9117.4703     -9195.1847      77.714459      9046.9391      313.30131      14318.223      1.3371614      0.66763374   
     39100  -9117.0953     -9192.9843      75.888971      7653.013       305.94196      14318.586      1.3371275      0.66763374   
     39200  -9116.069      -9193.3352      77.266148      6689.9025      311.49397      14313.166      1.3376338      0.66763374   
     39300  -9116.6256     -9191.3465      74.720852      9693.8725      301.23276      14300.625      1.3388069      0.66763374   
     39400  -9116.969      -9194.4562      77.487206      8929.9473      312.38516      14282.948      1.3404638      0.66763374   
     39500  -9116.7566     -9193.4225      76.665872      11443.065      309.074        14268.486      1.3418224      0.66763374   
     39600  -9117.1538     -9190.9839      73.830165      9754.0654      297.64201      14263.63       1.3422792      0.66763374   
     39700  -9117.061      -9191.6709      74.609909      8354.1131      300.7855       14268.276      1.3418422      0.66763374   
     39800  -9117.6957     -9194.4875      76.791769      5576.4505      309.58154      14276.373      1.3410811      0.66763374   
     39900  -9118.2774     -9194.8709      76.593555      7536.14        308.78246      14286.825      1.3401         0.66763374   
     40000  -9119.8578     -9194.9031      75.045289      11171.703      302.54071      14293.691      1.3394563      0.6408766    
     40100  -9119.0693     -9194.6085      75.53925       10971.61       304.53208      14295.224      1.3393126      0.6408766    
     40200  -9118.7245     -9193.9341      75.209613      11290.247      303.20317      14297.678      1.3390828      0.6408766    
     40300  -9118.8238     -9196.6255      77.801679      8961.842       313.65293      14299.892      1.3388755      0.6408766    
     40400  -9119.4112     -9195.0965      75.685243      9683.7107      305.12065      14295.566      1.3392806      0.6408766    
     40500  -9120.3527     -9193.8124      73.459673      9175.1636      296.14839      14283.341      1.3404269      0.6408766    
     40600  -9120.1797     -9194.3034      74.123705      5377.1918      298.8254       14269.069      1.3417676      0.6408766    
     40700  -9120.4321     -9194.503       74.070906      9796.4435      298.61254      14254.669      1.343123       0.6408766    
     40800  -9121.1813     -9193.9982      72.816936      9801.9688      293.55723      14241.809      1.3443358      0.6408766    
     40900  -9122.641      -9194.5737      71.932667      7266.8648      289.99235      14232.98       1.3451698      0.6408766    
     41000  -9122.0193     -9195.1271      73.107872      7800.5597      294.73013      14229.134      1.3455334      0.70054275   
     41100  -9121.6517     -9194.9125      73.260858      6823.777       295.34688      14230.403      1.3454134      0.70054275   
     41200  -9121.6617     -9195.031       73.369324      6625.3949      295.78415      14235.176      1.3449623      0.70054275   
     41300  -9120.9162     -9196.209       75.292866      8599.106       303.5388       14243.462      1.3441798      0.70054275   
     41400  -9119.8894     -9193.9478      74.058438      7533.1414      298.56228      14252.91       1.3432889      0.70054275   
     41500  -9119.3077     -9195.531       76.223319      5418.0192      307.28987      14263.721      1.3422707      0.70054275   
     41600  -9115.7092     -9192.3978      76.688604      7679.2774      309.16564      14278.284      1.3409016      0.70054275   
     41700  -9116.962      -9193.4679      76.50592       6003.1221      308.42916      14293.417      1.339482       0.70054275   
     41800  -9119.3132     -9193.3208      74.007552      6819.7296      298.35713      14306.153      1.3382895      0.70054275   
     41900  -9120.3262     -9196.1817      75.85551       5865.7509      305.80707      14316.152      1.3373548      0.70054275   
     42000  -9119.2332     -9195.8895      76.656304      9896.2089      309.03542      14316.624      1.3373107      0.6685911    
     42100  -9119.329      -9195.8329      76.503919      7795.206       308.42109      14309.444      1.3379817      0.6685911    
     42200  -9119.3549     -9194.2619      74.907022      8510.0066      301.98329      14294.502      1.3393804      0.6685911    
     42300  -9116.444      -9193.6232      77.179199      7744.8669      311.14344      14278.161      1.3409132      0.6685911    
     42400  -9117.54       -9194.4296      76.889618      6925.4334      309.97602      14263.647      1.3422777      0.6685911    
     42500  -9117.9292     -9193.6251      75.695927      4792.8644      305.16372      14258.016      1.3428078      0.6685911    
     42600  -9117.4836     -9191.8065      74.32287       9665.0759      299.62832      14261.185      1.3425094      0.6685911    
     42700  -9118.2983     -9193.7167      75.418352      9509.6497      304.04469      14275.089      1.3412018      0.6685911    
     42800  -9118.1832     -9193.1928      75.009672      7791.4799      302.39712      14291.471      1.3396643      0.6685911    
     42900  -9116.3237     -9194.2609      77.937109      5543.138       314.19891      14303.893      1.338501       0.6685911    
     43000  -9115.8058     -9194.2227      78.416896      5247.1946      316.13315      14312.107      1.3377327      0.68482685   
     43100  -9115.7928     -9192.4868      76.693987      6474.1358      309.18734      14317.596      1.33722        0.68482685   
     43200  -9114.7501     -9192.4927      77.742541      4121.6175      313.41452      14317.812      1.3371997      0.68482685   
     43300  -9113.3287     -9190.9156      77.586879      4964.902       312.78698      14313.158      1.3376345      0.68482685   
     43400  -9112.9728     -9190.3483      77.375437      7518.8929      311.93457      14308.967      1.3380263      0.68482685   
     43500  -9114.116      -9191.2041      77.08818       6049.6039      310.77651      14307.35       1.3381776      0.68482685   
     43600  -9113.2784     -9193.0787      79.800302      8003.0952      321.71027      14305.019      1.3383956      0.68482685   
     43700  -9113.9209     -9191.5741      77.653237      8079.14        313.0545       14301.955      1.3386824      0.68482685   
     43800  -9114.3248     -9190.4513      76.126522      6426.2514      306.89964      14301.122      1.3387603      0.68482685   
     43900  -9117.3105     -9194.3748      77.064257      5449.5499      310.68006      14302.383      1.3386423      0.68482685   
     44000  -9117.8337     -9195.4344      77.60071       6913.8888      312.84274      14298.972      1.3389616      0.73345887   
     44100  -9118.946      -9193.6146      74.668583      4921.8009      301.02204      14287.75       1.3400133      0.73345887   
     44200  -9115.7428     -9191.925       76.182196      7658.7966      307.12409      14273.396      1.3413609      0.73345887   
     44300  -9115.0403     -9191.3241      76.283837      9459.6383      307.53384      14265.445      1.3421085      0.73345887   
     44400  -9117.149      -9195.3314      78.182397      7852.3315      315.18778      14264.44       1.3422031      0.73345887   
     44500  -9117.7358     -9195.2174      77.481662      8305.8685      312.36281      14268.509      1.3418203      0.73345887   
     44600  -9118.2141     -9193.047       74.832846      11413.726      301.68426      14279.169      1.3408186      0.73345887   
     44700  -9119.7989     -9194.7189      74.919935      8313.0065      302.03535      14292.365      1.3395806      0.73345887   
     44800  -9119.4596     -9193.7228      74.263203      5671.4501      299.38777      14297.197      1.3391278      0.73345887   
     44900  -9119.9045     -9193.2048      73.300293      9665.8003      295.50586      14294.763      1.3393559      0.73345887   
     45000  -9120.231      -9195.8628      75.631887      8218.2098      304.90554      14290.841      1.3397234      0.65884175   
     45100  -9119.8526     -9193.2541      73.401531      7205.7947      295.914        14282.805      1.3404772      0.65884175   
     45200  -9115.4675     -9192.3683      76.900801      6923.4584      310.0211       14271.945      1.3414972      0.65884175   
     45300  -9114.3124     -9191.9767      77.664249      10892.044      313.09889      14263.781      1.342265       0.65884175   
     45400  -9114.3491     -9191.8947      77.545663      10812.211      312.62082      14269.529      1.3417243      0.65884175   
     45500  -9116.0541     -9192.2376      76.183518      9088.8709      307.12941      14287.6        1.3400274      0.65884175   
     45600  -9116.0552     -9189.6169      73.561684      7783.5865      296.55964      14308.113      1.3381062      0.65884175   
     45700  -9115.4264     -9193.2418      77.815381      7489.4927      313.70818      14329.49       1.33611        0.65884175   
     45800  -9113.3323     -9192.672       79.339671      6833.5941      319.85326      14341.262      1.3350133      0.65884175   
     45900  -9113.7087     -9190.659       76.950309      7737.3168      310.22069      14340.546      1.3350799      0.65884175   
     46000  -9114.4111     -9192.3773      77.966112      8607.6148      314.31584      14328.869      1.3361679      0.61178258   
     46100  -9114.4782     -9190.6847      76.206555      7332.3306      307.22229      14311.764      1.3377648      0.61178258   
     46200  -9115.2701     -9194.1236      78.853437      7635.1533      317.89304      14295.127      1.3393218      0.61178258   
     46300  -9115.5201     -9193.3219      77.801736      7721.5562      313.65317      14283.033      1.3404558      0.61178258   
     46400  -9114.6757     -9192.7251      78.049397      5108.7087      314.65159      14275.39       1.3411735      0.61178258   
     46500  -9113.3483     -9191.0584      77.710108      9475.0752      313.28377      14274.284      1.3412774      0.61178258   
     46600  -9117.8115     -9191.1027      73.29117       8506.2907      295.46908      14289.039      1.3398924      0.61178258   
     46700  -9119.0558     -9193.5989      74.54302       3799.2065      300.51584      14313.497      1.3376029      0.61178258   
     46800  -9118.5011     -9194.1012      75.600111      6918.7775      304.77744      14331.949      1.3358808      0.61178258   
     46900  -9118.947      -9193.7992      74.85222       6475.2097      301.76236      14341.322      1.3350076      0.61178258   
     47000  -9118.2502     -9193.1878      74.937519      7345.4707      302.10624      14342.184      1.3349274      0.6261267    
     47100  -9118.5427     -9193.5945      75.05184       8275.6278      302.56712      14330.829      1.3359851      0.6261267    
     47200  -9118.9264     -9196.3221      77.395718      8816.0053      312.01633      14308.627      1.3380581      0.6261267    
     47300  -9116.9063     -9191.9615      75.055221      7068.6341      302.58075      14282.808      1.340477       0.6261267    
     47400  -9115.9106     -9194.3616      78.451003      8753.7347      316.27065      14268.666      1.3418056      0.6261267    
     47500  -9117.125      -9193.778       76.653057      10592.685      309.02233      14270.088      1.3416718      0.6261267    
     47600  -9117.5373     -9192.5249      74.987644      9287.4868      302.30832      14282.574      1.3404989      0.6261267    
     47700  -9118.5682     -9193.7796      75.211457      7148.1216      303.2106       14302.949      1.3385893      0.6261267    
     47800  -9117.2508     -9194.2716      77.020818      8572.2213      310.50494      14329.354      1.3361226      0.6261267    
     47900  -9118.4557     -9193.2912      74.835537      7464.256       301.69511      14350.006      1.3341998      0.6261267    
     48000  -9117.6988     -9193.7105      76.011725      9315.8532      306.43684      14359.852      1.333285       0.70379304   
     48100  -9118.4852     -9193.8465      75.36127       4528.1764      303.81457      14352.437      1.3339738      0.70379304   
     48200  -9118.0029     -9191.125       73.122099      10116.791      294.78748      14328.401      1.3362115      0.70379304   
     48300  -9118.158      -9193.2223      75.064354      7434.7832      302.61757      14295.703      1.3392678      0.70379304   
     48400  -9118.2273     -9191.9802      73.752906      7950.0349      297.33054      14260.933      1.3425331      0.70379304   
     48500  -9117.0014     -9194.8491      77.847762      8235.1973      313.83871      14233.133      1.3451553      0.70379304   
     48600  -9115.2497     -9191.0449      75.795183      9479.8636      305.56386      14216.047      1.346772       0.70379304   
     48700  -9115.7318     -9192.3099      76.57805       7813.984       308.71995      14222.929      1.3461204      0.70379304   
     48800  -9115.2082     -9191.9085      76.70027       7629.3469      309.21267      14246.319      1.3439103      0.70379304   
     48900  -9115.6463     -9192.5102      76.863884      7142.876       309.87227      14282.647      1.340492       0.70379304   
     49000  -9116.6261     -9190.9924      74.366363      8186.4057      299.80366      14316.615      1.3373116      0.7653204    
     49100  -9116.067      -9191.9785      75.911504      8214.8997      306.0328       14341.027      1.3350351      0.7653204    
     49200  -9116.1898     -9191.7382      75.548396      6946.0887      304.56896      14355.573      1.3336824      0.7653204    
     49300  -9116.711      -9191.4158      74.704817      7457.2978      301.16812      14355.857      1.333656       0.7653204    
     49400  -9117.7579     -9192.9346      75.17667       5855.9096      303.07036      14346.098      1.3345632      0.7653204    
     49500  -9113.9629     -9191.7894      77.826481      7100.5416      313.75292      14329.214      1.3361357      0.7653204    
     49600  -9113.7833     -9192.0201      78.236845      8344.2874      315.40728      14310.092      1.3379211      0.7653204    
     49700  -9112.9877     -9191.393       78.405277      8978.8268      316.08631      14294.572      1.3393737      0.7653204    
     49800  -9116.2488     -9191.5278      75.279081      9540.5749      303.48323      14289.812      1.33982        0.7653204    
     49900  -9117.5176     -9191.2446      73.726966      8009.3381      297.22597      14298.959      1.3389628      0.7653204    
     50000  -9119.6462     -9194.7674      75.121235      5141.3197      302.84688      14318.231      1.3371607      0.69735192   
     50100  -9116.4945     -9190.5556      74.061089      6637.9982      298.57297      14335.559      1.3355443      0.69735192   
     50200  -9114.6088     -9191.7119      77.103029      8236.4965      310.83637      14346.857      1.3344926      0.69735192   
     50300  -9117.3516     -9189.9005      72.548903      7437.0383      292.47667      14357.17       1.333534       0.69735192   
     50400  -9118.2693     -9193.5401      75.270715      6982.4358      303.4495       14357.889      1.3334672      0.69735192   
     50500  -9117.4563     -9192.9048      75.448477      8183.5185      304.16614      14345.431      1.3346252      0.69735192   
     50600  -9116.8601     -9193.12        76.259838      10134.671      307.43709      14321.086      1.336894       0.69735192   
     50700  -9117.8162     -9192.9005      75.084317      10720.773      302.69805      14291.82       1.3396317      0.69735192   
     50800  -9118.49       -9193.5207      75.030673      8643.5855      302.48179      14264.688      1.3421797      0.69735192   
     50900  -9118.6483     -9193.9958      75.347474      6668.7926      303.75895      14245.823      1.3439571      0.69735192   
     51000  -9117.8734     -9192.5289      74.655578      7210.0782      300.96961      14239.871      1.3445188      0.74874079   
     51100  -9116.586      -9194.8147      78.228726      5938.5484      315.37455      14255.912      1.343006       0.74874079   
     51200  -9118.7694     -9192.9425      74.173075      5405.6344      299.02443      14289.363      1.339862       0.74874079   
     51300  -9118.495      -9193.6807      75.185769      8219.7511      303.10704      14329.12       1.3361445      0.74874079   
     51400  -9121.6981     -9196.047       74.348952      8724.4578      299.73347      14365.266      1.3327825      0.74874079   
     51500  -9121.504      -9194.7868      73.282822      6885.9524      295.43542      14384.269      1.3310217      0.74874079   
     51600  -9121.2244     -9195.181       73.956551      6284.7391      298.15152      14382.862      1.3311519      0.74874079   
     51700  -9120.8643     -9195.3679      74.503637      8818.8345      300.35707      14359.822      1.3332877      0.74874079   
     51800  -9121.0235     -9195.8671      74.843627      9030.4981      301.72772      14322.445      1.3367672      0.74874079   
     51900  -9120.1286     -9194.8855      74.756882      9325.3896      301.37801      14277.222      1.3410014      0.74874079   
     52000  -9121.6321     -9195.6607      74.028605      8796.9629      298.44201      14237.375      1.3447545      0.69194324   
     52100  -9124          -9194.8026      70.802555      8534.4929      285.43637      14210.892      1.3472606      0.69194324   
     52200  -9122.2265     -9196.5022      74.275732      6764.3332      299.43828      14201.484      1.3481531      0.69194324   
     52300  -9121.8727     -9194.0521      72.179486      7461.767       290.98739      14208.464      1.3474908      0.69194324   
     52400  -9122.0532     -9195.4418      73.388635      8486.687       295.862        14232.371      1.3452274      0.69194324   
     52500  -9120.556      -9193.7         73.143999      10980.733      294.87577      14268.171      1.3418521      0.69194324   
     52600  -9120.2243     -9195.4758      75.251447      5824.2531      303.37182      14311.497      1.3377898      0.69194324   
     52700  -9120.1163     -9192.0485      71.932157      6953.8105      289.9903       14352.121      1.3340032      0.69194324   
     52800  -9122.9628     -9196.4589      73.496061      6308.0591      296.29509      14379.736      1.3314413      0.69194324   
     52900  -9124.4902     -9196.9663      72.476118      3377.7638      292.18325      14384.142      1.3310335      0.69194324   
     53000  -9121.3425     -9196.0263      74.683839      7138.7007      301.08354      14363.495      1.3329468      0.65577281   
     53100  -9119.7735     -9194.0544      74.28088       6726.7918      299.45904      14324.269      1.3365969      0.65577281   
     53200  -9119.0967     -9194.6947      75.598035      9108.3502      304.76907      14279.156      1.3408198      0.65577281   
     53300  -9118.1086     -9194.5383      76.42961       9650.5643      308.12152      14240.331      1.3444754      0.65577281   
     53400  -9117.8777     -9193.1813      75.303638      10193.324      303.58223      14216.511      1.3467281      0.65577281   
     53500  -9117.3528     -9195.1572      77.804412      9218.2138      313.66395      14212.915      1.3470689      0.65577281   
     53600  -9116.5596     -9192.7419      76.182272      8758.6267      307.12439      14226.574      1.3457755      0.65577281   
     53700  -9116.4308     -9192.3816      75.950755      7715.259       306.19104      14260.075      1.3426139      0.65577281   
     53800  -9115.5918     -9192.0123      76.420485      7019.567       308.08473      14300.168      1.3388496      0.65577281   
     53900  -9117.8509     -9192.4651      74.614243      8516.8359      300.80297      14340.874      1.3350493      0.65577281   
     54000  -9117.2412     -9193.2559      76.014682      8742.5987      306.44876      14372.079      1.3321507      0.63450182   
     54100  -9118.4261     -9193.4165      74.99045       6642.1889      302.31963      14386.687      1.330798       0.63450182   
     54200  -9118.4032     -9194.0274      75.6242        8364.015       304.87455      14380.183      1.3313999      0.63450182   
     54300  -9117.414      -9193.9487      76.534769      6710.7827      308.54546      14353.812      1.333846       0.63450182   
     54400  -9114.6725     -9191.9067      77.234197      8032.0644      311.36517      14310.515      1.3378816      0.63450182   
     54500  -9116.7541     -9192.7514      75.997364      8236.5263      306.37894      14267.247      1.3419389      0.63450182   
     54600  -9116.376      -9192.4196      76.043553      6891.6382      306.56515      14235.022      1.3449768      0.63450182   
     54700  -9116.4462     -9192.5533      76.10703       8307.4038      306.82106      14216.948      1.3466867      0.63450182   
     54800  -9115.2037     -9191.874       76.670291      8441.1107      309.09181      14219.359      1.3464584      0.63450182   
     54900  -9116.6403     -9193.0576      76.417378      8229.86        308.07221      14240.892      1.3444224      0.63450182   
     55000  -9117.5291     -9192.5805      75.051407      8431.8035      302.56537      14273.382      1.3413622      0.65199294   
     55100  -9117.876      -9193.9309      76.054919      7807.6455      306.61097      14313.561      1.3375969      0.65199294   
     55200  -9117.9883     -9192.0882      74.099924      9123.5802      298.72952      14353.15       1.3339075      0.65199294   
     55300  -9116.8716     -9192.2729      75.401225      9431.3179      303.97565      14382.506      1.3311849      0.65199294   
     55400  -9116.4024     -9193.8349      77.432487      7578.6723      312.16456      14393.529      1.3301654      0.65199294   
     55500  -9116.35       -9192.6009      76.250864      6027.9564      307.40091      14385.359      1.3309209      0.65199294   
     55600  -9117.5963     -9194.5717      76.975437      9066.7125      310.32199      14361.543      1.333128       0.65199294   
[...]
    386300  -9116.6352     -9190.4131      73.77787       9187.7578      297.43118      14234.522      1.345024       0.7153786    
    386400  -9117.912      -9192.2322      74.32017       5211.7307      299.61743      14304.166      1.3384754      0.7153786    
    386500  -9119.7078     -9194.9119      75.204156      5437.0158      303.18117      14366.834      1.332637       0.7153786    
    386600  -9118.9995     -9194.461       75.461532      4104.3821      304.21877      14402.428      1.3293436      0.7153786    
    386700  -9119.2349     -9192.6133      73.378355      7097.5561      295.82056      14404.975      1.3291085      0.7153786    
    386800  -9119.7885     -9194.7105      74.922007      6597.9008      302.04371      14379.893      1.3314268      0.7153786    
    386900  -9120.0818     -9195.1381      75.056308      7066.4901      302.58513      14334.435      1.3356491      0.7153786    
    387000  -9119.4626     -9195.632       76.169438      7540.31        307.07265      14277.329      1.3409913      0.68320254   
    387100  -9119.8591     -9192.8476      72.988488      7241.6673      294.24884      14223.735      1.3460441      0.68320254   
    387200  -9120.2913     -9195.2011      74.909793      9358.9257      301.99446      14187.306      1.3495003      0.68320254   
    387300  -9119.3642     -9195.3169      75.952713      8725.6407      306.19894      14171.228      1.3510314      0.68320254   
    387400  -9119.0009     -9193.1429      74.141959      8664.5897      298.89899      14180.452      1.3501526      0.68320254   
    387500  -9117.3231     -9193.8718      76.548753      7589.6938      308.60184      14210.32       1.3473148      0.68320254   
    387600  -9119.9573     -9194.214       74.256716      6353.8449      299.36162      14256.239      1.3429752      0.68320254   
    387700  -9119.8323     -9195.0967      75.264367      9451.2209      303.42391      14302.296      1.3386504      0.68320254   
    387800  -9119.218      -9192.8415      73.623494      8548.785       296.80883      14335.569      1.3355434      0.68320254   
    387900  -9118.4406     -9194.4588      76.018289      6718.9253      306.4633       14355.161      1.3337207      0.68320254   
    388000  -9118.3226     -9192.8006      74.477992      5419.2579      300.25368      14360.161      1.3332563      0.81258104   
    388100  -9117.1622     -9193.8657      76.703536      6727.3056      309.22583      14350.29       1.3341734      0.81258104   
    388200  -9119.2422     -9194.8555      75.613277      8967.0562      304.83052      14325.924      1.3364426      0.81258104   
    388300  -9116.9291     -9193.0261      76.097023      7372.347       306.78071      14292.337      1.3395832      0.81258104   
    388400  -9115.9756     -9192.1263      76.150684      6952.5792      306.99705      14254.932      1.3430983      0.81258104   
    388500  -9115.5047     -9192.0418      76.537146      6140.362       308.55504      14224.148      1.3460051      0.81258104   
    388600  -9114.7333     -9191.6767      76.943384      5132.0367      310.19277      14209.262      1.3474151      0.81258104   
    388700  -9113.6712     -9189.7444      76.073213      6756.1972      306.68472      14215.254      1.3468472      0.81258104   
    388800  -9113.6511     -9191.0065      77.355406      7412.6294      311.85381      14246.421      1.3439007      0.81258104   
    388900  -9112.4504     -9190.4214      77.970992      8902.6003      314.33551      14295.278      1.3393077      0.81258104   
    389000  -9115.4504     -9192.5427      77.09229       9959.4218      310.79307      14348.077      1.3343791      0.65049582   
    389100  -9116.6549     -9193.7766      77.121695      7476.3959      310.91162      14388.568      1.330624       0.65049582   
    389200  -9116.099      -9192.8822      76.783211      6802.2708      309.54704      14409.274      1.328712       0.65049582   
    389300  -9115.9913     -9191.9404      75.949047      6493.6632      306.18416      14403.56       1.329239       0.65049582   
    389400  -9116.7183     -9193.3374      76.61909       6368.5631      308.8854       14371.367      1.3322166      0.65049582   
    389500  -9118.4979     -9193.8666      75.368712      5881.41        303.84457      14317.308      1.3372468      0.65049582   
    389600  -9118.75       -9194.5651      75.815156      8337.2658      305.64438      14250.942      1.3434743      0.65049582   
    389700  -9119.4606     -9195.0577      75.597156      9988.8439      304.76553      14188.543      1.3493827      0.65049582   
    389800  -9117.7052     -9193.4161      75.710886      11798.296      305.22403      14144.644      1.3535706      0.65049582   
    389900  -9115.9515     -9193.4671      77.51555       9453.7038      312.49942      14133.483      1.3546396      0.65049582   
    390000  -9116.5314     -9194.2777      77.746358      10560.174      313.42991      14162.586      1.3518558      0.65182321   
    390100  -9117.4767     -9191.4741      73.997363      13185.807      298.31606      14228.959      1.3455499      0.65182321   
    390200  -9116.6829     -9192.5415      75.85859       7993.0997      305.81949      14320.758      1.3369247      0.65182321   
    390300  -9117.2892     -9193.0211      75.731886      7264.1687      305.30868      14416.014      1.3280908      0.65182321   
    390400  -9117.333      -9192.5569      75.223919      6252.1916      303.26084      14486.009      1.3216736      0.65182321   
    390500  -9119.0767     -9192.6696      73.592851      6728.5631      296.68529      14514.207      1.3191058      0.65182321   
    390600  -9119.6578     -9194.1461      74.488289      7093.9844      300.2952       14498.445      1.3205399      0.65182321   
    390700  -9117.7495     -9192.7749      75.025334      6677.3018      302.46026      14432.776      1.3265484      0.65182321   
    390800  -9118.4087     -9193.7527      75.343991      8117.5738      303.74491      14341.469      1.3349939      0.65182321   
    390900  -9117.0943     -9193.2896      76.195386      10320.801      307.17726      14248.544      1.3437004      0.65182321   
    391000  -9118.4896     -9192.5615      74.071913      7589.4796      298.6166       14171.965      1.3509612      0.66586766   
    391100  -9119.8966     -9195.1701      75.273559      9563.1754      303.46097      14126.818      1.3552787      0.66586766   
    391200  -9117.5526     -9192.8133      75.26068       10583.433      303.40905      14118.071      1.3561184      0.66586766   
    391300  -9116.2135     -9194.0638      77.850242      11042.63       313.84872      14147.703      1.353278       0.66586766   
    391400  -9115.6409     -9192.8798      77.238879      7300.3036      311.38404      14210.688      1.3472799      0.66586766   
    391500  -9117.6551     -9193.3664      75.711324      4012.3375      305.22579      14292.445      1.3395731      0.66586766   
    391600  -9120.4229     -9195.161       74.738139      5796.3481      301.30245      14369.192      1.3324184      0.66586766   
    391700  -9120.8539     -9195.0388      74.184838      5994.5118      299.07185      14413.971      1.328279       0.66586766   
    391800  -9119.8286     -9194.3377      74.509119      4249.3195      300.37917      14422.717      1.3274735      0.66586766   
    391900  -9120.9144     -9195.0027      74.088331      7385.5648      298.68279      14403.82       1.3292151      0.66586766   
    392000  -9120.1318     -9195.0411      74.9093        6486.448       301.99248      14358.832      1.3333796      0.68521856   
    392100  -9119.6355     -9193.4752      73.839737      5316.8729      297.6806       14296.422      1.3392004      0.68521856   
    392200  -9117.6224     -9192.8505      75.228065      8102.5506      303.27756      14236.406      1.344846       0.68521856   
    392300  -9115.2588     -9191.3701      76.111324      9823.2367      306.83837      14196.001      1.3486738      0.68521856   
    392400  -9116.7587     -9192.125       75.366278      9115.6022      303.83476      14186.188      1.3496067      0.68521856   
    392500  -9115.806      -9193.4515      77.645524      8624.5815      313.0234       14210.804      1.3472689      0.68521856   
    392600  -9115.7344     -9192.5851      76.850774      7855.0571      309.81942      14261.468      1.3424827      0.68521856   
    392700  -9116.8265     -9195.0842      78.25763       5211.6934      315.49108      14324.24       1.3365997      0.68521856   
    392800  -9116.7227     -9192.3372      75.614472      6315.2964      304.83534      14382.269      1.3312069      0.68521856   
    392900  -9117.9433     -9195.8493      77.905992      6234.6972      314.07347      14420.67       1.3276619      0.68521856   
    393000  -9117.9825     -9196.2529      78.270453      8230.6173      315.54277      14430.28       1.3267778      0.62619271   
    393100  -9118.4279     -9192.5203      74.092328      7823.254       298.6989       14408.547      1.328779       0.62619271   
    393200  -9117.3373     -9195.0251      77.687823      8871.4192      313.19393      14360.882      1.3331893      0.62619271   
    393300  -9117.6135     -9193.6082      75.994668      7618.6515      306.36808      14296.845      1.3391608      0.62619271   
    393400  -9115.6611     -9191.5537      75.892577      11213.029      305.9565       14230.012      1.3454504      0.62619271   
    393500  -9116.7804     -9192.4696      75.689246      7103.6994      305.13679      14187.375      1.3494938      0.62619271   
    393600  -9117.4951     -9193.72        76.224932      7503.3282      307.29637      14177.852      1.3504002      0.62619271   
    393700  -9115.8083     -9192.5958      76.787532      9192.0667      309.56446      14205.263      1.3477944      0.62619271   
    393800  -9118.503      -9194.2676      75.764528      5723.5133      305.44028      14261.733      1.3424578      0.62619271   
    393900  -9116.8297     -9191.651       74.821337      7647.597       301.63786      14329.678      1.3360925      0.62619271   
    394000  -9116.9069     -9192.7024      75.795584      6766.6722      305.56548      14391.876      1.3303182      0.65350936   
    394100  -9115.7789     -9193.3383      77.559381      4883.4406      312.67613      14431.788      1.3266391      0.65350936   
    394200  -9115.3333     -9190.0756      74.742325      7244.5432      301.31933      14444.225      1.3254968      0.65350936   
    394300  -9116.5272     -9193.2695      76.742268      7281.9371      309.38198      14427.46       1.3270371      0.65350936   
    394400  -9116.9871     -9193.3619      76.374781      8767.2619      307.90048      14380.881      1.3313353      0.65350936   
    394500  -9117.2589     -9192.1039      74.845072      7079.4282      301.73355      14319.796      1.3370145      0.65350936   
    394600  -9117.2095     -9194.4092      77.199704      6922.8888      311.22611      14257.173      1.3428872      0.65350936   
    394700  -9116.8644     -9191.6941      74.829699      8883.1211      301.67157      14203.288      1.3479818      0.65350936   
    394800  -9116.098      -9194.9223      78.824268      7851.1388      317.77544      14175.737      1.3506017      0.65350936   
    394900  -9115.3065     -9191.9749      76.66842       9424.531       309.08427      14180.348      1.3501626      0.65350936   
    395000  -9116.7566     -9193.1347      76.378038      9309.2468      307.91361      14224.703      1.3459525      0.64023344   
    395100  -9117.6696     -9191.8768      74.207196      9630.8945      299.16199      14289.178      1.3398794      0.64023344   
    395200  -9118.0751     -9194.0761      76.001022      7532.7969      306.39369      14361.177      1.3331619      0.64023344   
    395300  -9117.8628     -9193.3377      75.474852      6309.389       304.27247      14420.821      1.3276481      0.64023344   
    395400  -9119.6383     -9193.0717      73.4334        4158.4292      296.04247      14452.462      1.3247414      0.64023344   
    395500  -9118.561      -9194.1498      75.588773      5840.9498      304.73173      14448.383      1.3251154      0.64023344   
    395600  -9119.1242     -9193.1055      73.981279      4966.2154      298.25122      14403.361      1.3292575      0.64023344   
    395700  -9120.131      -9193.0192      72.888178      8102.3117      293.84444      14326.145      1.336422       0.64023344   
    395800  -9119.4937     -9195.0553      75.561611      9316.6179      304.62223      14237.101      1.3447804      0.64023344   
    395900  -9119.1342     -9196.1519      77.017736      10521.713      310.49251      14157.596      1.3523323      0.64023344   
    396000  -9121.198      -9195.9128      74.714727      11101.15       301.20807      14106.52       1.3572288      0.67847915   
    396100  -9123.1007     -9195.8429      72.742218      9877.1894      293.25601      14091.297      1.358695       0.67847915   
    396200  -9121.9202     -9195.6055      73.685251      7036.0709      297.0578       14114.855      1.3564273      0.67847915   
    396300  -9119.4363     -9195.1044      75.668085      10641.36       305.05148      14174.702      1.3507003      0.67847915   
    396400  -9118.4517     -9194.705       76.25333       11380.635      307.41086      14260.067      1.3426147      0.67847915   
    396500  -9117.5335     -9195.0751      77.541581      8592.0559      312.60436      14354.037      1.3338251      0.67847915   
    396600  -9118.2222     -9193.5524      75.330146      6338.9448      303.68909      14433.244      1.3265053      0.67847915   
    396700  -9119.035      -9195.3995      76.364508      7097.2115      307.85906      14478.94       1.3223188      0.67847915   
    396800  -9118.483      -9192.9215      74.438555      7662.6051      300.0947       14480.158      1.3222076      0.67847915   
    396900  -9119.1887     -9193.7837      74.594937      6792.5495      300.72514      14441.614      1.3257365      0.67847915   
    397000  -9117.9988     -9192.5365      74.537734      9880.1892      300.49453      14370.197      1.3323252      0.65680593   
    397100  -9118.3451     -9193.7753      75.430169      10348.613      304.09233      14281.001      1.3406466      0.65680593   
    397200  -9118.4404     -9194.7593      76.318964      8022.5331      307.67545      14198.464      1.3484398      0.65680593   
    397300  -9118.2515     -9194.1439      75.892364      9608.3739      305.95564      14139.07       1.3541042      0.65680593   
    397400  -9117.026      -9192.1561      75.130036      13342.152      302.88236      14115.892      1.3563277      0.65680593   
    397500  -9115.8875     -9193.6068      77.71936       10409.379      313.32107      14133.056      1.3546805      0.65680593   
    397600  -9119.7295     -9195.9045      76.174973      8509.5235      307.09496      14188.39       1.3493973      0.65680593   
    397700  -9117.8796     -9193.5738      75.694224      6267.2362      305.15685      14264.072      1.3422377      0.65680593   
    397800  -9116.1599     -9192.3077      76.147819      8250.7516      306.9855       14344.418      1.3347195      0.65680593   
    397900  -9117.136      -9192.2177      75.08165       7138.9957      302.6873       14415.954      1.3280962      0.65680593   
    398000  -9117.726      -9193.7571      76.031154      5118.6096      306.51517      14459.386      1.3241071      0.67066081   
    398100  -9116.4947     -9192.1538      75.659089      7151.6257      305.01521      14467.166      1.323395       0.67066081   
    398200  -9115.5243     -9192.4689      76.944592      4868.9822      310.19764      14437.832      1.3260838      0.67066081   
    398300  -9114.4499     -9192.5804      78.130532      4541.8802      314.97869      14383.487      1.3310941      0.67066081   
    398400  -9114.6447     -9190.9125      76.267797      7789.0618      307.46918      14316.681      1.3373053      0.67066081   
    398500  -9117.1582     -9193.1357      75.977532      7631.5033      306.29899      14250.909      1.3434774      0.67066081   
    398600  -9118.5447     -9192.8225      74.27775       9242.9993      299.44642      14194.482      1.3488181      0.67066081   
    398700  -9117.5722     -9194.5882      77.016065      10798.139      310.48578      14160.428      1.3520619      0.67066081   
    398800  -9118.4231     -9194.4124      75.989295      8481.438       306.34642      14152.955      1.3527757      0.67066081   
    398900  -9119.5682     -9191.4937      71.925508      8230.1366      289.96349      14177.692      1.3504154      0.67066081   
    399000  -9119.1599     -9194.997       75.837109      6716.6784      305.73289      14227.977      1.3456428      0.70170259   
    399100  -9119.6232     -9195.1716      75.54839       4798.7609      304.56893      14292.41       1.3395764      0.70170259   
    399200  -9119.785      -9195.4084      75.623392      6475.5528      304.8713       14354.249      1.3338054      0.70170259   
    399300  -9119.059      -9194.544       75.484987      7036.0251      304.31332      14401.886      1.3293936      0.70170259   
    399400  -9120.0764     -9193.3687      73.292301      8065.5502      295.47364      14422.799      1.327466       0.70170259   
    399500  -9120.0619     -9192.9006      72.838673      6710.3201      293.64487      14412.325      1.3284307      0.70170259   
    399600  -9117.924      -9192.9597      75.035675      5260.6359      302.50195      14370.334      1.3323124      0.70170259   
    399700  -9118.5004     -9193.096       74.595618      4236.7005      300.72788      14304.614      1.3384335      0.70170259   
    399800  -9119.2288     -9193.6632      74.434383      8634.4085      300.07788      14234.922      1.3449863      0.70170259   
    399900  -9118.3129     -9193.4229      75.10999       8694.5807      302.80155      14179.559      1.3502376      0.70170259   
    400000  -9116.68       -9193.404       76.724073      10940.8        309.30863      14149.677      1.3530891      0.64908259   
    400100  -9116.7539     -9193.4178      76.663927      10433.272      309.06616      14151.066      1.3529563      0.64908259   
    400200  -9116.0461     -9192.8668      76.820708      9653.6521      309.69821      14186.883      1.3495406      0.64908259   
    400300  -9115.6713     -9193.1331      77.461807      8793.5984      312.28276      14250.721      1.3434951      0.64908259   
    400318  -9114.966      -9194.0698      79.103815      5331.6696      318.90242      14263.635      1.3422788      0.64908259   
Loop time of 546.281 on 4 procs for 200000 steps with 1920 atoms

Performance: 15.816 ns/day, 1.517 hours/ns, 366.112 timesteps/s, 702.935 katom-step/s
99.6% CPU use with 4 MPI tasks x 1 OpenMP threads

MPI task timing breakdown:
Section |  min time  |  avg time  |  max time  |%varavg| %total
---------------------------------------------------------------
Pair    | 273.89     | 275.95     | 277.18     |   7.7 | 50.51
Neigh   | 7.9007     | 7.998      | 8.0641     |   2.4 |  1.46
Comm    | 64.9       | 68.359     | 72.208     |  33.0 | 12.51
Output  | 0.31138    | 0.31739    | 0.3249     |   0.9 |  0.06
Modify  | 189.46     | 191.24     | 193.45     |  11.0 | 35.01
Other   |            | 2.417      |            |       |  0.44

Nlocal:            480 ave         485 max         476 min
Histogram: 1 1 0 0 0 0 1 0 0 1
Nghost:           2660 ave        2675 max        2652 min
Histogram: 2 0 0 1 0 0 0 0 0 1
Neighs:              0 ave           0 max           0 min
Histogram: 4 0 0 0 0 0 0 0 0 0
FullNghs:      75631.5 ave       76590 max       74549 min
Histogram: 1 0 0 1 0 0 0 1 0 1

Total # of neighbors = 302526
Ave neighs/atom = 157.56563
Neighbor list builds = 19999
Dangerous builds = 19996

unfix		3
unfix		4
Total wall time: 0:18:16
