LAMMPS (7 Feb 2024 - Update 1)
KOKKOS mode with Kokkos version 4.2.0 is enabled (src/KOKKOS/kokkos.cpp:72)
  will use up to 2 GPU(s) per node
  using 1 OpenMP thread(s) per MPI task
Reading data file ...
  orthogonal box = (0 0 0) to (18.207572 23.629178 22.213196)
  1 by 2 by 1 MPI processor grid
  reading atoms ...
  864 atoms
  read_data CPU = 0.010 seconds
ACE/AL version: 2023.11.25
Loading /home/cicn/cicn607503/pd/pot_dir/interim_potential_ladder_step_5.yaml
Total number of basis functions
	H: 24 (r=1) 863 (r>1)
	O: 24 (r=1) 863 (r>1)
Mapping LAMMPS atom type #1(H) -> ACE species type #0
Mapping LAMMPS atom type #2(O) -> ACE species type #1
Loading ASI /home/cicn/cicn607503/pd/pot_dir/interim_potential_ladder_step_5.asi
LINEAR ASI is loaded
Switching to 'neigh_modify every 1 delay 0 check yes' setting during minimization
Neighbor list info ...
  update: every = 1 steps, delay = 0 steps, check = yes
  max neighbors/atom: 2000, page size: 100000
  master list distance cutoff = 6.5
  ghost atom cutoff = 6.5
  binsize = 6.5, bins = 3 4 4
  1 neighbor lists, perpetual/occasional/extra = 1 0 0
  (1) pair pace/extrapolation/kk, perpetual
      attributes: full, newton on, kokkos_device
      pair build: full/bin/kk/device
      stencil: full/bin/3d
      bin: kk/device
Setting up cg/kk style minimization ...
  Unit style    : metal
  Current step  : 0
WARNING: Fix with atom-based arrays not compatible with sending data in Kokkos communication, switching to classic exchange/border communication (src/KOKKOS/comm_kokkos.cpp:666)
WARNING: Fix with atom-based arrays not compatible with Kokkos sorting on device, switching to classic host sorting (src/KOKKOS/atom_kokkos.cpp:218)
Per MPI rank memory allocation (min/avg/max) = 449.3 | 453 | 456.7 Mbytes
   Step         TotEng         PotEng         KinEng         Press           Temp          Volume        Density     c_max_pace_gamma
         0  -4180.2701     -4180.2701      0              309.14185      0              9556.7825      0.90151666     0.58778246   
       100  -4182.3963     -4182.3963      0             -6479.0667      0              9556.7825      0.90151666     0.58778246   
       174  -4182.3964     -4182.3964      0             -6480.3888      0              9556.7825      0.90151666     0.58778246   
Loop time of 0.622122 on 2 procs for 174 steps with 864 atoms

99.6% CPU use with 2 MPI tasks x 1 OpenMP threads

Minimization stats:
  Stopping criterion = force tolerance
  Energy initial, next-to-last, final = 
      -4180.2701144618  -4182.39644829382  -4182.39644830578
  Force two-norm initial, final = 6.6050737 0.00039957885
  Force max component initial, final = 0.28115465 3.2573508e-05
  Final line search alpha, max atom move = 1 3.2573508e-05
  Iterations, force evaluations = 174 348

MPI task timing breakdown:
Section |  min time  |  avg time  |  max time  |%varavg| %total
---------------------------------------------------------------
Pair    | 0.42669    | 0.42814    | 0.42959    |   0.2 | 68.82
Neigh   | 0.00043961 | 0.0004748  | 0.00051    |   0.0 |  0.08
Comm    | 0.063133   | 0.064563   | 0.065993   |   0.6 | 10.38
Output  | 0.00015585 | 0.00015643 | 0.00015701 |   0.0 |  0.03
Modify  | 0.08157    | 0.082302   | 0.083034   |   0.3 | 13.23
Other   |            | 0.04649    |            |       |  7.47

Nlocal:            432 ave         433 max         431 min
Histogram: 1 0 0 0 0 0 0 0 0 1
Nghost:           2186 ave        2191 max        2181 min
Histogram: 1 0 0 0 0 0 0 0 0 1
Neighs:              0 ave           0 max           0 min
Histogram: 2 0 0 0 0 0 0 0 0 0
FullNghs:        46055 ave       46168 max       45942 min
Histogram: 1 0 0 0 0 0 0 0 0 1

Total # of neighbors = 92110
Ave neighs/atom = 106.6088
Neighbor list builds = 1
Dangerous builds = 0
Setting up Verlet run ...
  Unit style    : metal
  Current step  : 174
  Time step     : 0.0005
WARNING: Fix with atom-based arrays not compatible with sending data in Kokkos communication, switching to classic exchange/border communication (src/KOKKOS/comm_kokkos.cpp:666)
WARNING: Fix with atom-based arrays not compatible with Kokkos sorting on device, switching to classic host sorting (src/KOKKOS/atom_kokkos.cpp:218)
Per MPI rank memory allocation (min/avg/max) = 454.1 | 455.3 | 456.4 Mbytes
   Step         TotEng         PotEng         KinEng         Press           Temp          Volume        Density     c_max_pace_gamma
       174  -4150.0465     -4182.3964      32.349936     -2864.7851      290            9556.7825      0.90151666     0.58778246   
       200  -4148.3707     -4161.5498      13.179103      527.87893      118.14366      9553.9314      0.90178569     0.58778246   
       300  -4141.338      -4161.494       20.156003     -254.61168      180.68787      9509.6594      0.90598392     0.58778246   
       400  -4134.4279     -4157.538       23.110141      124.65581      207.17014      9421.5349      0.91445807     0.58778246   
       500  -4129.6852     -4154.6168      24.931638     -1706.1027      223.4989       9311.4617      0.92526811     0.58778246   
       600  -4127.8909     -4155.291       27.400112      2843.3563      245.62746      9208.9422      0.93556875     0.58778246   
       700  -4125.7274     -4154.2026      28.47522       3384.413       255.26523      9143.2099      0.94229474     0.58778246   
       800  -4124.1877     -4152.8374      28.649706      1122.4451      256.8294       9131.7795      0.94347423     0.58778246   
       900  -4123.1387     -4152.1782      29.039516      2271.1596      260.32384      9179.1113      0.93860923     0.58778246   
      1000  -4121.9561     -4151.7153      29.759197      1796.0776      266.7754       9271.7764      0.92922847     0.77130498   
      1100  -4120.8674     -4150.4762      29.608876      1430.6867      265.42785      9385.4574      0.91797323     0.77130498   
      1200  -4120.9087     -4149.823       28.91435      -2893.0436      259.20179      9497.2845      0.90716442     0.77130498   
      1300  -4121.2335     -4150.6521      29.418652     -2397.5004      263.72259      9588.9932      0.89848834     0.77130498   
      1400  -4120.3689     -4150.939       30.570145     -618.99466      274.04512      9648.0934      0.89298458     0.77130498   
      1500  -4119.7147     -4149.5527      29.837998     -42.293255      267.4818       9668.4353      0.89110578     0.77130498   
      1600  -4118.321      -4148.0746      29.753643     -824.51959      266.72561      9653.121       0.89251949     0.77130498   
      1700  -4118.5904     -4149.7629      31.172509     -2493.236       279.44499      9612.5475      0.89628671     0.77130498   
      1800  -4118.6564     -4148.7554      30.098984     -2740.0684      269.8214       9554.7118      0.90171203     0.77130498   
      1900  -4117.9138     -4147.8174      29.903552      1470.1487      268.06946      9489.9531      0.90786524     0.77130498   
      2000  -4118.3441     -4149.769       31.424861      1330.3376      281.70719      9430.7125      0.91356816     0.7744705    
      2100  -4117.7822     -4148.7432      30.960998      1736.9527      277.5489       9385.5378      0.91796536     0.7744705    
      2200  -4117.5575     -4148.374       30.816461     -82.137318      276.2532       9360.0432      0.92046569     0.7744705    
      2300  -4116.5705     -4147.7055      31.135026      1517.3687      279.10897      9359.1598      0.92055257     0.7744705    
      2400  -4117.6718     -4148.9746      31.302794      1080.3535      280.61292      9383.1195      0.91820194     0.7744705    
      2500  -4117.3029     -4148.3588      31.055868      516.27021      278.39937      9423.5136      0.91426605     0.7744705    
      2600  -4115.674      -4148.4931      32.819086     -360.90992      294.20567      9476.1551      0.90918716     0.7744705    
      2700  -4116.2712     -4148.9491      32.677822      1249.4173      292.93932      9532.2205      0.90383963     0.7744705    
      2800  -4114.5073     -4146.8671      32.359708     -207.539        290.0876       9582.9974      0.8990505      0.7744705    
      2900  -4113.9893     -4146.3889      32.399624     -2323.5841      290.44542      9621.5469      0.89544838     0.7744705    
      3000  -4113.5488     -4146.0035      32.454728     -260.45243      290.9394       9641.831       0.89356458     0.85538897   
      3100  -4113.3496     -4146.5257      33.176097     -614.74179      297.40609      9643.0358      0.89345293     0.85538897   
      3200  -4114.5025     -4146.9088      32.406291      140.11384      290.50519      9626.9902      0.89494207     0.85538897   
      3300  -4113.7646     -4146.5133      32.748655      1361.7981      293.5743       9594.7158      0.89795245     0.85538897   
      3400  -4113.5721     -4146.9946      33.422472      1342.2297      299.61471      9549.3872      0.90221481     0.85538897   
      3500  -4113.4148     -4146.0904      32.675644      130.70589      292.9198       9495.9639      0.90729057     0.85538897   
      3600  -4113.1997     -4146.9631      33.763432      652.07932      302.67124      9450.2413      0.91168028     0.85538897   
      3700  -4112.6581     -4146.8731      34.215011      3755.4723      306.7194       9426.1489      0.91401045     0.85538897   
      3800  -4112.3797     -4146.403       34.023302     -450.73155      305.00083      9429.3692      0.9136983      0.85538897   
      3900  -4113.6951     -4146.648       32.952994      1082.7484      295.40609      9456.6891      0.91105867     0.85538897   
      4000  -4114.6203     -4147.9567      33.336356      2081.6369      298.84272      9503.8693      0.90653589     0.84372246   
      4100  -4112.6915     -4145.326       32.634487     -3097.3513      292.55084      9563.549       0.9008788      0.84372246   
      4200  -4115.1698     -4146.7705      31.600757     -1628.0563      283.284        9624.3854      0.89518428     0.84372246   
      4300  -4115.6431     -4147.2675      31.624465     -156.56928      283.49653      9672.6831      0.89071445     0.84372246   
      4400  -4113.9547     -4146.4376      32.482982     -1234.366       291.19268      9694.8949      0.88867374     0.84372246   
      4500  -4114.3674     -4145.8032      31.435793     -2009.6422      281.80519      9691.5362      0.88898173     0.84372246   
      4600  -4114.8945     -4146.8818      31.987284      125.20715      286.74902      9666.3058      0.89130209     0.84372246   
      4700  -4115.692      -4146.334       30.641983      465.77834      274.6891       9617.9616      0.89578218     0.84372246   
      4800  -4115.4976     -4147.6387      32.141106     -912.62511      288.12795      9555.944       0.90159576     0.84372246   
      4900  -4116.151      -4148.0416      31.890582     -1039.4731      285.88214      9494.4341      0.90743677     0.84372246   
      5000  -4115.7117     -4147.9731      32.261309      1422.3976      289.2055       9440.7399      0.91259781     0.76951661   
      5100  -4116.7786     -4148.4527      31.674047      831.63099      283.94101      9411.1691      0.91546528     0.76951661   
      5200  -4117.4849     -4149.9109      32.426063      1407.6528      290.68243      9407.901       0.9157833      0.76951661   
      5300  -4118.1787     -4148.9593      30.780625      2418.6172      275.93196      9429.0901      0.91372534     0.76951661   
      5400  -4116.4785     -4147.0647      30.586143      1033.1238      274.18853      9471.3469      0.90964872     0.76951661   
      5500  -4116.2892     -4148.0437      31.754496      1890.8185      284.66219      9525.2374      0.90450224     0.76951661   
      5600  -4116.1452     -4147.7938      31.648587      812.13146      283.71277      9583.8183      0.89897349     0.76951661   
      5700  -4116.0792     -4146.9463      30.867078     -521.74948      276.70696      9635.1637      0.89418289     0.76951661   
      5800  -4115.1579     -4147.377       32.219133      124.08367      288.82741      9671.0459      0.89086523     0.76951661   
      5900  -4114.7805     -4146.9283      32.147755     -448.92345      288.18755      9690.523       0.88907468     0.76951661   
      6000  -4114.1989     -4147.3232      33.124286     -3688.5714      296.94164      9693.7019      0.88878312     0.84696518   
      6100  -4114.3742     -4146.4663      32.092106     -479.69366      287.68869      9678.2354      0.89020345     0.84696518   
      6200  -4113.2585     -4145.8612      32.602722     -150.85248      292.26609      9649.334       0.89286977     0.84696518   
      6300  -4114.0983     -4147.2246      33.126346      1358.5779      296.9601       9609.1114      0.89660721     0.84696518   
      6400  -4113.2705     -4146.7203      33.449776     -1068.3952      299.85948      9566.1288      0.90063586     0.84696518   
      6500  -4114.078      -4147.0323      32.954267     -148.25338      295.41751      9527.9311      0.90424653     0.84696518   
      6600  -4113.693      -4146.1936      32.500601     -355.37883      291.35063      9495.5663      0.90732856     0.84696518   
      6700  -4113.9497     -4146.7542      32.804555      1817.8031      294.07542      9473.6569      0.90942692     0.84696518   
      6800  -4113.9263     -4147.9544      34.028183      2737.5049      305.04458      9473.1021      0.90948018     0.84696518   
      6900  -4115.4426     -4147.3374      31.894815      2094.1613      285.92008      9496.6244      0.90722748     0.84696518   
      7000  -4114.5098     -4146.1628      31.653036     -166.23556      283.75266      9536.838       0.90340201     0.90319002   
      7100  -4114.4507     -4147.3612      32.910474     -4914.7019      295.02492      9591.4811      0.89825528     0.90319002   
      7200  -4114.3013     -4146.3042      32.00295      -1232.7797      286.88945      9650.5877      0.89275378     0.90319002   
      7300  -4114.4991     -4147.4813      32.982187      1857.1949      295.66779      9706.3699      0.88762314     0.90319002   
      7400  -4115.8502     -4148.8148      32.964623      2109.9027      295.51034      9747.3074      0.88389524     0.90319002   
      7500  -4116.1479     -4148.1321      31.984206     -72.200422      286.72142      9762.7923      0.88249328     0.90319002   
      7600  -4115.3013     -4146.142       30.840762     -1386.1369      276.47105      9745.8771      0.88402496     0.90319002   
      7700  -4116.0866     -4146.5272      30.440645     -1394.7914      272.88422      9697.2421      0.88845865     0.90319002   
      7800  -4116.6289     -4148.5108      31.881913      1433.8433      285.80442      9622.2491      0.89538303     0.90319002   
      7900  -4117.0605     -4147.269       30.20853       1397.7351      270.80342      9532.0043      0.90386012     0.90319002   
      8000  -4116.8121     -4148.4675      31.655426     -563.61515      283.77408      9444.9325      0.91219271     0.79768977   
      8100  -4116.2222     -4148.3803      32.158074      2463.0888      288.28006      9376.1947      0.91888008     0.79768977   
      8200  -4116.2569     -4148.0338      31.776937      1092.5658      284.86336      9339.2044      0.92251954     0.79768977   
      8300  -4115.5812     -4149.8379      34.256719      1537.5844      307.09329      9343.7183      0.92207388     0.79768977   
      8400  -4116.364      -4148.6097      32.245748     -128.4099       289.06601      9389.322       0.91759539     0.79768977   
      8500  -4117.1113     -4149.3469      32.235672     -1580.8397      288.97568      9464.3409      0.91032209     0.79768977   
      8600  -4115.9015     -4148.597       32.695558      1361.3497      293.09832      9553.8441      0.90179393     0.79768977   
      8700  -4115.5295     -4147.826       32.296513     -1126.6384      289.52109      9645.5365      0.89322129     0.79768977   
      8800  -4115.9534     -4146.2236      30.270161     -3233.8654      271.35591      9719.2482      0.88644702     0.79768977   
      8900  -4115.2802     -4146.062       30.781772     -2065.9032      275.94224      9765.7298      0.88222783     0.79768977   
      9000  -4114.2747     -4145.6734      31.398696     -2871.6574      281.47264      9776.5793      0.88124878     0.8459348    
      9100  -4113.4358     -4146.0733      32.637558     -2568.8461      292.57838      9752.536       0.88342135     0.8459348    
      9200  -4112.8063     -4145.8347      33.028355     -1155.6208      296.08166      9703.618       0.88787487     0.8459348    
      9300  -4112.8216     -4146.1614      33.339828     -1137.4408      298.87385      9638.6339      0.89386097     0.8459348    
      9400  -4112.1657     -4146.1964      34.030684      856.45659      305.06701      9565.8987      0.90065752     0.8459348    
      9500  -4113.4321     -4148.8291      35.397041      2314.9119      317.31568      9502.8497      0.90663315     0.8459348    
      9600  -4114.2229     -4147.4359      33.213008      1942.3594      297.73698      9454.0861      0.91130951     0.8459348    
      9700  -4113.7484     -4148.1313      34.382955      1098.2502      308.22493      9429.5241      0.91368329     0.8459348    
      9800  -4113.5046     -4146.6833      33.178613      809.10752      297.42864      9435.5797      0.9130969      0.8459348    
      9900  -4114.6354     -4147.5392      32.903864      1946.445       294.96567      9468.8746      0.90988623     0.8459348    
     10000  -4114.9671     -4147.5398      32.572656      1795.3189      291.99656      9519.6821      0.90503007     0.83703114   
     10100  -4114.9454     -4147.5999      32.654485      2159.9299      292.73011      9577.754       0.89954269     0.83703114   
     10200  -4115.8221     -4147.9993      32.177214      593.27299      288.45163      9631.1156      0.89455874     0.83703114   
     10300  -4114.5326     -4147.5682      33.035616     -3018.991       296.14676      9671.7981      0.89079595     0.83703114   
     10400  -4114.1767     -4147.0243      32.847639      954.74644      294.46164      9695.7251      0.88859766     0.83703114   
     10500  -4114.2125     -4146.4177      32.205222     -789.99368      288.70271      9701.6219      0.88805755     0.83703114   
     10600  -4113.5166     -4145.8343      32.317659     -2945.331       289.71065      9684.2963      0.88964632     0.83703114   
     10700  -4113.3069     -4145.7854      32.478523     -1761.9425      291.15271      9647.3075      0.89305732     0.83703114   
     10800  -4113.1446     -4145.83        32.685468      1952.805       293.00786      9599.9763      0.8974604      0.83703114   
     10900  -4113.6783     -4145.9549      32.276566      1774.8065      289.34227      9554.3029      0.90175062     0.83703114   
     11000  -4114.3519     -4147.4139      33.061967      554.93117      296.38298      9516.6688      0.90531664     0.874032     
     11100  -4115.6028     -4147.9214      32.31862       282.73179      289.71926      9495.0264      0.90738016     0.874032     
     11200  -4115.258      -4148.1117      32.853729      1585.1025      294.51623      9488.7464      0.9079807      0.874032     
     11300  -4115.4917     -4147.0934      31.601653     -1615.5938      283.29204      9496.1364      0.90727409     0.874032     
     11400  -4115.0925     -4147.4162      32.323677     -1973.4436      289.7646       9518.0644      0.90518389     0.874032     
     11500  -4114.7364     -4147.4784      32.74192       3458.8544      293.51393      9550.3017      0.90212842     0.874032     
     11600  -4113.0534     -4146.4127      33.359227      1499.2756      299.04775      9592.0638      0.89820072     0.874032     
     11700  -4113.5399     -4145.9593      32.41938      -4354.0915      290.62253      9636.3014      0.89407732     0.874032     
     11800  -4113.1146     -4146.9974      33.882818     -819.84616      303.74147      9673.8116      0.89061054     0.874032     
     11900  -4113.5154     -4146.7888      33.273372      786.59128      298.27811      9699.6106      0.88824169     0.874032     
     12000  -4112.8353     -4146.1485      33.313218      489.06121      298.63531      9703.5767      0.88787865     0.81829528   
     12100  -4111.692      -4144.829       33.136995      1490.5874      297.05556      9690.7012      0.88905832     0.81829528   
     12200  -4111.2555     -4145.1146      33.859104     -3046.8865      303.52889      9665.0103      0.89142157     0.81829528   
     12300  -4111.7942     -4146.1015      34.307386     -1852.158       307.54749      9625.6041      0.89507095     0.81829528   
     12400  -4111.5696     -4145.6494      34.079812      1738.1691      305.50741      9579.4052      0.89938764     0.81829528   
     12500  -4111.3752     -4145.5356      34.160378     -398.22973      306.22965      9539.6389      0.90313676     0.81829528   
     12600  -4112.2939     -4145.0741      32.780178      627.14785      293.85689      9513.5889      0.90560972     0.81829528   
     12700  -4115.2597     -4148.1529      32.893117     -970.57722      294.86932      9503.2468      0.90659527     0.81829528   
     12800  -4115.7554     -4147.9682      32.212847      1481.7655      288.77107      9503.7311      0.90654907     0.81829528   
     12900  -4116.2399     -4148.3431      32.10329       702.08752      287.78895      9512.7662      0.90568804     0.81829528   
     13000  -4117.6325     -4147.657       30.024497      228.71715      269.15367      9524.7402      0.90454946     0.84028472   
     13100  -4117.7899     -4149.0933      31.303452     -3777.9034      280.61882      9537.8996      0.90330145     0.84028472   
     13200  -4116.8518     -4148.3151      31.463258      1456.3204      282.0514       9549.6574      0.90218929     0.84028472   
     13300  -4116.494      -4149.0833      32.589229      1925.7559      292.14513      9558.6702      0.90133862     0.84028472   
     13400  -4117.28       -4147.5543      30.274251      1429.8981      271.39259      9561.2947      0.90109121     0.84028472   
     13500  -4117.7115     -4148.9929      31.281372      1057.2399      280.42089      9559.4892      0.9012614      0.84028472   
     13600  -4116.0322     -4149.4097      33.377461      1091.5459      299.21121      9551.153       0.90204802     0.84028472   
     13700  -4115.2641     -4148.0249      32.760868     -1713.1572      293.68379      9539.2305      0.90317543     0.84028472   
     13800  -4115.2549     -4147.7997      32.544808      1767.6054      291.74692      9526.3585      0.9043958      0.84028472   
     13900  -4115.7829     -4147.5274      31.744586      610.56312      284.57335      9515.8466      0.90539486     0.84028472   
     14000  -4116.1942     -4147.9554      31.761231     -113.16595      284.72257      9508.1282      0.90612983     0.79050015   
     14100  -4114.8594     -4147.2795      32.420162     -6.7747611      290.62954      9508.716       0.90607382     0.79050015   
     14200  -4115.4303     -4147.6612      32.230938     -166.16351      288.93324      9517.347       0.90525212     0.79050015   
     14300  -4115.7736     -4147.423       31.649359      1874.6832      283.71969      9534.1761      0.90365423     0.79050015   
     14400  -4116.222      -4148.3274      32.105332     -1171.6532      287.80725      9552.5736      0.90191386     0.79050015   
     14500  -4116.5553     -4148.0153      31.459938      641.11405      282.02164      9568.1281      0.90044767     0.79050015   
     14600  -4116.6254     -4147.8216      31.196266     -1258.4146      279.65795      9579.8507      0.89934581     0.79050015   
     14700  -4117.1497     -4148.7586      31.608912      1455.1296      283.3571       9585.5455      0.89881151     0.79050015   
     14800  -4116.0043     -4146.9153      30.910983      247.8592       277.10055      9580.0156      0.89933033     0.79050015   
     14900  -4115.6299     -4147.5718      31.941877     -388.72587      286.34196      9564.05        0.90083161     0.79050015   
     15000  -4115.242      -4148.1887      32.946704      100.49807      295.3497       9539.8646      0.90311539     0.84714283   
     15100  -4114.598      -4146.4374      31.839333      5117.484       285.42271      9514.4146      0.90553113     0.84714283   
     15200  -4115.4503     -4147.873       32.422756     -992.6558       290.65279      9499.8017      0.90692405     0.84714283   
     15300  -4114.5461     -4146.6461      32.099992      63.33106       287.75938      9491.6966      0.90769848     0.84714283   
     15400  -4114.1565     -4147.5594      33.402968     -683.17871      299.43987      9492.7532      0.90759745     0.84714283   
     15500  -4114.0488     -4147.1425      33.093683      767.72943      296.66729      9505.2927      0.90640014     0.84714283   
     15600  -4113.8873     -4147.0161      33.12887       2953.8127      296.98272      9529.3413      0.90411271     0.84714283   
     15700  -4113.8826     -4146.356       32.473426      431.01768      291.10702      9563.7144      0.90086323     0.84714283   
     15800  -4113.6554     -4146.4573      32.801879      721.70808      294.05143      9599.7804      0.89747872     0.84714283   
     15900  -4113.7711     -4147.2745      33.503372     -638.358        300.33994      9625.4387      0.89508633     0.84714283   
     16000  -4114.7806     -4147.2287      32.448168     -1169.8397      290.88059      9642.9959      0.89345663     0.91269714   
     16100  -4114.2083     -4147.293       33.08471      -1223.9841      296.58685      9643.0418      0.89345238     0.91269714   
     16200  -4114.1995     -4146.7654      32.565864     -2698.4348      291.93568      9623.847       0.89523437     0.91269714   
     16300  -4113.7782     -4145.6625      31.884256     -684.39416      285.82542      9586.4377      0.89872785     0.91269714   
     16400  -4114.2631     -4146.6278      32.364782     -628.12509      290.13308      9538.1439      0.90327832     0.91269714   
     16500  -4115.0252     -4147.3027      32.277432     -558.65044      289.35004      9485.7806      0.90826459     0.91269714   
     16600  -4115.9599     -4148.7298      32.76986       1618.8039      293.76439      9441.277       0.9125459      0.91269714   
     16700  -4116.6573     -4148.3311      31.673785      457.23102      283.93866      9412.7713      0.91530946     0.91269714   
     16800  -4117.5636     -4148.5523      30.988683     -403.85509      277.79709      9404.5866      0.91610604     0.91269714   
     16900  -4116.3722     -4148.0176      31.645373      4868.1692      283.68397      9415.1817      0.91507513     0.91269714   
     17000  -4117.0315     -4148.8814      31.849805     -680.78154      285.51659      9450.2334      0.91168104     0.79970167   
     17100  -4117.8326     -4149.4414      31.608825     -1405.2797      283.35633      9502.018       0.90671251     0.79970167   
     17200  -4118.8304     -4148.3748      29.544394      1564.5302      264.84981      9555.7492      0.90161413     0.79970167   
     17300  -4118.1871     -4147.8646      29.677488      539.41864      266.04292      9599.2892      0.89752464     0.79970167   
     17400  -4116.9018     -4148.5762      31.674488     -1521.4827      283.94496      9626.5698      0.89498116     0.79970167   
     17500  -4116.7159     -4148.3023      31.586391     -1853.5408      283.15522      9635.7756      0.89412612     0.79970167   
     17600  -4116.4025     -4148.7458      32.34337      -531.95222      289.94113      9629.5664      0.89470265     0.79970167   
     17700  -4115.7884     -4146.4326      30.644197      1583.3677      274.70895      9606.1741      0.89688137     0.79970167   
     17800  -4116.3099     -4147.9277      31.617782     -1740.9066      283.43663      9571.5759      0.90012331     0.79970167   
     17900  -4115.7637     -4147.5338      31.770154     -1094.0613      284.80255      9528.8739      0.90415706     0.79970167   
     18000  -4115.4849     -4148.1394      32.65455       3055.2016      292.7307       9492.257       0.90764489     0.79777466   
     18100  -4115.0246     -4147.6732      32.648584      1505.7467      292.67722      9467.8252      0.90998708     0.79777466   
     18200  -4115.588      -4147.9236      32.335605      519.23928      289.87153      9455.998       0.91112525     0.79777466   
     18300  -4116.1383     -4147.9216      31.783227     -1291.9571      284.91975      9457.5862      0.91097225     0.79777466   
     18400  -4114.8986     -4147.6147      32.716089      482.21688      293.28236      9468.8256      0.90989094     0.79777466   
     18500  -4113.7226     -4147.4147      33.692062      5416.954       302.03144      9486.7083      0.90817577     0.79777466   
     18600  -4114.9213     -4147.4942      32.572962      999.86029      291.9993       9515.0568      0.90547002     0.79777466   
     18700  -4114.4544     -4147.7584      33.304019      254.86497      298.55284      9547.7485      0.90236966     0.79777466   
     18800  -4115.9365     -4146.8391      30.902609      934.9649       277.02547      9575.902       0.89971667     0.79777466   
     18900  -4115.4986     -4147.7446      32.246026     -245.74467      289.06849      9595.8094      0.89785012     0.79777466   
     19000  -4115.8023     -4147.1338      31.331535      1071.2244      280.87057      9605.7131      0.89692441     0.82754374   
     19100  -4115.3965     -4147.5306      32.134023      678.91435      288.06445      9604.3946      0.89704754     0.82754374   
     19200  -4115.4822     -4147.9119      32.429758     -3491.6079      290.71555      9595.7751      0.89785333     0.82754374   
     19300  -4115.4097     -4147.495       32.085292     -2004.192       287.6276       9580.2245      0.89931072     0.82754374   
     19400  -4115.4546     -4146.8384      31.38375      -2563.4116      281.33866      9561.9824      0.90102641     0.82754374   
     19500  -4115.2881     -4147.165       31.876922      1081.2713      285.75968      9540.6081      0.90304501     0.82754374   
     19600  -4116.0978     -4147.9484      31.850596      591.68436      285.52368      9518.921       0.90510243     0.82754374   
     19700  -4114.8364     -4147.8936      33.057249     -1706.1564      296.34068      9501.9383      0.90672012     0.82754374   
     19800  -4114.4628     -4147.0081      32.545299      437.24711      291.75132      9493.2076      0.90755401     0.82754374   
     19900  -4112.6412     -4145.9024      33.261243      463.66745      298.16938      9494.2014      0.907459       0.82754374   
     20000  -4114.3495     -4146.1054      31.755884      3157.3088      284.67464      9507.3303      0.90620588     0.78467644   
     20100  -4114.1678     -4146.8522      32.68445       3005.331       292.99874      9529.8794      0.90406166     0.78467644   
     20200  -4112.6266     -4146.7218      34.095155      82.214363      305.64496      9561.1942      0.90110068     0.78467644   
     20300  -4112.3959     -4145.7595      33.363638      1547.9619      299.0873       9595.7813      0.89785274     0.78467644   
     20400  -4113.0621     -4146.0223      32.96023      -2072.5065      295.47096      9629.0678      0.89474898     0.78467644   
     20500  -4113.3172     -4145.4593      32.142098     -660.27865      288.13684      9654.0049      0.89243777     0.78467644   
     20600  -4114.2088     -4145.9973      31.788542     -421.94423      284.9674       9662.7756      0.89162772     0.78467644   
     20700  -4114.5961     -4145.9727      31.376633     -1166.5986      281.27485      9651.9375      0.89262892     0.78467644   
     20800  -4115.0351     -4146.8156      31.780452     -793.32751      284.89487      9621.8316      0.89542189     0.78467644   
     20900  -4114.2965     -4146.8852      32.588644     -2018.354       292.13989      9577.3276      0.89958274     0.78467644   
     21000  -4113.9404     -4146.5564      32.615942     -876.95091      292.3846       9522.204       0.90479038     0.78433111   
     21100  -4114.6493     -4146.4085      31.759238      417.63211      284.7047       9464.4511      0.9103115      0.78433111   
     21200  -4115.3886     -4147.8434      32.454864     -1703.8569      290.94062      9416.9663      0.91490171     0.78433111   
     21300  -4114.4376     -4147.5276      33.089969      2080.6915      296.634        9389.1055      0.91761655     0.78433111   
     21400  -4115.1503     -4147.3431      32.192755      3427.3157      288.59095      9386.1993      0.91790066     0.78433111   
     21500  -4114.4517     -4147.6525      33.200817      3733.5818      297.62769      9411.5191      0.91543124     0.78433111   
     21600  -4115.1328     -4147.9759      32.843098     -914.1953       294.42093      9462.0279      0.91054462     0.78433111   
     21700  -4113.7208     -4145.036       31.315157      696.31208      280.72375      9522.3988      0.90477187     0.78433111   
     21800  -4114.2342     -4146.258       32.023767      49.390664      287.07606      9588.4268      0.89854142     0.78433111   
     21900  -4113.162      -4146.0382      32.876141     -48.17169       294.71715      9647.4234      0.89304659     0.78433111   
     22000  -4114.2038     -4147.1869      32.983074      94.567993      295.67574      9691.1366      0.88901839     0.82972882   
     22100  -4114.9689     -4147.2811      32.3122       -1522.8098      289.66172      9711.705       0.88713553     0.82972882   
     22200  -4114.9434     -4146.6939      31.750519     -4414.9378      284.62654      9702.0383      0.88801944     0.82972882   
     22300  -4115.6095     -4147.9399      32.330361     -2006.6688      289.82451      9664.0694      0.89150835     0.82972882   
     22400  -4115.9327     -4147.9301      31.997472     -495.15337      286.84034      9606.4784      0.89685296     0.82972882   
     22500  -4115.2978     -4147.8515      32.55374      -639.0786       291.82699      9542.6953      0.9028475      0.82972882   
     22600  -4114.8148     -4146.685       31.870268      2105.6078      285.70003      9481.1867      0.90870467     0.82972882   
     22700  -4114.4496     -4146.215       31.765336     -1895.6463      284.75937      9431.989       0.91344451     0.82972882   
     22800  -4114.9257     -4146.6133      31.687677      3928.2785      284.0632       9403.2393      0.9162373      0.82972882   
     22900  -4115.1193     -4147.4163      32.297012      936.42215      289.52556      9398.332       0.91671571     0.82972882   
     23000  -4114.0874     -4147.8255      33.738013      1171.3885      302.44336      9419.8126      0.91462527     0.78834996   
     23100  -4113.4904     -4146.5685      33.078089      153.70058      296.5275       9459.9097      0.9107485      0.78834996   
     23200  -4112.9567     -4146.7606      33.803915      405.82916      303.03414      9509.4414      0.9060047      0.78834996   
     23300  -4112.4106     -4145.7811      33.370521     -2158.9022      299.149        9560.1326      0.90120075     0.78834996   
     23400  -4113.1484     -4145.6169      32.468464     -1218.9245      291.06253      9602.8149      0.89719512     0.78834996   
     23500  -4113.5923     -4146.1809      32.588627     -645.93035      292.13974      9628.7341      0.89477999     0.78834996   
     23600  -4113.8218     -4146.8123      32.990505     -239.05695      295.74236      9637.4226      0.89397331     0.78834996   
     23700  -4113.5394     -4146.8728      33.333424      1151.0449      298.81645      9627.9425      0.89485356     0.78834996   
     23800  -4113.4643     -4146.2338      32.769499     -3992.2915      293.76115      9606.9278      0.896811       0.78834996   
     23900  -4112.366      -4146.1757      33.809722     -1892.7531      303.0862       9580.1231      0.89932024     0.78834996   
     24000  -4111.0283     -4145.4859      34.457559      1459.6003      308.89371      9554.0143      0.90177786     0.75925454   
     24100  -4111.369      -4145.5358      34.166786     -417.91763      306.28709      9533.2147      0.90374536     0.75925454   
     24200  -4112.0616     -4145.5938      33.532179      2513.8616      300.59818      9517.8712      0.90520226     0.75925454   
     24300  -4112.6437     -4146.6478      34.004142      776.79977      304.82907      9506.857       0.90625099     0.75925454   
     24400  -4113.5077     -4147.1387      33.631085     -769.86608      301.48481      9502.666       0.90665068     0.75925454   
     24500  -4113.5287     -4145.3619      31.833162     -502.55506      285.36739      9502.6405      0.90665311     0.75925454   
     24600  -4113.0294     -4145.8117      32.782344      2096.9344      293.87631      9505.1165      0.90641694     0.75925454   
     24700  -4112.7801     -4146.2061      33.426002      80.335357      299.64635      9510.9631      0.90585974     0.75925454   
     24800  -4113.538      -4146.2191      32.68109       2457.6604      292.96862      9521.4984      0.90485743     0.75925454   
     24900  -4113.427      -4145.5333      32.106284     -1610.5201      287.81578      9534.461       0.90362723     0.75925454   
     25000  -4114.65       -4147.2416      32.591613      604.31974      292.1665       9546.9465      0.90244546     0.87247473   
     25100  -4113.945      -4146.9432      32.99823      -102.62217      295.81161      9558.4792      0.90135663     0.87247473   
     25200  -4113.7327     -4145.8881      32.155413      266.14429      288.2562       9565.6332      0.90068252     0.87247473   
     25300  -4114.8506     -4146.4881      31.637461     -1009.9135      283.61304      9566.3636      0.90061375     0.87247473   
     25400  -4115.1326     -4148.3416      33.209059     -3241.5721      297.70157      9564.1361      0.90082351     0.87247473   
     25500  -4115.0564     -4146.4647      31.408271      5447.0143      281.55847      9558.4027      0.90136385     0.87247473   
     25600  -4114.7315     -4147.8584      33.126918      2194.5811      296.96523      9552.6647      0.90190527     0.87247473   
     25700  -4115.4159     -4147.6667      32.25079      -2296.5047      289.11121      9547.6203      0.90238178     0.87247473   
     25800  -4116.7607     -4148.0572      31.296474      1045.4104      280.55627      9541.7706      0.902935       0.87247473   
     25900  -4116.2296     -4148.1352      31.905557     -1834.6683      286.01637      9532.156       0.90384574     0.87247473   
     26000  -4116.0575     -4147.9941      31.936595      1696.3822      286.29461      9519.2717      0.90506909     0.82070742   
     26100  -4115.5406     -4147.203       31.662465      991.10306      283.83718      9507.7151      0.9061692      0.82070742   
     26200  -4116.9131     -4148.485       31.571818     -980.38632      283.02458      9500.1998      0.90688604     0.82070742   
     26300  -4116.6901     -4148.6134      31.923244      1469.4304      286.17493      9497.5755      0.90713662     0.82070742   
     26400  -4117.5037     -4148.2665      30.762858      1659.9669      275.77268      9501.2191      0.90678875     0.82070742   
     26500  -4116.5215     -4147.2902      30.768661     -1069.0707      275.8247       9510.6321      0.90589127     0.82070742   
     26600  -4116.1563     -4147.4357      31.279376      2663.3592      280.403        9526.7013      0.90436326     0.82070742   
     26700  -4116.5778     -4147.7267      31.148859     -45.97173       279.23297      9550.7012      0.90209068     0.82070742   
     26800  -4114.4063     -4146.2658      31.85951       97.266272      285.60358      9578.9677      0.89942871     0.82070742   
     26900  -4115.2771     -4147.9272      32.650114     -1673.2316      292.69093      9608.0279      0.89670833     0.82070742   
     27000  -4114.6015     -4147.0243      32.422761      2421.1959      290.65283      9631.4107      0.89453133     0.83033861   
     27100  -4114.0431     -4146.6806      32.637534     -138.67073      292.57816      9645.9085      0.89318684     0.83033861   
     27200  -4114.4337     -4146.6757      32.241956     -877.80953      289.03201      9650.2346      0.89278644     0.83033861   
     27300  -4114.4666     -4146.4318      31.965215     -1998.2371      286.55118      9644.1979      0.89334527     0.83033861   
     27400  -4114.4965     -4146.4438      31.947275      4792.1013      286.39035      9621.9385      0.89541193     0.83033861   
     27500  -4113.9984     -4148.1463      34.147877      1877.6161      306.11758      9585.6728      0.89879957     0.83033861   
     27600  -4113.0638     -4146.3686      33.30479       534.5292       298.55976      9544.2666      0.90269886     0.83033861   
     27700  -4112.5028     -4145.272       32.769259     -243.74573      293.759        9512.2662      0.90573564     0.83033861   
     27800  -4113.5154     -4146.6832      33.167757      596.2466       297.33133      9489.9871      0.907862       0.83033861   
     27900  -4113.8709     -4148.0152      34.144374      1916.5566      306.08618      9481.5459      0.90867024     0.83033861   
     28000  -4114.2147     -4146.8847      32.669963      1145.4142      292.86886      9483.392       0.90849336     0.80261639   
     28100  -4113.3703     -4145.8017      32.431396      354.07773      290.73024      9497.5263      0.90714133     0.80261639   
     28200  -4115.2099     -4147.469       32.259126     -520.48591      289.18593      9525.2357      0.90450241     0.80261639   
     28300  -4114.8443     -4146.3278      31.483462      1120.7951      282.23251      9557.8313      0.90141773     0.80261639   
     28400  -4113.9847     -4145.7904      31.805737     -3228.9993      285.12154      9591.2474      0.89827717     0.80261639   
     28500  -4112.5815     -4146.0959      33.514425     -944.45045      300.43902      9620.6883      0.89552829     0.80261639   
     28600  -4112.4264     -4144.8152      32.388772      4061.0674      290.34814      9641.5768      0.89358813     0.80261639   
     28700  -4112.7542     -4145.471       32.716733     -1125.4121      293.28814      9652.8169      0.8925476      0.80261639   
     28800  -4115.3631     -4146.6398      31.276694     -479.13461      280.37895      9654.0655      0.89243217     0.80261639   
     28900  -4114.7166     -4145.9501      31.233531     -68.496642      279.99201      9641.3129      0.89361259     0.80261639   
     29000  -4115.2831     -4149.0404      33.757318     -2015.0645      302.61643      9617.5616      0.89581944     0.81444906   
     29100  -4113.8194     -4146.9205      33.101178     -616.11703      296.73448      9586.4834      0.89872357     0.81444906   
     29200  -4112.3754     -4145.565       33.18966       603.69177      297.52767      9555.9545      0.90159477     0.81444906   
     29300  -4112.8794     -4146.0813      33.201917      1010.4156      297.63755      9530.3645      0.90401564     0.81444906   
     29400  -4113.0023     -4145.8679      32.8656       -2598.5593      294.62265      9508.872       0.90605896     0.81444906   
     29500  -4114.0493     -4145.6133      31.563975      3598.3799      282.95427      9498.7167      0.90702764     0.81444906   
     29600  -4113.5693     -4146.849       33.279646      2448.9335      298.33435      9501.376       0.90677378     0.81444906   
     29700  -4113.5264     -4147.0834      33.557021     -2057.4617      300.82087      9514.0223      0.90556847     0.81444906   
     29800  -4113.4398     -4146.7607      33.320926      304.95374      298.70441      9533.0033      0.9037654      0.81444906   
     29900  -4113.0681     -4145.4879      32.419777     -684.1278       290.62608      9557.2366      0.90147382     0.81444906   
     30000  -4112.1927     -4144.8758      32.683103     -1048.2995      292.98666      9583.1134      0.89903961     0.79525139   
     30100  -4113.0551     -4145.7209      32.66577      -758.80362      292.83128      9605.4311      0.89695074     0.79525139   
     30200  -4111.6847     -4146.8508      35.166057      1.5287226      315.24503      9618.1107      0.89576829     0.79525139   
     30300  -4111.825      -4145.6094      33.784353     -1050.4971      302.85878      9623.3636      0.89527933     0.79525139   
     30400  -4111.846      -4144.1867      32.34069      -1826.3024      289.91711      9620.6717      0.89552984     0.79525139   
     30500  -4112.8854     -4146.0313      33.145898     -613.61847      297.13538      9610.1639      0.89650901     0.79525139   
     30600  -4113.5118     -4146.7041      33.192263     -3222.6367      297.55101      9593.2541      0.89808927     0.79525139   
     30700  -4113.4717     -4146.4148      32.943144      2136.048       295.31779      9569.4723      0.90032118     0.79525139   
     30800  -4114.1116     -4146.1825      32.070922      171.20514      287.49878      9540.6424      0.90304177     0.79525139   
     30900  -4113.2126     -4146.3571      33.144502      1262.1116      297.12286      9513.2813      0.905639       0.79525139   
     31000  -4112.5001     -4146.4752      33.975127      1084.3032      304.56897      9496.5502      0.90723456     0.86828177   
     31100  -4112.4665     -4145.5769      33.11039       1346.118       296.81706      9488.9836      0.907958       0.86828177   
     31200  -4111.9331     -4145.0586      33.125514      1717.208       296.95264      9490.9283      0.90777196     0.86828177   
     31300  -4112.4589     -4146.2382      33.779266     -1292.7887      302.81318      9500.1149      0.90689415     0.86828177   
     31400  -4112.7159     -4146.9009      34.184968      1687.6412      306.45009      9516.2884      0.90535283     0.86828177   
     31500  -4113.3643     -4147.2081      33.843798      2679.2547      303.39167      9541.1794      0.90299095     0.86828177   
     31600  -4113.8514     -4146.3817      32.530328      1805.6786      291.61711      9572.7613      0.90001185     0.86828177   
     31700  -4113.5357     -4145.2905      31.754767     -164.9177       284.66462      9606.8222      0.89682086     0.86828177   
     31800  -4113.3655     -4145.7247      32.359219      412.24047      290.08321      9631.7225      0.89450237     0.86828177   
     31900  -4114.3304     -4145.9126      31.582195     -1462.1953      283.11761      9641.2767      0.89361594     0.86828177   
     32000  -4114.6202     -4147.6308      33.010664     -208.04227      295.92307      9633.5138      0.89433604     0.80339903   
     32100  -4114.6374     -4147.8266      33.189192     -2120.4352      297.52348      9610.9279      0.89643775     0.80339903   
     32200  -4114.0799     -4147.1482      33.068321     -3104.2739      296.43994      9576.6905      0.89964259     0.80339903   
     32300  -4113.5046     -4146.1797      32.675113      1472.5766      292.91504      9538.7001      0.90322565     0.80339903   
     32400  -4114.7038     -4147.613       32.909136      1156.9138      295.01292      9503.3899      0.90658162     0.80339903   
     32500  -4114.293      -4147.7381      33.44511      -41.906796      299.81765      9473.8424      0.90940911     0.80339903   
     32600  -4114.2588     -4147.1582      32.89941      -1599.5394      294.92573      9457.8249      0.91094926     0.80339903   
     32700  -4115.1712     -4147.1733      32.002072      1950.6759      286.88158      9456.2647      0.91109956     0.80339903   
     32800  -4115.3344     -4148.6828      33.34846       1449.3401      298.95124      9468.471       0.90992501     0.80339903   
     32900  -4114.1754     -4146.995       32.81959       542.99868      294.2102       9492.4262      0.90762871     0.80339903   
     33000  -4113.5338     -4145.9584      32.424595     -1765.2328      290.66927      9524.4798      0.90457419     0.80404759   
     33100  -4114.6082     -4146.5812      31.973038     -886.01302      286.62131      9555.8734      0.90160242     0.80404759   
     33200  -4115.5792     -4147.9836      32.40434       797.33234      290.4877       9580.6028      0.89927521     0.80404759   
     33300  -4115.6066     -4147.8999      32.293313     -1114.9463      289.4924       9595.9972      0.89783254     0.80404759   
     33400  -4114.6782     -4147.8298      33.151628     -150.65877      297.18674      9602.4002      0.89723386     0.80404759   
     33500  -4114.3125     -4147.849       33.536522     -2679.3162      300.63711      9603.8734      0.89709623     0.80404759   
     33600  -4115.1107     -4146.7657      31.654992     -2647.7157      283.77019      9597.4143      0.89769997     0.80404759   
     33700  -4114.4391     -4147.2299      32.790782      2114.0209      293.95194      9581.0872      0.89922974     0.80404759   
     33800  -4114.8879     -4146.9045      32.016575     -303.79673      287.01159      9559.3804      0.90127166     0.80404759   
     33900  -4115.2784     -4146.2543      30.975939     -3036.9457      277.68284      9535.8869      0.90349211     0.80404759   
     34000  -4115.3868     -4148.0584      32.671603     -233.31901      292.88357      9515.1902      0.90545731     0.81793324   
     34100  -4116.3704     -4148.4348      32.064451      1510.3322      287.44077      9500.0968      0.90689587     0.81793324   
     34200  -4116.6209     -4148.3805      31.759598      102.31748      284.70793      9493.7812      0.90749917     0.81793324   
     34300  -4116.5067     -4147.046       30.539335      1840.7975      273.76892      9490.5157      0.90781143     0.81793324   
     34400  -4116.1037     -4148.7718      32.66811      -1857.3682      292.85226      9493.382       0.90753733     0.81793324   
     34500  -4115.7367     -4147.4133      31.676601     -1104.2353      283.96391      9497.3145      0.90716155     0.81793324   
     34600  -4116.0433     -4147.7325      31.689194      2025.7627      284.07679      9504.0465      0.90651899     0.81793324   
     34700  -4116.3761     -4147.6258      31.24972      -35.183935      280.13715      9510.6275      0.90589171     0.81793324   
     34800  -4117.4343     -4149.9978      32.563464      1387.8878      291.91416      9519.0917      0.9050862      0.81793324   
     34900  -4118.9046     -4150.1907      31.286067     -1513.3177      280.46298      9526.4837      0.90438392     0.81793324   
     35000  -4118.8673     -4147.9297      29.062444     -1454.1777      260.52937      9528.5499      0.9041878      0.77443534   
     35100  -4117.3758     -4148.2384      30.862647     -1797.9946      276.66724      9526.2852      0.90440276     0.77443534   
     35200  -4117.8791     -4148.8106      30.931535      2148.0485      277.28479      9520.0547      0.90499465     0.77443534   
     35300  -4117.1183     -4148.2325      31.114126      181.06558      278.92162      9514.4661      0.90552623     0.77443534   
     35400  -4116.2857     -4148.1592      31.873502      1369.7196      285.72902      9509.4152      0.90600719     0.77443534   
     35500  -4115.1329     -4148.5487      33.41577      -2254.1941      299.55463      9507.8241      0.90615881     0.77443534   
     35600  -4116.0305     -4147.1361      31.105629      648.93148      278.84545      9508.7159      0.90607382     0.77443534   
     35700  -4115.3032     -4147.5715      32.268292      185.25849      289.2681       9511.5797      0.90580102     0.77443534   
     35800  -4115.8125     -4148.5796      32.767093      778.61202      293.73959      9517.5951      0.90522853     0.77443534   
     35900  -4113.9548     -4147.3907      33.435849      327.94074      299.73463      9526.6876      0.90436455     0.77443534   
     36000  -4113.5802     -4146.4052      32.825022     -691.51123      294.25889      9539.0533      0.90319221     0.81691943   
     36100  -4113.1611     -4147.037       33.875892      394.07198      303.67938      9557.3149      0.90146644     0.81691943   
     36200  -4114.7957     -4147.2971      32.501374     -182.01658      291.35756      9576.3048      0.89967882     0.81691943   
     36300  -4115.0697     -4147.4726      32.402944     -2036.1989      290.47518      9587.5408      0.89862445     0.81691943   
     36400  -4114.1938     -4146.0916      31.897836      943.69088      285.94716      9587.2278      0.89865379     0.81691943   
     36500  -4115.1756     -4148.1936      33.017944     -623.59587      295.98833      9582.6511      0.89908298     0.81691943   
     36600  -4115.1525     -4146.9124      31.75989      -833.36351      284.71055      9570.569       0.90021801     0.81691943   
     36700  -4114.908      -4147.0814      32.173411      193.72755      288.41754      9554.8148      0.90170231     0.81691943   
     36800  -4114.8437     -4147.1654      32.321631     -2951.7181      289.74626      9537.9785      0.90329398     0.81691943   
     36900  -4114.4748     -4147.1878      32.712956     -865.90876      293.25428      9522.6439      0.90474859     0.81691943   
     37000  -4114.0915     -4145.7318      31.640313      393.34632      283.6386       9515.4078      0.90543661     0.74853483   
     37100  -4115.0825     -4147.0506      31.968145     -1240.3736      286.57745      9520.1785      0.90498288     0.74853483   
     37200  -4113.9106     -4146.7801      32.869435     -850.91828      294.65702      9531.2149      0.90393498     0.74853483   
     37300  -4114.7245     -4147.8507      33.126252      673.41741      296.95925      9543.16        0.90280354     0.74853483   
     37400  -4114.333      -4147.3563      33.023332     -252.60762      296.03663      9554.1506      0.90176499     0.74853483   
     37500  -4115.4761     -4147.9966      32.520537     -1105.4157      291.52934      9567.2754      0.90052792     0.74853483   
     37600  -4115.843      -4147.8064      31.963411      1865.8837      286.535        9577.5681      0.89956015     0.74853483   
     37700  -4114.5022     -4146.8818      32.379578      1232.0479      290.26572      9581.9817      0.89914579     0.74853483   
     37800  -4114.5942     -4146.9099      32.315687     -3219.6578      289.69297      9584.3552      0.89892313     0.74853483   
     37900  -4114.5017     -4147.5452      33.043488     -2691.4568      296.21732      9584.4622      0.8989131      0.74853483   
     38000  -4114.2982     -4147.1509      32.852693      1237.4374      294.50694      9583.0017      0.89905009     0.88308946   
     38100  -4113.832      -4146.0518      32.219806      903.05302      288.83345      9578.9731      0.89942821     0.88308946   
     38200  -4114.5633     -4145.6831      31.119884     -998.3023       278.97323      9571.859       0.90009669     0.88308946   
     38300  -4112.9085     -4146.1073      33.198842     -705.09375      297.60999      9563.2667      0.9009054      0.88308946   
     38400  -4113.7043     -4146.0806      32.376226     -1458.1666      290.23567      9554.4398      0.9017377      0.88308946   
     38500  -4113.9547     -4147.1825      33.227782     -1421.7437      297.86942      9546.7395      0.90246504     0.88308946   
     38600  -4113.5862     -4145.5549      31.968672      435.524        286.58217      9537.2003      0.90336769     0.88308946   
     38700  -4113.2206     -4146.0051      32.784544      439.0292       293.89602      9526.7987      0.90435401     0.88308946   
     38800  -4113.7865     -4145.9201      32.133581      863.7288       288.06049      9520.5772      0.90494499     0.88308946   
     38900  -4113.616      -4146.8009      33.184853     -1466.1524      297.48458      9520.4682      0.90495535     0.88308946   
     39000  -4112.6806     -4145.9775      33.296933      196.95307      298.48932      9530.3197      0.90401989     0.8178868    
     39100  -4113.7477     -4146.1734      32.425749      1496.7747      290.67962      9545.1803      0.90261245     0.8178868    
     39200  -4112.5787     -4145.4801      32.901424     -217.56918      294.9438       9559.2599      0.90128301     0.8178868    
     39300  -4113.5803     -4145.548       31.967738     -1646.2527      286.57379      9571.8246      0.90009992     0.8178868    
     39400  -4113.678      -4146.8667      33.188693      1189.2811      297.51901      9583.1009      0.89904079     0.8178868    
     39500  -4115.2008     -4147.4819      32.281057     -1585.3371      289.38253      9591.0871      0.89829219     0.8178868    
     39600  -4115.6575     -4146.039       30.381454      513.53415      272.3536       9592.6265      0.89814803     0.8178868    
     39700  -4115.1111     -4146.7545      31.643374      1718.4573      283.66604      9585.7189      0.89879525     0.8178868    
     39800  -4114.8348     -4146.1258      31.290996     -1765.5725      280.50716      9565.1302      0.90072988     0.8178868    
     39900  -4113.7176     -4146.4797      32.76216      -1416.8345      293.69537      9534.4043      0.9036326      0.8178868    
     40000  -4115.047      -4148.5475      33.500456      1728.175       300.3138       9501.7772      0.90673549     0.76361029   
     40100  -4116.0199     -4147.9857      31.965807      2741.281       286.55648      9475.0979      0.90928861     0.76361029   
     40200  -4117.5721     -4148.5537      30.981606      541.06621      277.73364      9461.3319      0.9106116      0.76361029   
     40300  -4117.7825     -4148.2945      30.512068      83.605144      273.52449      9458.6222      0.91087247     0.76361029   
     40400  -4116.7952     -4148.4127      31.617511      283.80432      283.43419      9468.5624      0.90991623     0.76361029   
     40500  -4117.9437     -4148.4793      30.535629      509.14543      273.7357       9486.1042      0.9082336      0.76361029   
     40600  -4118.0382     -4148.0579      30.019688      1400.5177      269.11056      9510.6661      0.90588803     0.76361029   
     40700  -4117.1006     -4148.1977      31.097146     -736.66844      278.7694       9540.0352      0.90309924     0.76361029   
     40800  -4116.4525     -4147.8878      31.435302      942.19157      281.80078      9566.1466      0.90063418     0.76361029   
     40900  -4116.1379     -4147.5949      31.457005      2678.057       281.99535      9582.7979      0.89906922     0.76361029   
     41000  -4114.5574     -4146.2188      31.661473     -2391.307       283.82829      9587.6654      0.89861277     0.78175908   
     41100  -4114.6115     -4147.3107      32.699182      282.41361      293.1308       9581.732       0.89916923     0.78175908   
     41200  -4113.4192     -4146.0359      32.616709      565.96703      292.39147      9565.9652      0.90065125     0.78175908   
     41300  -4115.3572     -4147.4749      32.11768      -187.33986      287.91794      9547.3483      0.90240749     0.78175908   
     41400  -4113.6447     -4147.8879      34.24319       2891.2984      306.97202      9531.1853      0.90393779     0.78175908   
     41500  -4113.5221     -4146.222       32.69989       300.71273      293.13715      9524.0684      0.90461326     0.78175908   
     41600  -4112.0173     -4145.3909      33.373557      753.90577      299.17621      9529.0776      0.90413773     0.78175908   
     41700  -4112.3479     -4145.6182      33.2703       -2087.3617      298.25057      9542.8951      0.90282859     0.78175908   
     41800  -4111.6725     -4144.5036      32.831037      636.78734      294.31281      9563.813       0.90085394     0.78175908   
     41900  -4112.6406     -4145.5737      32.933131      1160.5351      295.22803      9585.3677      0.89882818     0.78175908   
     42000  -4112.5594     -4145.9659      33.406474      869.31037      299.4713       9599.1301      0.89753951     0.78163554   
     42100  -4113.2377     -4146.9052      33.667547      576.00098      301.81168      9607.053       0.89679932     0.78163554   
     42200  -4113.7264     -4147.1593      33.432867     -503.10886      299.7079       9609.6451      0.89655742     0.78163554   
     42300  -4114.1677     -4146.9027      32.734997      582.91269      293.45186      9609.6754      0.89655459     0.78163554   
     42400  -4115.1696     -4146.2941      31.12452      -1205.1794      279.01479      9605.5316      0.89694136     0.78163554   
     42500  -4115.3079     -4148.3778      33.0699       -2521.7561      296.45409      9593.079       0.89810567     0.78163554   
     42600  -4116.6039     -4147.7745      31.170658      1001.7303      279.42839      9577.2699      0.89958816     0.78163554   
     42700  -4117.0878     -4147.5536      30.4658        68.258802      273.10971      9557.4581      0.90145293     0.78163554   
     42800  -4117.4778     -4149.3481      31.870262     -203.78558      285.69997      9538.2724      0.90326615     0.78163554   
     42900  -4115.2782     -4148.5674      33.289225      382.18947      298.42022      9522.5166      0.90476068     0.78163554   
     43000  -4115.686      -4147.1855      31.499521      426.92329      282.37647      9514.5202      0.90552108     0.79822237   
     43100  -4115.4009     -4147.4123      32.011419      1263.3483      286.96537      9515.6022      0.90541811     0.79822237   
     43200  -4116.4206     -4147.5058      31.085197     -1440.5189      278.66229      9525.8146      0.90444743     0.79822237   
     43300  -4116.924      -4149.0447      32.12076      -1181.4942      287.94556      9543.8322      0.90273994     0.79822237   
     43400  -4115.8096     -4148.3821      32.57256       1188.2214      291.99571      9559.6783      0.90124357     0.79822237   
     43500  -4115.4182     -4148.9578      33.539598      2548.1764      300.66468      9572.5765      0.90002923     0.79822237   
     43600  -4114.9412     -4147.7146      32.773379     -515.70068      293.79594      9582.6493      0.89908316     0.79822237   
     43700  -4115.119      -4147.8638      32.744779     -1577.221       293.53955      9586.7134      0.89870201     0.79822237   
     43800  -4113.5374     -4147.0799      33.542511      712.99412      300.69079      9585.4389      0.89882151     0.79822237   
     43900  -4113.6766     -4147.2175      33.540975      236.16166      300.67703      9585.1529      0.89884832     0.79822237   
     44000  -4112.9586     -4144.9267      31.968043     -328.36478      286.57653      9583.8072      0.89897453     0.76382361   
     44100  -4113.3649     -4147.0879      33.722992     -791.48289      302.30872      9579.0353      0.89942237     0.76382361   
     44200  -4112.6091     -4146.5669      33.957802     -2113.9682      304.41366      9568.3713      0.90042478     0.76382361   
     44300  -4114.2018     -4147.0176      32.815779     -1424.7691      294.17603      9559.7095      0.90124062     0.76382361   
     44400  -4114.2663     -4146.9876      32.721371      66.271835      293.32971      9549.9702      0.90215973     0.76382361   
     44500  -4113.6682     -4145.3552      31.687021      390.12553      284.05731      9544.7633      0.90265189     0.76382361   
     44600  -4114.2695     -4147.0211      32.751627      911.57939      293.60095      9544.157       0.90270923     0.76382361   
     44700  -4113.7306     -4146.4979      32.767262     -1965.6823      293.7411       9545.2267      0.90260807     0.76382361   
     44800  -4113.1914     -4147.3253      34.133849      755.54947      305.99183      9544.3302      0.90269284     0.76382361   
     44900  -4113.3692     -4146.2196      32.850412     -987.20024      294.4865       9544.2666      0.90269886     0.76382361   
     45000  -4113.7396     -4146.5927      32.853066      383.5979       294.51029      9546.4061      0.90249656     0.8104898    
     45100  -4113.8113     -4147.6801      33.868876     -2390.534       303.61648      9552.1057      0.90195804     0.8104898    
     45200  -4114.4705     -4146.5218      32.051291      1229.6625      287.3228       9559.8431      0.90122804     0.8104898    
     45300  -4113.1931     -4146.2742      33.081156      1400.2221      296.55499      9573.0952      0.89998045     0.8104898    
     45400  -4112.6229     -4146.8337      34.210872     -2920.7811      306.6823       9590.3217      0.89836388     0.8104898    
     45500  -4112.0922     -4145.3683      33.276104     -2086.7637      298.3026       9605.5211      0.89694234     0.8104898    
     45600  -4112.2638     -4145.2591      32.995252     -382.24177      295.78491      9615.3776      0.8960229      0.8104898    
     45700  -4114.346      -4146.3205      31.97444      -36.962064      286.63387      9617.0743      0.89586483     0.8104898    
     45800  -4113.4758     -4145.8153      32.33952       675.71839      289.90662      9608.7706      0.89663901     0.8104898    
     45900  -4113.7509     -4146.1879      32.437044     -626.56755      290.78087      9593.5334      0.89806313     0.8104898    
     46000  -4115.0896     -4147.2542      32.164571     -1350.5683      288.3383       9569.0978      0.90035642     0.76392141   
     46100  -4115.954      -4147.9296      31.975572     -970.16677      286.64402      9537.5254      0.9033369      0.76392141   
     46200  -4116.3746     -4147.7285      31.35391       1415.7902      281.07115      9503.5808      0.90656341     0.76392141   
     46300  -4117.1288     -4148.7887      31.659945      2674.7565      283.81459      9473.9472      0.90939905     0.76392141   
     46400  -4116.6757     -4148.4187      31.743022      1246.4715      284.55934      9450.0767      0.91169616     0.76392141   
     46500  -4116.7593     -4148.4058      31.646444     -143.72638      283.69356      9438.7863      0.9127867      0.76392141   
     46600  -4117.5036     -4148.6927      31.18907       646.97596      279.59345      9443.7776      0.91230427     0.76392141   
     46700  -4116.3857     -4148.5028      32.117119      877.54842      287.91292      9467.0341      0.91006312     0.76392141   
     46800  -4115.4695     -4148.7713      33.301784      860.78265      298.5328       9507.9589      0.90614596     0.76392141   
     46900  -4115.6264     -4148.9696      33.343194     -963.8722       298.90402      9557.7982      0.90142085     0.76392141   
     47000  -4114.2955     -4146.2065      31.911021      565.32583      286.06535      9601.0142      0.89736338     0.81108241   
     47100  -4114.6428     -4145.5572      30.914385     -656.7951       277.13105      9633.4203      0.89434472     0.81108241   
     47200  -4114.1998     -4147.3816      33.181859     -359.65131      297.45774      9650.6559      0.89274747     0.81108241   
     47300  -4115.7426     -4147.4666      31.723979     -628.87535      284.38863      9650.2221      0.8927876      0.81108241   
     47400  -4116.2328     -4148.6986      32.465882      2482.1772      291.03939      9631.4107      0.89453133     0.81108241   
     47500  -4115.46       -4148.3051      32.845042      925.14024      294.43836      9600.2851      0.89743154     0.81108241   
     47600  -4114.6068     -4145.2137      30.606906      2479.2222      274.37466      9563.9062      0.90084515     0.81108241   
     47700  -4114.6198     -4146.5741      31.95428      -1690.9291      286.45315      9528.0922      0.90423124     0.81108241   
     47800  -4115.5815     -4148.0506      32.469066      2514.6698      291.06793      9495.3373      0.90735046     0.81108241   
     47900  -4116.0651     -4147.5273      31.46224       3732.4762      282.04227      9472.7177      0.90951708     0.81108241   
     48000  -4116.5083     -4147.9156      31.40732       2443.3117      281.54994      9465.8949      0.91017265     0.92236294   
     48100  -4117.2926     -4148.585       31.292351      313.5843       280.5193       9475.7383      0.90922715     0.92236294   
     48200  -4117.189      -4147.8634      30.674351     -2320.5991      274.97926      9497.0174      0.90718994     0.92236294   
     48300  -4115.6798     -4147.2736      31.593739      249.00229      283.22109      9519.3384      0.90506275     0.92236294   
     48400  -4116.2316     -4148.0923      31.860754     -417.41713      285.61474      9539.1571      0.90318238     0.92236294   
     48500  -4114.6474     -4148.0176      33.370204     -1026.6529      299.14615      9558.0427      0.9013978      0.92236294   
     48600  -4114.1039     -4147.5541      33.450112      433.81819      299.86249      9574.286       0.89986853     0.92236294   
     48700  -4112.8135     -4145.5374      32.723933     -737.01121      293.35268      9586.8757      0.8986868      0.92236294   
     48800  -4112.3813     -4145.9149      33.533633      1894.1146      300.61121      9587.6606      0.89861323     0.92236294   
     48900  -4113.0919     -4146.017       32.925114      574.5055       295.15616      9583.6612      0.89898823     0.92236294   
     49000  -4114.4834     -4147.5378      33.054469      1382.4983      296.31576      9573.7033      0.89992329     0.76985732   
     49100  -4113.9191     -4146.9503      33.031276      1402.5952      296.10784      9563.2124      0.90091051     0.76985732   
     49200  -4111.7979     -4144.4297      32.631799     -596.96693      292.52675      9557.2678      0.90147088     0.76985732   
     49300  -4112.9135     -4145.8894      32.975874     -536.62246      295.6112       9553.3053      0.90184479     0.76985732   
     49400  -4114.1598     -4147.1163      32.956505     -1152.5948      295.43756      9548.0914      0.90233725     0.76985732   
     49500  -4114.3216     -4146.7011      32.379488      159.97396      290.26491      9539.0457      0.90319293     0.76985732   
     49600  -4114.7362     -4146.3467      31.610564      1454.9841      283.37192      9532.3892      0.90382363     0.76985732   
     49700  -4114.4637     -4146.7382      32.274475      1543.0253      289.32353      9531.0018      0.9039552      0.76985732   
     49800  -4115.3506     -4147.5057      32.155034     -137.24717      288.2528       9535.6271      0.90351673     0.76985732   
     49900  -4115.6363     -4147.2878      31.651453     -924.93062      283.73846      9539.7677      0.90312456     0.76985732   
     50000  -4115.6221     -4147.8831      32.261002      2581.4215      289.20275      9538.079       0.90328447     0.77615724   
     50100  -4116.1588     -4147.6342      31.475353      1545.1547      282.15982      9531.6728      0.90389156     0.77615724   
     50200  -4115.3307     -4148.0684      32.737709     -994.34874      293.47617      9525.1252      0.90451289     0.77615724   
     50300  -4115.5806     -4149.0657      33.485009     -407.35174      300.17533      9522.872       0.90472691     0.77615724   
     50400  -4115.2673     -4147.6536      32.386291      445.02826      290.3259       9525.1411      0.90451139     0.77615724   
     50500  -4113.1326     -4146.7842      33.651612      919.97654      301.66883      9531.3016      0.90392676     0.77615724   
     50600  -4114.372      -4146.8288      32.45678       761.80239      290.9578       9543.5403      0.90276756     0.77615724   
     50700  -4113.5217     -4146.4538      32.932144      822.38799      295.21918      9557.7862      0.90142198     0.77615724   
     50800  -4113.577      -4146.0634      32.48642      -1489.614       291.2235       9572.024       0.90008117     0.77615724   
     50900  -4112.3038     -4145.3917      33.08791       2197.1768      296.61554      9584.7375      0.89888727     0.77615724   
     51000  -4113.4883     -4146.1671      32.678771      142.01441      292.94783      9599.5582      0.89749949     0.79879206   
     51100  -4115.3085     -4146.489       31.180472     -1303.1792      279.51637      9606.1518      0.89688346     0.79879206   
     51200  -4114.9517     -4147.1115      32.159846      4.0820117      288.29594      9599.6698      0.89748906     0.79879206   
     51300  -4115.3833     -4147.3984      32.015187      3025.7789      286.99915      9577.2929      0.899586       0.79879206   
     51400  -4115.0907     -4147.4971      32.40638      -488.71929      290.50599      9545.0338      0.90262631     0.79879206   
     51500  -4114.8682     -4147.4178      32.549591      294.00664      291.7898       9512.9835      0.90566736     0.79879206   
     51600  -4114.92       -4147.6802      32.760148      2916.6676      293.67733      9485.8662      0.90825639     0.79879206   
     51700  -4114.7216     -4146.8929      32.171303      3399.3967      288.39865      9468.6657      0.9099063      0.79879206   
     51800  -4115.3351     -4148.4693      33.134161      1013.3971      297.03016      9465.9838      0.91016409     0.79879206   
     51900  -4115.7883     -4146.8395      31.051193     -862.02604      278.35745      9475.4885      0.90925113     0.79879206   
     52000  -4114.4386     -4145.732       31.293352      1408.1718      280.52828      9496.8539      0.90720555     0.87134603   
     52100  -4113.6904     -4146.6181      32.92762      -1724.7446      295.17863      9526.878       0.90434648     0.87134603   
     52200  -4113.3063     -4146.7406      33.434309     -1386.8421      299.72082      9560.6091      0.90115582     0.87134603   
     52300  -4113.2151     -4146.4263      33.211224     -111.81938      297.72098      9595.6108      0.8978687      0.87134603   
     52400  -4113.5405     -4147.5895      34.048952     -1415.0119      305.23077      9624.6976      0.89515525     0.87134603   
     52500  -4112.8964     -4145.3739      32.477427     -2539.9581      291.14288      9642.6813      0.89348578     0.87134603   
     52600  -4113.1866     -4146.0646      32.877989     -1186.0089      294.73371      9644.3399      0.89333212     0.87134603   
     52700  -4113.2906     -4145.9971      32.706499     -402.66106      293.1964       9628.9583      0.89475915     0.87134603   
     52800  -4113.6433     -4145.8999      32.256591      82.694309      289.1632       9599.301       0.89752354     0.87134603   
     52900  -4115.8637     -4147.2069      31.343252     -1234.1654      280.9756       9558.4921      0.90135541     0.87134603   
     53000  -4115.4154     -4147.2762      31.860766     -903.02318      285.61485      9514.5844      0.90551497     0.81531466   
     53100  -4115.8662     -4147.9203      32.05411      -135.27635      287.34807      9477.62        0.90904664     0.81531466   
     53200  -4116.5689     -4147.2187      30.649764      2071.5715      274.75886      9445.554       0.91213269     0.81531466   
     53300  -4114.7152     -4146.4556      31.740396      609.48644      284.53579      9420.1102      0.91459637     0.81531466   
     53400  -4115.1506     -4147.6994      32.548794      2226.4226      291.78265      9406.5158      0.91591816     0.81531466   
     53500  -4116.4234     -4149.0729      32.649462     -1328.1523      292.68508      9412.9732      0.91528983     0.81531466   
     53600  -4115.4888     -4148.0938      32.605021      2406.1528      292.2867       9435.6879      0.91308643     0.81531466   
     53700  -4116.5114     -4147.2996      30.788212      2354.2372      275.99997      9473.9009      0.90940349     0.81531466   
     53800  -4117.7169     -4147.8398      30.122932     -2478.5989      270.03609      9517.3565      0.90525122     0.81531466   
     53900  -4117.6921     -4148.1297      30.437574     -1808.3653      272.85668      9551.8167      0.90198534     0.81531466   
     54000  -4117.3547     -4147.9026      30.547895     -1095.0768      273.84565      9577.6934      0.89954838     0.8026681    
     54100  -4116.3716     -4148.5982      32.226624      2090.1375      288.89457      9594.0904      0.89801099     0.8026681    
     54200  -4116.4561     -4147.8203      31.364131     -2211.2025      281.16278      9597.9749      0.89764754     0.8026681    
     54300  -4117.3052     -4148.8206      31.515355     -3008.9481      282.51842      9592.3541      0.89817354     0.8026681    
     54400  -4116.4683     -4147.9309      31.462611     -634.55153      282.04559      9572.9111      0.89999777     0.8026681    
     54500  -4115.0762     -4147.7877      32.711474     -1543.5436      293.24099      9544.3053      0.9026952      0.8026681    
     54600  -4115.1313     -4147.1466      32.015281     -2187.208       286.99999      9514.8615      0.9054886      0.8026681    
     54700  -4115.5047     -4147.2278      31.723181      1477.8878      284.38147      9491.1293      0.90775274     0.8026681    
     54800  -4115.014      -4146.9099      31.89591       2130.3538      285.92989      9479.3064      0.90888491     0.8026681    
     54900  -4114.7495     -4147.5635      32.813981      810.59635      294.15991      9485.3861      0.90830236     0.8026681    
     55000  -4116.3479     -4146.8406      30.492685      819.38643      273.35072      9500.8248      0.90682639     0.83413052   
     55100  -4115.7593     -4146.79        31.030681     -407.26735      278.17358      9523.8457      0.90463441     0.83413052   
     55200  -4115.6336     -4147.5571      31.923553     -2119.9608      286.1777       9551.593       0.90200646     0.83413052   
     55300  -4115.6126     -4146.3315      30.718921     -510.91955      275.37882      9572.3276      0.90005263     0.83413052   
     55400  -4114.4777     -4146.7939      32.316194      1616.4587      289.69751      9584.3061      0.89892773     0.83413052   
     55500  -4113.3265     -4146.2488      32.922337     -4322.3436      295.13127      9590.3455      0.89836165     0.83413052   
     55600  -4114.2368     -4145.9261      31.689346      1161.3773      284.07816      9589.6871      0.89842333     0.83413052   
     55700  -4113.308      -4145.3874      32.079415      672.00033      287.57492      9578.0872      0.8995114      0.83413052   
     55800  -4113.0633     -4145.4936      32.43029       2790.509       290.72032      9559.9498      0.90121797     0.83413052   
     55900  -4113.8513     -4146.6421      32.790757     -41.100243      293.95172      9546.0672      0.90252859     0.83413052   
     56000  -4114.1289     -4146.4965      32.367601      260.96468      290.15836      9538.6019      0.90323495     0.81600687   
     56100  -4114.08       -4146.4043      32.324342      1625.2169      289.77056      9538.8596      0.90321055     0.81600687   
     56200  -4113.2852     -4146.7588      33.473693     -36.798014      300.07388      9544.4072      0.90268556     0.81600687   
     56300  -4112.5585     -4145.1949      32.636317      2168.9605      292.56725      9552.864       0.90188645     0.81600687   
     56400  -4113.0508     -4145.9908      32.939968      395.41215      295.28932      9570.7439      0.90020156     0.81600687   
     56500  -4112.0558     -4145.3453      33.289509     -49.72047       298.42277      9593.4389      0.89807197     0.81600687   
     56600  -4111.5618     -4145.4428      33.881076     -2837.9406      303.72585      9612.8787      0.89625584     0.81600687   
     56700  -4112.8868     -4143.8841      30.997254     -280.79304      277.87392      9621.7355      0.89543083     0.81600687   
     56800  -4112.1127     -4146.2476      34.134922      2074.9396      306.00145      9617.3438      0.89583972     0.81600687   
     56900  -4112.5717     -4144.7018      32.13008       273.47368      288.02911      9602.6963      0.8972062      0.81600687   
     57000  -4112.2695     -4146.3429      34.073443      1195.2085      305.45032      9584.8745      0.89887443     0.88729987   
     57100  -4112.8465     -4146.2154      33.368868      493.59648      299.13418      9566.8248      0.90057034     0.88729987   
     57200  -4113.3035     -4146.6158      33.312364     -692.66421      298.62765      9551.9566      0.90197213     0.88729987   
[...]
    386100  -4113.5041     -4145.4931      31.988949     -1535.1983      286.76394      9716.6763      0.88668165     0.81891496   
    386200  -4114.5607     -4145.9491      31.388363     -3912.3378      281.38         9684.2414      0.88965136     0.81891496   
    386300  -4112.9357     -4145.2918      32.35612      -1098.904       290.05543      9636.6127      0.89404845     0.81891496   
    386400  -4113.5857     -4145.9869      32.401199      1736.2997      290.45954      9582.5695      0.89909065     0.81891496   
    386500  -4113.9082     -4147.2765      33.368376      1714.185       299.12977      9540.0157      0.90310109     0.81891496   
    386600  -4113.3383     -4147.1126      33.774267      2331.9338      302.76837      9510.7208      0.90588282     0.81891496   
    386700  -4113.4302     -4146.173       32.742799      3891.1172      293.52181      9500.7477      0.90683374     0.81891496   
    386800  -4115.9072     -4147.4601      31.552917      2116.4281      282.85515      9508.3535      0.90610836     0.81891496   
    386900  -4115.1456     -4147.4834      32.337755      187.78884      289.8908       9525.6053      0.90446731     0.81891496   
    387000  -4115.1281     -4146.9137      31.785605     -347.12506      284.94107      9552.3422      0.90193571     0.82479831   
    387100  -4113.7227     -4146.6909      32.968156      787.8192       295.54201      9587.1096      0.89866487     0.82479831   
    387200  -4113.4362     -4146.546       33.109757     -683.54687      296.81138      9623.626       0.89525492     0.82479831   
    387300  -4113.3268     -4146.139       32.812159      2062.6647      294.14358      9648.3219      0.89296342     0.82479831   
    387400  -4112.2583     -4147.163       34.904701      1351.8974      312.9021       9657.6074      0.89210487     0.82479831   
    387500  -4114.1718     -4147.1747      33.002886      883.03251      295.85334      9650.8683      0.89272781     0.82479831   
    387600  -4114.2673     -4146.4396      32.172277      307.74306      288.40738      9633.0106      0.89438275     0.82479831   
    387700  -4114.538      -4147.5981      33.060103     -688.42899      296.36627      9607.4241      0.89676468     0.82479831   
    387800  -4113.5278     -4146.1891      32.661289     -65.256864      292.79111      9574.0689      0.89988893     0.82479831   
    387900  -4114.5274     -4146.9656      32.43823       1311           290.7915       9541.6979      0.90294187     0.82479831   
    388000  -4114.8119     -4147.2384      32.426481      1217.2828      290.68618      9516.2313      0.90535826     0.74759839   
    388100  -4115.4431     -4148.2535      32.810473      1681.512       294.12846      9502.0714      0.90670741     0.74759839   
    388200  -4115.7631     -4147.2447      31.481572     -629.42494      282.21557      9498.098       0.90708673     0.74759839   
    388300  -4115.5334     -4148.3392      32.805762      2026.9508      294.08624      9505.664       0.90636473     0.74759839   
    388400  -4116.7433     -4148.2432      31.499981      891.94625      282.3806       9516.9451      0.90529036     0.74759839   
    388500  -4116.4192     -4147.9759      31.556701      1229.15        282.88906      9527.3694      0.90429984     0.74759839   
    388600  -4115.8915     -4148.5869      32.695439     -702.29003      293.09725      9537.642       0.90332585     0.74759839   
    388700  -4114.5116     -4147.2402      32.728646      489.4075       293.39493      9546.7517      0.90246388     0.74759839   
    388800  -4114.0501     -4146.5715      32.52147      -1283.0473      291.53771      9561.2683      0.9010937      0.74759839   
    388900  -4113.7808     -4146.5136      32.732799     -83.859592      293.43216      9575.8155      0.89972479     0.74759839   
    389000  -4114.9852     -4146.5217      31.536509      853.25678      282.70806      9593.6023      0.89805667     0.79925308   
    389100  -4115.4423     -4148.113       32.670644      1636.5003      292.87497      9604.4907      0.89703857     0.79925308   
    389200  -4114.811      -4146.2228      31.411802      1193.3599      281.59012      9607.6602      0.89674265     0.79925308   
    389300  -4114.545      -4144.8555      30.310481     -628.78954      271.71736      9602.3512      0.89723843     0.79925308   
    389400  -4114.8853     -4146.6732      31.787849     -939.90864      284.96119      9589.456       0.89844497     0.79925308   
    389500  -4115.231      -4146.9874      31.756364     -1746.0696      284.67894      9570.1947      0.90025322     0.79925308   
    389600  -4115.2575     -4147.4427      32.185111      798.76787      288.52243      9549.0227      0.90224925     0.79925308   
    389700  -4115.5945     -4147.947       32.352486      395.15588      290.02286      9525.9826      0.90443148     0.79925308   
    389800  -4114.9466     -4147.3471      32.400575      350.92238      290.45395      9503.5604      0.90656536     0.79925308   
    389900  -4115.8607     -4147.7459      31.885147     -481.24212      285.83341      9486.8926      0.90815813     0.79925308   
    390000  -4117.2546     -4149.2396      31.985051      1553.4723      286.729        9477.6684      0.90904199     0.82431469   
    390100  -4117.1825     -4148.1328      30.95026       690.78537      277.45264      9473.8011      0.90941307     0.82431469   
    390200  -4117.5475     -4149.2816      31.734178     -921.70619      284.48006      9476.2402      0.909179       0.82431469   
    390300  -4116.9134     -4149.1552      32.241841     -1985.7767      289.03098      9481.7021      0.90865527     0.82431469   
    390400  -4116.1325     -4148.0358      31.903269      2393.3692      285.99587      9496.5541      0.90723419     0.82431469   
    390500  -4115.7899     -4147.952       32.162142      927.50457      288.31653      9524.4247      0.90457942     0.82431469   
    390600  -4114.5512     -4146.435       31.883777      209.3619       285.82113      9562.6418      0.90096427     0.82431469   
    390700  -4115.4049     -4146.1835      30.778612     -2676.2923      275.91391      9601.863       0.89728406     0.82431469   
    390800  -4115.1598     -4146.5651      31.405295      1977.7796      281.53179      9632.8317      0.89439937     0.82431469   
    390900  -4114.7945     -4146.6934      31.898896      2128.4146      285.95666      9651.3456      0.89268367     0.82431469   
    391000  -4114.8291     -4147.0621      32.233026      177.08916      288.95196      9657.1614      0.89214607     0.84861602   
    391100  -4114.9178     -4147.3064      32.388604     -1514.8439      290.34664      9646.9214      0.89309307     0.84861602   
    391200  -4115.6199     -4147.539       31.919009     -1038.1313      286.13697      9618.4201      0.89573948     0.84861602   
    391300  -4115.3216     -4147.8476      32.526048     -1997.0867      291.57874      9581.5323      0.89918797     0.84861602   
    391400  -4115.0336     -4147.0131      31.979531      4266.5121      286.67951      9538.9647      0.90320059     0.84861602   
    391500  -4114.8736     -4146.9587      32.085191     -1469.4969      287.6267       9502.148       0.90670011     0.84861602   
    391600  -4115.161      -4147.2152      32.054253      2679.4718      287.34936      9476.8352      0.90912192     0.84861602   
    391700  -4114.259      -4146.7116      32.452635      1183.0166      290.92064      9468.1272      0.90995805     0.84861602   
    391800  -4115.5183     -4148.553       33.034714     -506.7829       296.13867      9476.006       0.90920147     0.84861602   
    391900  -4115.7035     -4147.944       32.24048       1121.7703      289.01878      9497.5913      0.90713512     0.84861602   
    392000  -4115.7705     -4148.0696      32.299119     -2379.0598      289.54445      9530.8064      0.90397373     0.79824088   
    392100  -4115.4854     -4148.3126      32.827215      1870.8319      294.27855      9566.8146      0.90057129     0.79824088   
    392200  -4115.7032     -4146.4736      30.770466     -587.96937      275.84088      9597.9136      0.89765327     0.79824088   
    392300  -4114.9187     -4145.7175      30.798856     -1879.9434      276.09539      9619.9271      0.89559916     0.79824088   
    392400  -4115.0088     -4146.2517      31.242974      464.09497      280.07667      9631.9104      0.89448492     0.79824088   
    392500  -4114.7568     -4146.8665      32.109701     -1835.79        287.84641      9631.2549      0.8945458      0.79824088   
    392600  -4114.7885     -4146.8258      32.03733       18.998085      287.19765      9615.5957      0.89600258     0.79824088   
    392700  -4115.2047     -4147.2157      32.011029      1921.2014      286.96188      9588.4707      0.8985373      0.79824088   
    392800  -4115.7224     -4147.763       32.040588      207.10785      287.22685      9554.4734      0.90173453     0.79824088   
    392900  -4114.675      -4147.1708      32.495801      53.815547      291.3076       9521.2238      0.90488353     0.79824088   
    393000  -4113.8112     -4146.5985      32.787259     -1080.9193      293.92036      9497.1664      0.9071757      0.77266799   
    393100  -4114.6354     -4147.5373      32.901953      2249.9014      294.94853      9488.8143      0.9079742      0.77266799   
    393200  -4115.6044     -4148.1296      32.52518       778.58404      291.57097      9496.027       0.90728456     0.77266799   
    393300  -4112.6861     -4145.2264      32.540286      1800.1609      291.70638      9511.0782      0.90584878     0.77266799   
    393400  -4113.1181     -4146.4459      33.327827      1035.6187      298.76627      9532.2761      0.90383435     0.77266799   
    393500  -4113.2049     -4146.9672      33.762304      501.25636      302.66112      9556.9562      0.90150027     0.77266799   
    393600  -4115.2294     -4148.0045      32.775182     -179.19516      293.8121       9586.4813      0.89872377     0.77266799   
    393700  -4115.5439     -4146.7112      31.167359      105.56732      279.39882      9612.4215      0.89629846     0.77266799   
    393800  -4116.0378     -4148.5229      32.485072      2067.1013      291.21142      9630.0095      0.89466149     0.77266799   
    393900  -4114.6596     -4146.6819      32.022333     -899.22654      287.06321      9636.2817      0.89407915     0.77266799   
    394000  -4113.4769     -4146.1761      32.699187     -2070.5331      293.13084      9630.144       0.89464899     0.79246831   
    394100  -4113.0167     -4144.6731      31.656391     -909.76995      283.78273      9615.5626      0.89600566     0.79246831   
    394200  -4113.2935     -4145.8929      32.599363     -857.31209      292.23597      9592.5543      0.89815479     0.79246831   
    394300  -4112.1854     -4145.4426      33.257159     -714.40526      298.13277      9568.9862      0.90036692     0.79246831   
    394400  -4112.3981     -4145.4591      33.061033     -2126.9955      296.3746       9549.0238      0.90224915     0.79246831   
    394500  -4112.28       -4145.7189      33.438943     -294.47525      299.76236      9536.1803      0.90346432     0.79246831   
    394600  -4113.2356     -4145.5436      32.307999     -3760.8834      289.62405      9530.2422      0.90402724     0.79246831   
    394700  -4113.5372     -4146.1658      32.628583      724.95634      292.49792      9530.0336      0.90404704     0.79246831   
    394800  -4114.2385     -4147.3014      33.06293       1673.9713      296.39161      9540.396       0.90306509     0.79246831   
    394900  -4113.6447     -4145.8737      32.229034      271.6372       288.91617      9553.1039      0.9018638      0.79246831   
    395000  -4114.2485     -4145.9445      31.695991      1493.8317      284.13772      9568.4032      0.90042177     0.79152958   
    395100  -4113.8206     -4145.8203      31.999749      1059.3661      286.86075      9582.6943      0.89907894     0.79152958   
    395200  -4114.0248     -4145.954       31.929188      629.03282      286.22822      9593.2689      0.89808788     0.79152958   
    395300  -4114.7264     -4146.3169      31.590489      81.091033      283.19196      9600.6078      0.89740137     0.79152958   
    395400  -4115.4346     -4146.5063      31.071672     -878.48411      278.54103      9600.2235      0.89743729     0.79152958   
    395500  -4115.824      -4147.5985      31.774472      662.65064      284.84126      9587.4318      0.89863466     0.79152958   
    395600  -4114.7883     -4147.7931      33.004831      86.37655       295.87079      9565.8017      0.90066665     0.79152958   
    395700  -4115.4943     -4146.6274      31.133102      2032.4754      279.09172      9538.824       0.90321392     0.79152958   
    395800  -4114.3855     -4145.9356      31.55009       2400.9249      282.8298       9508.6134      0.90608359     0.79152958   
    395900  -4114.7482     -4146.761       32.012788      1879.8285      286.97764      9482.067       0.9086203      0.79152958   
    396000  -4115.5348     -4148.9537      33.418969      942.50434      299.5833       9466.0572      0.91015704     0.78396264   
    396100  -4114.8723     -4147.3642      32.491949      62.889323      291.27306      9463.9821      0.9103566      0.78396264   
    396200  -4115.1444     -4148.0559      32.911554     -156.29527      295.0346       9478.0939      0.90900119     0.78396264   
    396300  -4114.6167     -4147.0351      32.418408     -1779.8098      290.61381      9502.2396      0.90669136     0.78396264   
    396400  -4114.1815     -4146.4881      32.306588      863.50614      289.61141      9532.2542      0.90383643     0.78396264   
    396500  -4114.0143     -4145.3782      31.363882     -140.26656      281.16054      9563.4228      0.90089069     0.78396264   
    396600  -4114.6241     -4146.1876      31.563465     -3785.0587      282.9497       9591.0035      0.89830001     0.78396264   
    396700  -4113.2674     -4146.0354      32.768039     -147.79707      293.74807      9613.9296      0.89615786     0.78396264   
    396800  -4112.5076     -4146.2024      33.694727     -664.27496      302.05533      9631.6186      0.89451202     0.78396264   
    396900  -4113.6899     -4146.5903      32.900446     -1765.7467      294.93503      9640.5597      0.89368241     0.78396264   
    397000  -4113.7335     -4145.6835      31.950023      893.1182       286.41499      9642.7359      0.89348072     0.79843235   
    397100  -4113.7408     -4145.2819      31.541081     -590.54319      282.74904      9634.5914      0.89423601     0.79843235   
    397200  -4113.7339     -4146.0065      32.272639     -2541.8292      289.30707      9614.2137      0.89613138     0.79843235   
    397300  -4114.1336     -4147.0197      32.886083      578.42631      294.80626      9590.4154      0.8983551      0.79843235   
    397400  -4113.4004     -4145.4892      32.088804      62.47156       287.65908      9565.6933      0.90067686     0.79843235   
    397500  -4114.1777     -4146.3973      32.219591      257.02168      288.83152      9545.0205      0.90262757     0.79843235   
    397600  -4115.1716     -4145.6771      30.505558      2295.9887      273.46613      9526.3041      0.90440096     0.79843235   
    397700  -4115.1186     -4147.7596      32.641002      2015.9239      292.60925      9510.3876      0.90591456     0.79843235   
    397800  -4114.6696     -4146.9093      32.239717     -938.2543       289.01195      9496.9777      0.90719373     0.79843235   
    397900  -4113.6493     -4147.3332      33.683873      4507.2684      301.95804      9493.8089      0.90749653     0.79843235   
    398000  -4114.1187     -4146.2128      32.094079     -553.04491      287.70637      9503.7142      0.90655068     0.80286582   
    398100  -4112.709      -4146.2707      33.561726      554.99875      300.86305      9528.9282      0.90415191     0.80286582   
    398200  -4113.8193     -4146.7969      32.977595      1954.7224      295.62662      9565.8734      0.9006599      0.80286582   
    398300  -4112.1945     -4145.0206      32.826095     -2657.4083      294.26851      9605.5279      0.89694171     0.80286582   
    398400  -4112.0866     -4145.9746      33.887945     -1231.5625      303.78743      9635.591       0.89414324     0.80286582   
    398500  -4112.2649     -4146.0224      33.757464      2027.3848      302.61774      9652.136       0.89261057     0.80286582   
    398600  -4113.4742     -4147.0348      33.560526      1088.424       300.85229      9654.8311      0.8923614      0.80286582   
    398700  -4113.6265     -4146.7781      33.151657     -1532.3802      297.187        9636.602       0.89404944     0.80286582   
    398800  -4113.9976     -4147.198       33.200373      940.3838       297.62372      9601.699       0.89729938     0.80286582   
    398900  -4113.5532     -4145.917       32.363832     -2047.2437      290.12456      9558.3641      0.90136748     0.80286582   
    399000  -4114.2821     -4147.3194      33.03729       1506.3195      296.16176      9514.8572      0.90548901     0.75802767   
    399100  -4115.0577     -4148.7173      33.659569     -507.10709      301.74016      9476.2898      0.90917424     0.75802767   
    399200  -4114.4199     -4147.7222      33.302248      1115.1188      298.53697      9453.4232      0.91137341     0.75802767   
    399300  -4114.558      -4147.5556      32.997567      3672.6267      295.80566      9450.289       0.91167568     0.75802767   
    399400  -4114.5432     -4146.3176      31.774442      984.17912      284.841        9465.4549      0.91021496     0.75802767   
    399500  -4113.8703     -4146.2082      32.337862      1079.1552      289.89176      9496.6431      0.90722569     0.75802767   
    399600  -4115.3213     -4146.9567      31.635396      1848.1306      283.59452      9534.383       0.90363462     0.75802767   
    399700  -4116.6442     -4148.5148      31.87064      -565.35576      285.70336      9572.6423      0.90002303     0.75802767   
    399800  -4114.503      -4146.4387      31.93566       676.93833      286.28623      9601.2456      0.89734175     0.75802767   
    399900  -4114.2573     -4148.313       34.055661     -1830.1982      305.29091      9621.3221      0.89546931     0.75802767   
    400000  -4114.2838     -4146.0535      31.769678     -537.71006      284.79829      9632.0654      0.89447053     0.83910216   
    400100  -4113.816      -4146.2685      32.452475      142.46329      290.91921      9628.5897      0.89479341     0.83910216   
    400174  -4114.54       -4146.4977      31.957662     -1101.7092      286.48346      9619.6976      0.89562052     0.83910216   
Loop time of 508.867 on 2 procs for 200000 steps with 864 atoms

Performance: 16.979 ns/day, 1.414 hours/ns, 393.030 timesteps/s, 339.578 katom-step/s
99.7% CPU use with 2 MPI tasks x 1 OpenMP threads

MPI task timing breakdown:
Section |  min time  |  avg time  |  max time  |%varavg| %total
---------------------------------------------------------------
Pair    | 259.61     | 263.54     | 267.47     |  24.2 | 51.79
Neigh   | 7.415      | 7.5043     | 7.5937     |   3.3 |  1.47
Comm    | 38.591     | 43.964     | 49.338     |  81.0 |  8.64
Output  | 0.29805    | 0.30089    | 0.30373    |   0.5 |  0.06
Modify  | 189.94     | 191.4      | 192.86     |  10.6 | 37.61
Other   |            | 2.164      |            |       |  0.43

Nlocal:            432 ave         432 max         432 min
Histogram: 2 0 0 0 0 0 0 0 0 0
Nghost:           2163 ave        2168 max        2158 min
Histogram: 1 0 0 0 0 0 0 0 0 1
Neighs:              0 ave           0 max           0 min
Histogram: 2 0 0 0 0 0 0 0 0 0
FullNghs:        44501 ave       44543 max       44459 min
Histogram: 1 0 0 0 0 0 0 0 0 1

Total # of neighbors = 89002
Ave neighs/atom = 103.01157
Neighbor list builds = 19887
Dangerous builds = 19323
Total wall time: 0:16:59
