LAMMPS (7 Feb 2024 - Update 1)
KOKKOS mode with Kokkos version 4.2.0 is enabled (src/KOKKOS/kokkos.cpp:72)
  will use up to 4 GPU(s) per node
  using 1 OpenMP thread(s) per MPI task
Reading data file ...
  triclinic box = (0 0 0) to (24.989956 24.989919 23.167336) with tilt (-0.22207236 -0.16357316 -0.098737559)
  2 by 2 by 1 MPI processor grid
  reading atoms ...
  1920 atoms
  read_data CPU = 0.014 seconds
ACE/AL version: 2023.11.25
Loading /home/cicn/cicn607503/pd/pot_dir/interim_potential_ladder_step_1.yaml
Total number of basis functions
	H: 23 (r=1) 664 (r>1)
	O: 23 (r=1) 664 (r>1)
Mapping LAMMPS atom type #1(H) -> ACE species type #0
Mapping LAMMPS atom type #2(O) -> ACE species type #1
Loading ASI /home/cicn/cicn607503/pd/pot_dir/interim_potential_ladder_step_1.asi
LINEAR ASI is loaded
Switching to 'neigh_modify every 1 delay 0 check yes' setting during minimization
Neighbor list info ...
  update: every = 1 steps, delay = 0 steps, check = yes
  max neighbors/atom: 2000, page size: 100000
  master list distance cutoff = 6.5
  ghost atom cutoff = 6.5
  binsize = 6.5, bins = 4 4 4
  1 neighbor lists, perpetual/occasional/extra = 1 0 0
  (1) pair pace/extrapolation/kk, perpetual
      attributes: full, newton on, kokkos_device
      pair build: full/bin/kk/device
      stencil: full/bin/3d
      bin: kk/device
Setting up cg/kk style minimization ...
  Unit style    : metal
  Current step  : 0
WARNING: Fix with atom-based arrays not compatible with sending data in Kokkos communication, switching to classic exchange/border communication (src/KOKKOS/comm_kokkos.cpp:666)
WARNING: Fix with atom-based arrays not compatible with Kokkos sorting on device, switching to classic host sorting (src/KOKKOS/atom_kokkos.cpp:218)
Per MPI rank memory allocation (min/avg/max) = 423.1 | 425.6 | 428.5 Mbytes
   Step         TotEng         PotEng         KinEng         Press           Temp          Volume        Density     c_max_pace_gamma
         0  -9186.3912     -9186.3912      0              71325.798      0              14467.932      1.3233249      0.69469961   
       100  -9273.0205     -9273.0205      0             -8111.2112      0              14467.932      1.3233249      0.69469961   
       200  -9273.1149     -9273.1149      0             -8127.0435      0              14467.932      1.3233249      0.69469961   
       300  -9273.1151     -9273.1151      0             -8129.3029      0              14467.932      1.3233249      0.69469961   
       313  -9273.1151     -9273.1151      0             -8129.2822      0              14467.932      1.3233249      0.69469961   
Loop time of 1.27623 on 4 procs for 313 steps with 1920 atoms

99.0% CPU use with 4 MPI tasks x 1 OpenMP threads

Minimization stats:
  Stopping criterion = force tolerance
  Energy initial, next-to-last, final = 
     -9186.39119087422  -9273.11512030283  -9273.11512030979
  Force two-norm initial, final = 64.044178 0.00045387031
  Force max component initial, final = 2.4633048 9.7409443e-05
  Final line search alpha, max atom move = 1 9.7409443e-05
  Iterations, force evaluations = 313 625

MPI task timing breakdown:
Section |  min time  |  avg time  |  max time  |%varavg| %total
---------------------------------------------------------------
Pair    | 0.82289    | 0.83266    | 0.84092    |   0.7 | 65.24
Neigh   | 0.0029142  | 0.0030908  | 0.0032328  |   0.2 |  0.24
Comm    | 0.20138    | 0.21086    | 0.22166    |   1.6 | 16.52
Output  | 0.00045703 | 0.00045902 | 0.00046451 |   0.0 |  0.04
Modify  | 0.14059    | 0.14283    | 0.14572    |   0.6 | 11.19
Other   |            | 0.08633    |            |       |  6.76

Nlocal:            480 ave         482 max         478 min
Histogram: 1 0 0 0 0 2 0 0 0 1
Nghost:         2630.5 ave        2633 max        2629 min
Histogram: 1 0 2 0 0 0 0 0 0 1
Neighs:              0 ave           0 max           0 min
Histogram: 4 0 0 0 0 0 0 0 0 0
FullNghs:        75285 ave       75712 max       74890 min
Histogram: 1 0 0 1 0 1 0 0 0 1

Total # of neighbors = 301140
Ave neighs/atom = 156.84375
Neighbor list builds = 7
Dangerous builds = 0
Setting up Verlet run ...
  Unit style    : metal
  Current step  : 313
  Time step     : 0.0005
WARNING: Fix with atom-based arrays not compatible with sending data in Kokkos communication, switching to classic exchange/border communication (src/KOKKOS/comm_kokkos.cpp:666)
WARNING: Fix with atom-based arrays not compatible with Kokkos sorting on device, switching to classic host sorting (src/KOKKOS/atom_kokkos.cpp:218)
Per MPI rank memory allocation (min/avg/max) = 424.7 | 426.4 | 427.6 Mbytes
   Step         TotEng         PotEng         KinEng         Press           Temp          Volume        Density     c_max_pace_gamma
       313  -9193.7391     -9273.1151      79.37607      -2269.2197      320            14467.932      1.3233249      0.69469961   
       400  -9178.1339     -9221.4333      43.299389     -2860.2891      174.55896      14398.54       1.3297025      0.69469961   
       500  -9160.8984     -9214.8074      53.909034      5084.7191      217.33113      14218.01       1.3465861      0.69469961   
       600  -9146.9297     -9208.6609      61.731198      11185.343      248.86573      14015.007      1.3660909      0.69469961   
       700  -9140.2132     -9207.5907      67.37758       11871.401      271.62879      13870.302      1.3803431      0.69469961   
       800  -9133.2642     -9201.7443      68.480142      11739.764      276.0737       13809.625      1.386408       0.69469961   
       900  -9128.4502     -9199.7784      71.328153      12113.364      287.55529      13833.433      1.384022       0.69469961   
      1000  -9127.281      -9198.1298      70.848834      12003.737      285.62294      13929.232      1.3745033      0.72249501   
      1100  -9124.8565     -9197.6514      72.794884      10891.419      293.46833      14068.88       1.3608599      0.72249501   
      1200  -9123.2878     -9195.7806      72.492785      10632.263      292.25044      14217.651      1.3466201      0.72249501   
      1300  -9120.0429     -9194.6357      74.592798      7585.2706      300.71652      14344.219      1.3347381      0.72249501   
      1400  -9118.597      -9192.3974      73.800394      7275.3112      297.52199      14431.345      1.3266799      0.72249501   
      1500  -9115.9522     -9191.4151      75.462858      6649.3144      304.22412      14474.201      1.3227517      0.72249501   
      1600  -9114.7769     -9191.8633      77.086455      4972.2034      310.76955      14474.295      1.3227432      0.72249501   
      1700  -9110.679      -9190.0414      79.362438      4670.8957      319.94504      14440.505      1.3258383      0.72249501   
      1800  -9108.5237     -9187.6289      79.105203      7252.3204      318.90802      14388.174      1.3306605      0.72249501   
      1900  -9109.6368     -9189.5704      79.933535      7160.0528      322.24739      14332.699      1.3358108      0.72249501   
      2000  -9107.9641     -9187.5993      79.635166      6563.2502      321.04453      14281.082      1.3406389      0.74380077   
      2100  -9103.228      -9183.9464      80.718456      8444.8291      325.41175      14248.375      1.3437164      0.74380077   
      2200  -9103.5015     -9187.0108      83.509306      10587.732      336.6629       14247.471      1.3438016      0.74380077   
      2300  -9102.2853     -9186.3582      84.072936      7407.4449      338.93514      14280.983      1.3406482      0.74380077   
      2400  -9104.2418     -9186.3836      82.141747      6702.8155      331.14966      14338.033      1.3353139      0.74380077   
      2500  -9104.2748     -9186.4829      82.20812       7749.0375      331.41724      14410.078      1.3286378      0.74380077   
      2600  -9105.329      -9184.6447      79.315675      7989.9397      319.75652      14480.531      1.3221736      0.74380077   
      2700  -9107.3575     -9187.0044      79.646943      7361.9026      321.09201      14531.629      1.3175243      0.74380077   
      2800  -9109.2168     -9188.501       79.284224      5997.1002      319.62973      14547.539      1.3160834      0.74380077   
      2900  -9104.0452     -9184.3831      80.337906      6838.0154      323.87759      14525.396      1.3180897      0.74380077   
      3000  -9102.0412     -9182.3521      80.310911      7927.0939      323.76876      14477.033      1.322493       0.63193227   
      3100  -9101.9857     -9185.5189      83.533226      5387.9053      336.75933      14418.901      1.3278248      0.63193227   
      3200  -9103.224      -9184.0913      80.867343      8647.9423      326.01198      14357.448      1.3335082      0.63193227   
      3300  -9102.9726     -9185.6174      82.64482       8930.5284      333.17778      14305.629      1.3383385      0.63193227   
      3400  -9105.1023     -9185.1715      80.069219      7758.4068      322.79439      14277.742      1.3409525      0.63193227   
      3500  -9106.461      -9187.4704      81.009416      8156.8223      326.58474      14277.519      1.3409735      0.63193227   
      3600  -9108.7182     -9189.7013      80.983072      8767.8498      326.47854      14300.526      1.3388161      0.63193227   
      3700  -9109.7329     -9188.7702      79.037301      7237.2229      318.63427      14334.956      1.3356006      0.63193227   
      3800  -9110.2155     -9187.5011      77.285599      5288.3424      311.57239      14373.273      1.33204        0.63193227   
      3900  -9108.6902     -9189.6627      80.972528      8748.0364      326.43603      14411.761      1.3284827      0.63193227   
      4000  -9111.5748     -9189.332       77.757208      6315.5848      313.47365      14440.782      1.3258128      0.65139598   
      4100  -9111.703      -9189.3864      77.683394      6955.8956      313.17608      14449.276      1.3250335      0.65139598   
      4200  -9112.051      -9189.9608      77.909803      7958.5415      314.08883      14433.782      1.3264559      0.65139598   
      4300  -9109.7415     -9189.1353      79.393743      8080.2247      320.07125      14395.206      1.3300105      0.65139598   
      4400  -9110.0558     -9188.1629      78.107048      6977.5368      314.88401      14342.379      1.3349092      0.65139598   
      4500  -9108.7189     -9186.1148      77.395888      8237.9053      312.01701      14282.844      1.3404735      0.65139598   
      4600  -9108.3031     -9187.1074      78.804282      10272.92       317.69487      14232.899      1.3451775      0.65139598   
      4700  -9108.6216     -9189.5117      80.890147      9810.5602      326.10391      14207.264      1.3476046      0.65139598   
      4800  -9109.1361     -9188.9081      79.772011      9729.0861      321.59621      14215.985      1.3467779      0.65139598   
      4900  -9112.7706     -9189.8901      77.119525      8241.938       310.90287      14259.463      1.3426715      0.65139598   
      5000  -9112.7783     -9190.6674      77.889109      6554.3777      314.00541      14327.278      1.3363163      0.73858176   
      5100  -9111.6638     -9190.4368      78.773003      7558.4794      317.56877      14402.914      1.3292986      0.73858176   
      5200  -9112.9408     -9192.2021      79.261278      7480.495       319.53722      14469.314      1.3231985      0.73858176   
      5300  -9111.7365     -9190.3852      78.648721      8654.3369      317.06774      14512.649      1.3192474      0.73858176   
      5400  -9108.8404     -9190.7706      81.930156      8905.2024      330.29665      14525.435      1.3180861      0.73858176   
      5500  -9108.7539     -9188.0563      79.302496      8194.3467      319.70339      14505.345      1.3199117      0.73858176   
      5600  -9107.4902     -9187.0784      79.588204      6550.2717      320.85521      14459.706      1.3240777      0.73858176   
      5700  -9108.2926     -9188.5642      80.271537      7090.4309      323.61002      14399.283      1.3296339      0.73858176   
      5800  -9109.6693     -9187.9905      78.321295      7079.8748      315.74774      14340.292      1.3351035      0.73858176   
      5900  -9108.8299     -9190.0387      81.208749      9467.0644      327.38834      14291.832      1.3396306      0.73858176   
      6000  -9109.623      -9189.0123      79.389314      8583.8067      320.05339      14259.838      1.3426362      0.61062131   
      6100  -9110.4206     -9189.8343      79.413728      10390.366      320.15182      14253.14       1.3432672      0.61062131   
      6200  -9110.0559     -9190.3878      80.33188       10225.378      323.85329      14273.174      1.3413817      0.61062131   
      6300  -9109.219      -9188.8557      79.636733      7976.8983      321.05085      14311.295      1.3378086      0.61062131   
      6400  -9107.9222     -9188.6139      80.69166       8531.7663      325.30373      14360.971      1.333181       0.61062131   
      6500  -9111.2106     -9189.9598      78.749188      10871.011      317.47276      14411.176      1.3285366      0.61062131   
      6600  -9111.1803     -9189.6182      78.437866      6580.1877      316.21769      14449.824      1.3249832      0.61062131   
      6700  -9111.8089     -9189.4189      77.610004      5572.9369      312.88021      14464.683      1.3236222      0.61062131   
      6800  -9112.3444     -9189.3116      76.967154      8042.5752      310.28859      14455.477      1.3244651      0.61062131   
      6900  -9109.7738     -9188.1122      78.338384      8940.9691      315.81663      14428.662      1.3269265      0.61062131   
      7000  -9109.4701     -9189.2019      79.731791      8401.8521      321.43407      14390.412      1.3304535      0.67783425   
      7100  -9108.3719     -9190.0222      81.650285      7059.1477      329.16837      14348.292      1.3343591      0.67783425   
      7200  -9109.091      -9189.9188      80.827784      10373.311      325.8525       14313.788      1.3375757      0.67783425   
      7300  -9108.9313     -9189.8369      80.905607      10255.75       326.16624      14293.142      1.3395078      0.67783425   
      7400  -9108.1482     -9187.3478      79.199603      10472.548      319.28859      14287.011      1.3400826      0.67783425   
      7500  -9109.4217     -9189.3107      79.888989      11677.433      322.0678       14300.652      1.3388043      0.67783425   
      7600  -9109.7201     -9188.8337      79.113653      8761.2318      318.94208      14328.969      1.3361586      0.67783425   
      7700  -9110.3428     -9192.5089      82.166113      6692.9095      331.24789      14363.86       1.332913       0.67783425   
      7800  -9111.9651     -9188.5157      76.550605      7165.8076      308.6093       14392.946      1.3302193      0.67783425   
      7900  -9111.5893     -9190.5752      78.98582       5058.2777      318.42673      14409.532      1.3286882      0.67783425   
      8000  -9110.5126     -9188.4309      77.918247      7141.9264      314.12287      14407.542      1.3288717      0.75401943   
      8100  -9109.334      -9188.785       79.450946      7989.871       320.30186      14396.07       1.3299307      0.75401943   
      8200  -9108.4193     -9186.5213      78.101994      6421.1923      314.86364      14382.299      1.331204       0.75401943   
      8300  -9108.2488     -9187.2284      78.979593      10502.633      318.40163      14370.731      1.3322756      0.75401943   
      8400  -9107.8264     -9188.5331      80.706682      8751.4167      325.36428      14364.484      1.3328551      0.75401943   
      8500  -9110.3784     -9191.2369      80.858468      8354.1865      325.9762       14364.435      1.3328596      0.75401943   
      8600  -9111.3545     -9188.6984      77.343922      9110.9809      311.80751      14361.971      1.3330882      0.75401943   
      8700  -9112.3876     -9191.4144      79.026801      6512.9997      318.59194      14357.319      1.3335202      0.75401943   
      8800  -9114.0344     -9190.3746      76.340168      6498.5109      307.76094      14346.571      1.3345193      0.75401943   
      8900  -9111.9059     -9189.5435      77.637616      5500.0938      312.99152      14334.881      1.3356075      0.75401943   
      9000  -9113.8283     -9189.5466      75.718311      8268.0157      305.25396      14323.387      1.3366793      0.71702541   
      9100  -9113.0426     -9191.0651      78.022488      9818.8592      314.54311      14312.109      1.3377326      0.71702541   
      9200  -9111.6306     -9190.6807      79.050035      9987.5637      318.68561      14300.814      1.3387891      0.71702541   
      9300  -9108.2861     -9187.2922      79.006188      9235.9327      318.50884      14293.211      1.3395013      0.71702541   
      9400  -9109.5913     -9187.8221      78.230782      8776.1028      315.38284      14297.217      1.339126       0.71702541   
      9500  -9110.2884     -9191.2936      81.005181      7104.2399      326.56767      14314.044      1.3375518      0.71702541   
      9600  -9111.559      -9189.3405      77.781518      8484.8644      313.57166      14339.576      1.3351702      0.71702541   
      9700  -9113.163      -9190.8618      77.698814      7160.7649      313.23824      14363.72       1.332926       0.71702541   
      9800  -9112.3231     -9188.6827      76.359599      5654.0573      307.83927      14380.532      1.3313676      0.71702541   
      9900  -9113.4138     -9191.1512      77.737398      4607.153       313.39379      14388.048      1.3306721      0.71702541   
     10000  -9112.703      -9190.0872      77.384188      8726.2794      311.96984      14381.094      1.3313156      0.66938455   
     10100  -9110.2419     -9187.8863      77.644408      10828.53       313.01891      14365.571      1.3327541      0.66938455   
     10200  -9109.466      -9190.8162      81.350219      9848.1292      327.95867      14345.776      1.3345931      0.66938455   
     10300  -9109.4457     -9188.1833      78.737611      7970.6985      317.42609      14332.401      1.3358386      0.66938455   
     10400  -9108.5184     -9186.9676      78.449198      8885.6357      316.26337      14330.718      1.3359955      0.66938455   
     10500  -9108.8404     -9186.3353      77.49498       7806.4861      312.4165       14340.706      1.335065       0.66938455   
     10600  -9106.493      -9187.955       81.461999      9672.7301      328.4093       14360.785      1.3331983      0.66938455   
     10700  -9108.693      -9186.4287      77.73571       5620.7063      313.38698      14388.17       1.3306608      0.66938455   
     10800  -9107.4565     -9188.0013      80.544829      5604.1387      324.71179      14418.566      1.3278557      0.66938455   
     10900  -9108.1496     -9186.0991      77.949526      6847.4967      314.24897      14443.944      1.3255227      0.66938455   
     11000  -9107.1488     -9187.8792      80.730398      6852.1948      325.4599       14460.009      1.32405        0.60144942   
     11100  -9107.7549     -9187.0253      79.270483      6271.8624      319.57433      14459.741      1.3240745      0.60144942   
     11200  -9108.5438     -9184.8562      76.312448      7156.3582      307.64919      14443.616      1.3255528      0.60144942   
     11300  -9108.1841     -9188.9615      80.777346      7278.3104      325.64916      14417.072      1.3279932      0.60144942   
     11400  -9109.6057     -9189.0814      79.47566       5024.278       320.40149      14384.255      1.331023       0.60144942   
     11500  -9108.8753     -9188.4808      79.605514      8063.0969      320.92499      14354.001      1.3338284      0.60144942   
     11600  -9107.4805     -9182.8651      75.384584      8017.3934      303.90856      14333.21       1.3357632      0.60144942   
     11700  -9107.8368     -9187.493       79.656185      8471.705       321.12927      14331.76       1.3358983      0.60144942   
     11800  -9107.446      -9187.2107      79.764712      8703.4436      321.56679      14341.505      1.3349906      0.60144942   
     11900  -9108.5908     -9186.9445      78.353748      7235.1154      315.87857      14361.43       1.3331384      0.60144942   
     12000  -9108.8412     -9186.8787      78.037453      8870.6914      314.60344      14387.29       1.3307422      0.70056313   
     12100  -9111.507      -9189.1062      77.599267      10220.255      312.83692      14409.504      1.3286907      0.70056313   
     12200  -9109.0141     -9188.7942      79.780109      8383.5533      321.62886      14419.756      1.3277461      0.70056313   
     12300  -9109.3119     -9188.1061      78.794188      8201.2451      317.65418      14416.944      1.328005       0.70056313   
     12400  -9106.7928     -9186.4951      79.702301      5786.5042      321.31518      14407.366      1.3288879      0.70056313   
     12500  -9104.6674     -9184.6402      79.972848      9687.6522      322.40588      14391.614      1.3303424      0.70056313   
     12600  -9105.1666     -9184.808       79.641448      8152.4281      321.06986      14379.599      1.331454       0.70056313   
     12700  -9104.718      -9186.5163      81.798332      8234.8266      329.76521      14374.13       1.3319605      0.70056313   
     12800  -9107.1319     -9186.9632      79.831343      7623.0784      321.83541      14377.858      1.3316152      0.70056313   
     12900  -9107.8796     -9189.0263      81.146732      5996.8082      327.13832      14386.681      1.3307986      0.70056313   
     13000  -9107.3137     -9187.1192      79.805528      6049.003       321.73133      14398.775      1.3296808      0.63799956   
     13100  -9106.6008     -9187.7056      81.104718      7062.3758      326.96894      14410.064      1.3286391      0.63799956   
     13200  -9106.5241     -9187.5634      81.039275      7071.701       326.70512      14418.486      1.3278631      0.63799956   
     13300  -9107.3268     -9186.7564      79.429571      7760.6947      320.21569      14427.531      1.3270306      0.63799956   
     13400  -9106.2091     -9188.3209      82.111813      7916.9056      331.02899      14433.019      1.326526       0.63799956   
     13500  -9106.1183     -9187.0485      80.930239      7418.8908      326.26554      14432.546      1.3265695      0.63799956   
     13600  -9107.1149     -9187.1776      80.062631      6343.3836      322.76783      14427.351      1.3270472      0.63799956   
     13700  -9107.4409     -9189.3216      81.880684      5299.5317      330.09721      14417.58       1.3279464      0.63799956   
     13800  -9106.4351     -9187.6882      81.253083      7024.4883      327.56707      14407.915      1.3288373      0.63799956   
     13900  -9108.0206     -9188.1979      80.177317      6333.7144      323.23018      14397.775      1.3297731      0.63799956   
     14000  -9110.0126     -9189.6722      79.65962       6931.9145      321.14312      14384.523      1.3309982      0.73474219   
     14100  -9110.8278     -9189.315       78.487176      8062.9979      316.41648      14369.56       1.3323842      0.73474219   
     14200  -9109.5331     -9189.3514      79.818359      5991.1093      321.78306      14357.237      1.3335278      0.73474219   
     14300  -9110.6591     -9189.9987      79.339517      7448.7803      319.85264      14352.073      1.3340076      0.73474219   
     14400  -9110.8663     -9190.6581      79.79184       7350.4278      321.67615      14351.491      1.3340618      0.73474219   
     14500  -9109.2677     -9187.4892      78.22145       7400.4585      315.34522      14358.644      1.3333972      0.73474219   
     14600  -9108.2686     -9186.3915      78.122911      6488.6424      314.94796      14376.746      1.3317183      0.73474219   
     14700  -9108.7449     -9187.7505      79.005646      5744.0647      318.50666      14400.241      1.3295455      0.73474219   
     14800  -9110.5197     -9188.3198      77.800109      6797.3821      313.6466       14419.1        1.3278065      0.73474219   
     14900  -9108.7014     -9187.4023      78.700854      8843.5597      317.27791      14430.825      1.3267276      0.73474219   
     15000  -9109.0085     -9189.0121      80.003651      7862.8143      322.53006      14438.166      1.3260531      0.69427231   
     15100  -9108.9169     -9188.3222      79.405269      9343.8696      320.11771      14436.835      1.3261754      0.69427231   
     15200  -9108.2308     -9186.7845      78.55365       9675.1013      316.68446      14425.656      1.327203       0.69427231   
     15300  -9106.8927     -9187.8229      80.930256      7492.2665      326.26561      14410.456      1.328603       0.69427231   
     15400  -9106.6495     -9186.5505      79.900953      7050.568       322.11604      14391.902      1.3303158      0.69427231   
     15500  -9108.5759     -9188.0188      79.442956      9606.6171      320.26965      14373.106      1.3320555      0.69427231   
     15600  -9108.368      -9188.9499      80.581887      9911.4862      324.86118      14362.028      1.333083       0.69427231   
     15700  -9106.7896     -9187.4367      80.647095      10795.855      325.12406      14361.213      1.3331586      0.69427231   
     15800  -9105.917      -9186.0323      80.115276      9328.449       322.98007      14372.838      1.3320803      0.69427231   
     15900  -9106.8286     -9187.1905      80.361912      8160.9213      323.97437      14396.457      1.3298949      0.69427231   
     16000  -9105.6955     -9186.2378      80.542263      7659.0635      324.70144      14427.544      1.3270294      0.6576815    
     16100  -9106.2865     -9185.6392      79.352693      7479.5184      319.90576      14461.051      1.3239545      0.6576815    
     16200  -9105.6462     -9187.0417      81.39555       8433.2692      328.14142      14487.753      1.3215145      0.6576815    
     16300  -9107.0152     -9186.4537      79.43856       6704.0749      320.25193      14499.171      1.3204737      0.6576815    
     16400  -9106.2433     -9188.159       81.915746      6389.99        330.23856      14494.07       1.3209384      0.6576815    
     16500  -9106.785      -9187.391       80.605987      8048.7875      324.95834      14472.25       1.3229301      0.6576815    
     16600  -9106.8822     -9188.5142      81.631986      7023.5614      329.09459      14433.705      1.326463       0.6576815    
     16700  -9108.0599     -9186.2877      78.227766      9287.8938      315.37068      14385.267      1.3309294      0.6576815    
     16800  -9108.2934     -9186.6696      78.376245      10292.031      315.96927      14342.435      1.3349041      0.6576815    
     16900  -9111.1933     -9190.4525      79.25918       11454.762      319.52877      14314.28       1.3375297      0.6576815    
     17000  -9108.7047     -9188.0879      79.383141      11194.897      320.02851      14299.162      1.3389438      0.67074176   
     17100  -9107.5174     -9187.985       80.467552      9411.2473      324.40024      14298.995      1.3389595      0.67074176   
     17200  -9108.2491     -9187.4842      79.235124      9575.0882      319.43179      14314.592      1.3375005      0.67074176   
     17300  -9110.9871     -9187.7561      76.768976      7389.7315      309.48965      14344.766      1.3346871      0.67074176   
     17400  -9110.7455     -9188.4552      77.709759      6384.1689      313.28237      14382.915      1.331147       0.67074176   
     17500  -9112.182      -9191.5355      79.353491      7865.2582      319.90897      14415.97       1.3280947      0.67074176   
     17600  -9110.0936     -9189.4056      79.312049      7355.3638      319.7419       14438.195      1.3260504      0.67074176   
     17700  -9108.429      -9186.5428      78.113821      7510.456       314.91132      14449.577      1.3250058      0.67074176   
     17800  -9105.5272     -9186.4856      80.958402      7383.5471      326.37908      14451.863      1.3247963      0.67074176   
     17900  -9105.5018     -9186.1731      80.671387      8310.2735      325.222        14442.779      1.3256296      0.67074176   
     18000  -9106.3637     -9186.489       80.125361      9219.3128      323.02072      14428.391      1.3269515      0.6484221    
     18100  -9104.9982     -9186.6202      81.622069      10305.563      329.05461      14409.651      1.3286772      0.6484221    
     18200  -9106.915      -9188.3187      81.403744      9025.2798      328.17445      14392.838      1.3302293      0.6484221    
     18300  -9108.0279     -9186.4079      78.379957      8446.0068      315.98423      14380.949      1.331329       0.6484221    
     18400  -9108.1573     -9188.6689      80.511601      9436.6887      324.57783      14376.095      1.3317785      0.6484221    
     18500  -9109.2156     -9188.3126      79.09695       8337.8597      318.87474      14372.693      1.3320937      0.6484221    
     18600  -9109.2333     -9190.8417      81.608487      8817.0986      328.99986      14369.353      1.3324034      0.6484221    
     18700  -9109.3637     -9191.0521      81.688411      7688.5377      329.32207      14365.92       1.3327218      0.6484221    
     18800  -9110.1783     -9186.7644      76.586087      8348.4847      308.75235      14359.887      1.3332817      0.6484221    
     18900  -9111.3597     -9189.7067      78.347015      9341.4734      315.85142      14355.596      1.3336802      0.6484221    
     19000  -9111.2506     -9190.5623      79.31169       10975.776      319.74046      14352.666      1.3339525      0.61481068   
     19100  -9110.4262     -9189.4868      79.060656      9229.3292      318.72843      14352.633      1.3339556      0.61481068   
     19200  -9109.076      -9188.3776      79.301556      5322.1038      319.6996       14359.92       1.3332787      0.61481068   
     19300  -9108.0132     -9187.3491      79.335901      7354.4757      319.83806      14368.379      1.3324937      0.61481068   
     19400  -9109.4312     -9185.8187      76.387463      6393.6845      307.95161      14376.419      1.3317485      0.61481068   
     19500  -9108.7879     -9187.1371      78.349222      10361.593      315.86032      14389.586      1.3305299      0.61481068   
     19600  -9108.7209     -9188.7527      80.031866      7871.8568      322.64381      14399.415      1.3296217      0.61481068   
     19700  -9107.2006     -9186.8738      79.673194      9102.6657      321.19784      14404.612      1.329142       0.61481068   
     19800  -9106.7621     -9186.2876      79.525483      9075.9947      320.60235      14410.104      1.3286354      0.61481068   
     19900  -9106.0046     -9186.3165      80.311895      5712.965       323.77272      14408.432      1.3287896      0.61481068   
     20000  -9106.2061     -9186.1715      79.965334      8921.5249      322.37558      14397.692      1.3297808      0.67187052   
     20100  -9106.9314     -9187.6299      80.698553      8237.2089      325.33151      14387.749      1.3306998      0.67187052   
     20200  -9105.9758     -9186.3249      80.349127      7704.6306      323.92282      14379.689      1.3314457      0.67187052   
     20300  -9107.0669     -9187.8998      80.832851      4498.6372      325.87293      14380.362      1.3313834      0.67187052   
     20400  -9107.8511     -9188.3392      80.488154      6726.575       324.4833       14385.789      1.3308811      0.67187052   
     20500  -9106.7074     -9184.1687      77.461294      7356.7322      312.28069      14392.576      1.3302535      0.67187052   
     20600  -9108.5327     -9187.6756      79.142848      8473.0945      319.05978      14401.716      1.3294093      0.67187052   
     20700  -9109.7347     -9190.3298      80.595124      6779.2281      324.91455      14407.421      1.3288829      0.67187052   
     20800  -9108.8363     -9187.9658      79.129518      5743.2199      319.00604      14404.339      1.3291672      0.67187052   
     20900  -9108.5252     -9187.518       78.992804      9939.0408      318.45488      14391.894      1.3303166      0.67187052   
     21000  -9107.2528     -9187.2527      79.999849      10057.699      322.51473      14370.605      1.3322873      0.62241619   
     21100  -9107.4718     -9188.1451      80.673373      8230.96        325.23         14349.12       1.3342822      0.62241619   
     21200  -9110.0053     -9188.6641      78.658813      8652.9924      317.10842      14335.305      1.335568       0.62241619   
     21300  -9108.1654     -9188.1319      79.966446      6044.3026      322.38007      14327.263      1.3363177      0.62241619   
     21400  -9109.7577     -9189.004       79.246302      6159.2123      319.47685      14323.675      1.3366524      0.62241619   
     21500  -9111.9995     -9190.5949      78.595343      8616.3961      316.85255      14323.812      1.3366396      0.62241619   
     21600  -9111.628      -9190.1172      78.489295      6687.9732      316.42502      14323.917      1.3366299      0.62241619   
     21700  -9110.86       -9190.6906      79.830562      8243.5075      321.83226      14323.602      1.3366592      0.62241619   
     21800  -9110.1807     -9187.9088      77.728132      7974.3747      313.35643      14322.125      1.3367971      0.62241619   
     21900  -9111.1441     -9189.236       78.091904      8722.6081      314.82296      14322.664      1.3367468      0.62241619   
     22000  -9110.1437     -9188.5856      78.441943      7125.7134      316.23412      14327.613      1.336285       0.6466169    
     22100  -9110.4306     -9188.9624      78.531849      5000.9157      316.59657      14338.709      1.335251       0.6466169    
     22200  -9110.3102     -9189.4949      79.184699      5592.9168      319.2285       14351.231      1.3340859      0.6466169    
     22300  -9108.183      -9189.0061      80.823073      7773.9918      325.83351      14363.508      1.3329456      0.6466169    
     22400  -9107.6885     -9187.4564      79.767869      7443.2868      321.57952      14373.725      1.3319981      0.6466169    
     22500  -9109.4328     -9188.4234      78.99052       8007.0034      318.44568      14375.487      1.3318348      0.6466169    
     22600  -9109.349      -9187.9872      78.638226      7572.9706      317.02542      14369.485      1.3323912      0.6466169    
     22700  -9108.1818     -9187.8701      79.68831       6366.6187      321.25878      14358.768      1.3333856      0.6466169    
     22800  -9107.9135     -9186.3228      78.409282      7499.0015      316.10245      14345.846      1.3345867      0.6466169    
     22900  -9108.9431     -9187.4646      78.521453      10424.133      316.55466      14338.419      1.3352779      0.6466169    
     23000  -9111.9483     -9189.5606      77.612362      8471.0816      312.88971      14334.482      1.3356447      0.68452346   
     23100  -9109.675      -9186.8825      77.207455      7316.232       311.25736      14330.495      1.3360162      0.68452346   
     23200  -9110.228      -9188.2959      78.067944      5930.6701      314.72637      14328.65       1.3361883      0.68452346   
     23300  -9109.8913     -9187.0696      77.178308      7408.1684      311.13985      14335.95       1.3355079      0.68452346   
     23400  -9108.6253     -9187.8528      79.227434      6393.5646      319.40078      14349.233      1.3342716      0.68452346   
     23500  -9108.6423     -9188.7758      80.133451      5960.7295      323.05334      14366.262      1.33269        0.68452346   
     23600  -9108.4582     -9186.5124      78.05416       6494.8775      314.6708       14381.753      1.3312546      0.68452346   
     23700  -9108.8923     -9188.5003      79.607989      8488.9848      320.93497      14397.612      1.3297882      0.68452346   
     23800  -9109.9626     -9189.5034      79.540772      7674.57        320.66399      14407.342      1.3288902      0.68452346   
     23900  -9107.7116     -9188.2134      80.501841      8407.3915      324.53848      14408.285      1.3288031      0.68452346   
     24000  -9108.686      -9185.0057      76.319676      8810.1182      307.67832      14404.573      1.3291456      0.65682498   
     24100  -9107.2433     -9186.354       79.1107        7107.3067      318.93018      14399.187      1.3296427      0.65682498   
     24200  -9107.9064     -9190.3879      82.481538      11130.034      332.51951      14396.688      1.3298735      0.65682498   
     24300  -9107.392      -9186.5491      79.157054      10853.958      319.11705      14388.712      1.3306107      0.65682498   
     24400  -9107.1285     -9187.3056      80.177165      9573.664       323.22957      14382.239      1.3312096      0.65682498   
     24500  -9107.8414     -9188.1354      80.294052      10434.236      323.70079      14379.054      1.3315045      0.65682498   
     24600  -9107.9807     -9185.8904      77.909736      8500.7757      314.08856      14379.613      1.3314527      0.65682498   
     24700  -9109.2598     -9186.571       77.311126      9314.4837      311.6753       14385.21       1.3309347      0.65682498   
     24800  -9108.7359     -9189.4589      80.722984      8753.5431      325.43001      14393.027      1.3302118      0.65682498   
     24900  -9109.8481     -9190.0595      80.211382      10042.733      323.36751      14396.577      1.3298838      0.65682498   
     25000  -9110.6701     -9189.0465      78.376345      7818.0145      315.96967      14395.177      1.3300131      0.6905132    
     25100  -9108.471      -9189.4641      80.993086      5756.4007      326.51891      14391.894      1.3303165      0.6905132    
     25200  -9109.7656     -9187.9158      78.150248      7764.4081      315.05817      14384.944      1.3309593      0.6905132    
     25300  -9109.3081     -9188.2306      78.922489      8762.8221      318.17142      14377.073      1.3316879      0.6905132    
     25400  -9108.464      -9187.4783      79.014312      7138.6372      318.54159      14368.079      1.3325215      0.6905132    
     25500  -9108.0697     -9188.4438      80.374103      7062.1616      324.02351      14364.387      1.332864       0.6905132    
     25600  -9106.7488     -9187.9663      81.217433      9891.7731      327.42335      14365.383      1.3327716      0.6905132    
     25700  -9105.8074     -9187.3183      81.510876      10596.985      328.60635      14375.738      1.3318116      0.6905132    
     25800  -9106.8925     -9188.2035      81.310969      8715.4546      327.80043      14395.705      1.3299643      0.6905132    
     25900  -9106.89       -9186.9459      80.055895      8917.319       322.74068      14423.577      1.3273943      0.6905132    
     26000  -9107.0396     -9185.1638      78.124225      5202.9384      314.95326      14452.06       1.3247783      0.73418831   
     26100  -9107.7471     -9188.1687      80.421581      6773.3035      324.21492      14476.523      1.3225396      0.73418831   
     26200  -9108.3946     -9186.4991      78.104498      8811.3249      314.87373      14487.848      1.3215058      0.73418831   
     26300  -9107.3533     -9187.0834      79.730074      5930.3115      321.42715      14481.425      1.3220919      0.73418831   
     26400  -9107.0635     -9185.0689      78.005372      6778.9152      314.47411      14454.972      1.3245114      0.73418831   
     26500  -9104.5532     -9186.1921      81.638923      8374.7272      329.12256      14419.415      1.3277775      0.73418831   
     26600  -9105.843      -9185.5754      79.732452      8014.7698      321.43673      14378.037      1.3315987      0.73418831   
     26700  -9107.9594     -9185.6853      77.725839      6391.5719      313.34719      14340.802      1.335056       0.73418831   
     26800  -9107.2073     -9187.4574      80.250111      6414.3543      323.52364      14314.398      1.3375186      0.73418831   
     26900  -9106.1836     -9187.0282      80.844571      9652.4195      325.92018      14304.001      1.3384909      0.73418831   
     27000  -9108.0724     -9189.1757      81.103218      8600.8653      326.9629       14314.699      1.3374906      0.70202543   
     27100  -9109.3595     -9189.7175      80.358026      9701.8349      323.9587       14337.184      1.3353929      0.70202543   
     27200  -9109.9098     -9188.1062      78.196467      6475.4155      315.2445       14365.533      1.3327577      0.70202543   
     27300  -9108.2906     -9186.3842      78.093647      6908.6168      314.82999      14396.992      1.3298455      0.70202543   
     27400  -9106.8341     -9188.5072      81.673094      6136.6484      329.26032      14426.22       1.3271512      0.70202543   
     27500  -9108.4997     -9187.4279      78.928167      8669.1703      318.19431      14443.856      1.3255307      0.70202543   
     27600  -9107.2865     -9185.7978      78.511379      9237.0732      316.51405      14447.896      1.3251601      0.70202543   
     27700  -9107.6399     -9186.2646      78.624704      6387.4976      316.97091      14441.357      1.32576        0.70202543   
     27800  -9106.9312     -9187.5459      80.614692      4636.1071      324.99343      14427.762      1.3270093      0.70202543   
     27900  -9107.8338     -9189.8624      82.028619      7880.0305      330.6936       14410.101      1.3286357      0.70202543   
     28000  -9108.9439     -9187.1567      78.212807      7974.892       315.31037      14387.463      1.3307263      0.69080577   
     28100  -9107.1753     -9187.6678      80.492488      7000.9341      324.50077      14365.329      1.3327766      0.69080577   
     28200  -9106.965      -9185.6785      78.713442      9863.5254      317.32865      14349.647      1.3342332      0.69080577   
     28300  -9107.2545     -9186.3905      79.135996      11277.605      319.03215      14346.588      1.3345177      0.69080577   
     28400  -9106.2453     -9188.7114      82.466089      8565.8096      332.45723      14356.451      1.3336008      0.69080577   
     28500  -9105.3083     -9186.1178      80.809461      8380.6712      325.77863      14375.848      1.3318014      0.69080577   
     28600  -9107.2301     -9186.7516      79.521495      9492.4911      320.58627      14401.067      1.3294691      0.69080577   
     28700  -9105.3891     -9186.6903      81.301265      11243.649      327.76131      14427.049      1.3270749      0.69080577   
     28800  -9105.1054     -9185.3458      80.240354      7245.6541      323.48431      14451.252      1.3248523      0.69080577   
     28900  -9107.2751     -9188.5226      81.247492      6771           327.54453      14470.011      1.3231347      0.69080577   
     29000  -9108.0044     -9187.2861      79.281778      8180.6498      319.61987      14475.603      1.3226236      0.71385969   
     29100  -9107.7802     -9187.5885      79.808349      7924.0352      321.74271      14466.061      1.3234961      0.71385969   
     29200  -9107.9183     -9188.5805      80.662206      7632.5773      325.18498      14444.193      1.3254998      0.71385969   
     29300  -9107.9319     -9188.822       80.890046      7614.3403      326.10351      14418.14       1.3278949      0.71385969   
     29400  -9107.3331     -9186.0653      78.732275      8829.7203      317.40458      14392.663      1.3302454      0.71385969   
     29500  -9105.4451     -9184.6367      79.191646      8423.9816      319.2565       14370.827      1.3322667      0.71385969   
     29600  -9104.7942     -9186.4447      81.650564      10790.247      329.16949      14358.935      1.3333701      0.71385969   
     29700  -9104.3034     -9187.1727      82.869257      7250.871       334.08258      14359.408      1.3333262      0.71385969   
     29800  -9103.0921     -9184.5506      81.458483      8761.545       328.39513      14371.024      1.3322485      0.71385969   
     29900  -9104.3996     -9185.9047      81.505104      6445.8619      328.58308      14391.36       1.3303659      0.71385969   
     30000  -9105.1549     -9186.3527      81.197841      5350.9199      327.34437      14416.631      1.3280339      0.79969016   
     30100  -9105.5963     -9185.0834      79.487108      6414.4998      320.44764      14442.365      1.3256676      0.79969016   
     30200  -9106.2053     -9185.2305      79.0252        6733.9756      318.58549      14462.442      1.3238272      0.79969016   
     30300  -9106.5343     -9188.6573      82.123031      6427.6043      331.07421      14465.933      1.3235078      0.79969016   
     30400  -9107.9947     -9187.6631      79.668442      4092.854       321.17868      14450.937      1.3248812      0.79969016   
     30500  -9105.7335     -9186.5931      80.85953       5642.4994      325.98048      14427.702      1.3270149      0.79969016   
     30600  -9105.947      -9185.7169      79.769922      4781.091       321.58779      14402.954      1.329295       0.79969016   
     30700  -9108.5094     -9189.2752      80.765788      8191.6648      325.60257      14374.214      1.3319528      0.79969016   
     30800  -9111.6096     -9189.6702      78.060594      9973.5752      314.69673      14345.708      1.3345995      0.79969016   
     30900  -9111.5611     -9189.4505      77.889383      8547.916       314.00651      14322.841      1.3367302      0.79969016   
     31000  -9111.7437     -9190.8332      79.089521      9699.2919      318.84479      14304.651      1.33843        0.6450228    
     31100  -9112.5459     -9191.3399      78.793973      9253.2525      317.65331      14294.241      1.3394047      0.6450228    
     31200  -9111.8323     -9191.1194      79.287173      9579.8725      319.64162      14292.539      1.3395643      0.6450228    
     31300  -9110.4491     -9189.6356      79.186478      10659.693      319.23567      14306.391      1.3382673      0.6450228    
     31400  -9111.0655     -9190.3886      79.323027      7064.3617      319.78616      14333.833      1.3357051      0.6450228    
     31500  -9112.6803     -9191.0279      78.347619      7287.6232      315.85386      14372.199      1.3321395      0.6450228    
     31600  -9112.3565     -9190.8935      78.536952      7995.5409      316.61714      14410.077      1.3286379      0.6450228    
     31700  -9112.0175     -9191.8885      79.870939      5304.6043      321.99504      14446.208      1.3253149      0.6450228    
     31800  -9109.8922     -9188.6251      78.732962      9230.5353      317.40735      14466.145      1.3234884      0.6450228    
     31900  -9109.7126     -9190.7647      81.052047      5571.6426      326.75661      14464.672      1.3236232      0.6450228    
     32000  -9107.4949     -9186.967       79.472003      5875.6166      320.38675      14442.654      1.3256411      0.63058868   
     32100  -9108.1151     -9189.5043      81.389196      7697.9591      328.1158       14410.274      1.3286197      0.63058868   
     32200  -9108.6039     -9189.2102      80.606341      9546.9696      324.95977      14371.905      1.3321668      0.63058868   
     32300  -9106.8601     -9188.6497      81.789615      9203.3823      329.73007      14335.002      1.3355963      0.63058868   
     32400  -9107.6062     -9187.7444      80.13827       8826.7866      323.07277      14311.634      1.337777       0.63058868   
     32500  -9106.5732     -9185.5554      78.982231      6683.3642      318.41226      14306.594      1.3382483      0.63058868   
     32600  -9106.3322     -9186.529       80.19684       9351.6074      323.30889      14320.826      1.3369183      0.63058868   
     32700  -9109.2331     -9190.1593      80.926156      8230.3018      326.24908      14350.21       1.3341808      0.63058868   
     32800  -9108.4788     -9189.7162      81.237473      8026.1186      327.50414      14384.306      1.3310183      0.63058868   
     32900  -9106.2487     -9187.7719      81.523194      8253.9869      328.65601      14411.076      1.3285458      0.63058868   
     33000  -9108.1406     -9186.6359      78.495274      8467.5664      316.44912      14431.735      1.326644       0.6611147    
     33100  -9110.7411     -9189.495       78.753957      6440.3007      317.49199      14443.355      1.3255767      0.6611147    
     33200  -9111.3701     -9191.7533      80.383217      5120.3317      324.06025      14440.973      1.3257953      0.6611147    
     33300  -9110.2462     -9190.4828      80.236561      6965.6866      323.46902      14425.217      1.3272434      0.6611147    
     33400  -9109.5643     -9188.4108      78.846496      11288.379      317.86505      14399.865      1.3295801      0.6611147    
     33500  -9108.7018     -9186.2174      77.515592      11442.815      312.49959      14372.439      1.3321173      0.6611147    
     33600  -9109.0319     -9189.9649      80.933061      9042.6573      326.27692      14350.398      1.3341633      0.6611147    
     33700  -9109.2131     -9187.68        78.466918      11450.416      316.33481      14335.823      1.3355198      0.6611147    
     33800  -9107.9968     -9188.7015      80.704669      11128.66       325.35617      14330.655      1.3360014      0.6611147    
     33900  -9107.4628     -9189.8726      82.409746      7442.7783      332.23009      14337.749      1.3353403      0.6611147    
     34000  -9107.5451     -9189.5614      82.016329      8879.5629      330.64405      14354.792      1.3337549      0.67817663   
     34100  -9106.0664     -9186.618       80.551588      8745.8462      324.73903      14378.471      1.3315585      0.67817663   
     34200  -9107.2346     -9187.4271      80.192443      8284.5749      323.29116      14405.968      1.3290169      0.67817663   
     34300  -9108.8516     -9187.4506      78.599033      9755.2013      316.86742      14429.346      1.3268637      0.67817663   
     34400  -9108.4503     -9190.8116      82.361347      6378.7441      332.03497      14445.483      1.3253814      0.67817663   
     34500  -9109.7975     -9187.5468      77.749338      6898.6682      313.44193      14448.97       1.3250616      0.67817663   
     34600  -9109.2335     -9187.2696      78.036142      8150.1994      314.59816      14439.899      1.3258939      0.67817663   
     34700  -9109.8802     -9189.355       79.474774      6314.6697      320.39792      14416.72       1.3280257      0.67817663   
     34800  -9107.3259     -9189.4432      82.117274      6074.2295      331.051        14384.53       1.3309976      0.67817663   
     34900  -9105.4271     -9185.2655      79.838412      7805.488       321.86391      14353.711      1.3338554      0.67817663   
     35000  -9106.8091     -9188.7871      81.977962      9399.3117      330.48938      14339.959      1.3351345      0.612238     
     35100  -9106.9847     -9188.9448      81.960077      8330.741       330.41727      14339.647      1.3351636      0.612238     
     35200  -9105.9378     -9186.2764      80.338592      8396.133       323.88035      14351.102      1.3340979      0.612238     
     35300  -9105.1776     -9186.7241      81.546581      6973.5029      328.75029      14372.065      1.3321519      0.612238     
     35400  -9107.3764     -9188.9682      81.591844      10399.798      328.93276      14397.745      1.3297759      0.612238     
     35500  -9106.9866     -9186.7252      79.738649      9180.4831      321.46172      14423.544      1.3273973      0.612238     
     35600  -9108.391      -9187.261       78.870016      7164.3119      317.95987      14446.744      1.3252657      0.612238     
     35700  -9106.6468     -9186.9774      80.330596      8011.0223      323.84812      14457.68       1.3242632      0.612238     
     35800  -9108.4228     -9185.8106      77.38779       6413.7405      311.98437      14454.201      1.324582       0.612238     
     35900  -9110.4412     -9188.5715      78.13025       5528.7218      314.97755      14431.702      1.326647       0.612238     
     36000  -9109.6095     -9190.2474      80.637885      6586.2146      325.08694      14395.579      1.329976       0.68486114   
     36100  -9109.039      -9188.9467      79.907656      11425.185      322.14306      14352.001      1.3340143      0.68486114   
     36200  -9107.8468     -9188.8289      80.982098      7194.156       326.47461      14309.168      1.3380075      0.68486114   
     36300  -9107.9382     -9188.4689      80.530658      10354.709      324.65466      14276.79       1.341042       0.68486114   
     36400  -9107.6589     -9188.1237      80.464737      12153.428      324.3889       14268.381      1.3418323      0.68486114   
     36500  -9107.2231     -9188.3282      81.105084      9762.6221      326.97042      14288.814      1.3399134      0.68486114   
     36600  -9107.9052     -9189.3553      81.450088      11401.77       328.36128      14331.175      1.3359528      0.68486114   
     36700  -9106.2362     -9185.3279      79.091671      8024.3995      318.85346      14382.526      1.3311831      0.68486114   
     36800  -9110.1015     -9188.9851      78.88356       4645.2557      318.01447      14438.202      1.3260498      0.68486114   
     36900  -9109.8635     -9188.303       78.439442      5145.1504      316.22404      14479.695      1.3222499      0.68486114   
     37000  -9108.4761     -9186.0996      77.62351       7200.3679      312.93466      14495.375      1.3208195      0.64580095   
     37100  -9110.1979     -9188.4945      78.296645      6627.1924      315.64836      14483.763      1.3218785      0.64580095   
     37200  -9109.682      -9188.4367      78.754715      5920.1798      317.49505      14444.767      1.3254471      0.64580095   
     37300  -9109.2292     -9188.7637      79.534512      8784.6998      320.63875      14385.179      1.3309376      0.64580095   
     37400  -9109.623      -9187.5081      77.885119      7015.981       313.98932      14318.694      1.3371174      0.64580095   
     37500  -9110.2311     -9189.6304      79.39932       5910.6037      320.09373      14267.518      1.3419135      0.64580095   
     37600  -9110.4206     -9189.3619      78.941228      8276.2234      318.24696      14236.208      1.3448648      0.64580095   
     37700  -9110.6079     -9187.8386      77.230668      6809.857       311.35094      14230.275      1.3454254      0.64580095   
     37800  -9111.5987     -9189.1563      77.557535      10665.791      312.66868      14251.293      1.3434412      0.64580095   
     37900  -9110.6678     -9188.5354      77.867572      8999.4221      313.91858      14290.887      1.3397191      0.64580095   
     38000  -9109.6245     -9190.264       80.639458      5644.7769      325.09327      14338.652      1.3352562      0.71644525   
     38100  -9108.7014     -9187.7196      79.018249      8399.8877      318.55746      14387.35       1.3307367      0.71644525   
     38200  -9107.6613     -9187.9742      80.312924      10215.623      323.77687      14430.016      1.326802       0.71644525   
     38300  -9107.172      -9186.847       79.674929      9090.1276      321.20483      14453.931      1.3246067      0.71644525   
     38400  -9103.4823     -9183.6062      80.12387       4450.9459      323.01471      14459.689      1.3240793      0.71644525   
     38500  -9102.801      -9186.6511      83.850064      6680.2434      338.03665      14453.53       1.3246435      0.71644525   
     38600  -9105.549      -9186.0341      80.48508       6534.1492      324.47091      14433.373      1.3264934      0.71644525   
     38700  -9107.6926     -9186.9051      79.212567      6980.2147      319.34085      14398.915      1.3296679      0.71644525   
     38800  -9105.0573     -9185.2081      80.150771      8213.8106      323.12316      14358.913      1.3333721      0.71644525   
     38900  -9105.0572     -9186.4355      81.378313      9382.3319      328.07193      14324.895      1.3365385      0.71644525   
     39000  -9103.5627     -9185.6206      82.057918      6174.6352      330.81171      14304.611      1.3384338      0.63703111   
     39100  -9104.771      -9185.0318      80.260777      9891.0379      323.56665      14304.582      1.3384365      0.63703111   
     39200  -9110.2476     -9189.2162      78.968684      8606.935       318.35765      14327.561      1.3362899      0.63703111   
     39300  -9110.1043     -9188.9433      78.838929      10331.505      317.83455      14360.826      1.3331946      0.63703111   
     39400  -9111.0479     -9189.0949      78.046944      8570.3408      314.64171      14394.302      1.330094       0.63703111   
     39500  -9109.5953     -9188.1447      78.549462      6461.8872      316.66758      14418.568      1.3278555      0.63703111   
     39600  -9111.919      -9188.7204      76.801422      7490.6633      309.62046      14431.04       1.3267079      0.63703111   
     39700  -9110.5248     -9188.1002      77.575412      7760.5133      312.74075      14423.787      1.3273751      0.63703111   
     39800  -9109.0014     -9189.4029      80.401538      6031.9849      324.13412      14400.077      1.3295606      0.63703111   
     39900  -9110.51       -9190.3633      79.853316      7440.0008      321.92399      14366.573      1.3326612      0.63703111   
     40000  -9110.2492     -9188.1735      77.924295      8968.6488      314.14725      14327.289      1.3363152      0.61862346   
     40100  -9109.4943     -9190.0565      80.562185      9428.2344      324.78176      14293.51       1.3394733      0.61862346   
     40200  -9110.5518     -9188.4143      77.86247       9016.8653      313.89801      14275.207      1.3411907      0.61862346   
     40300  -9108.5162     -9188.869       80.352801      9400.9416      323.93763      14271.087      1.3415778      0.61862346   
     40400  -9108.0236     -9188.5087      80.485155      9001.6724      324.47121      14287.446      1.3400417      0.61862346   
     40500  -9107.3249     -9187.5488      80.223913      7990.0129      323.41803      14321.608      1.3368453      0.61862346   
     40600  -9106.7869     -9186.0397      79.252796      8902.2001      319.50303      14367.416      1.332583       0.61862346   
     40700  -9109.6309     -9189.2159      79.58508       7166.1471      320.84261      14416.081      1.3280845      0.61862346   
     40800  -9110.7317     -9189.0515      78.319865      7812.7068      315.74197      14448.572      1.325098       0.61862346   
     40900  -9109.2711     -9187.9814      78.710306      7603.6736      317.31601      14457.958      1.3242378      0.61862346   
     41000  -9107.5852     -9187.4301      79.844881      8196.1649      321.88999      14446.914      1.3252501      0.70929746   
     41100  -9106.8728     -9188.3199      81.447098      10223.87       328.34923      14421.963      1.3275429      0.70929746   
     41200  -9108.4025     -9187.0863      78.683765      5420.0981      317.20901      14384.694      1.3309824      0.70929746   
     41300  -9108.7037     -9188.048       79.344266      7717.6559      319.87179      14344.889      1.3346757      0.70929746   
     41400  -9110.1771     -9188.8394      78.662298      8728.2007      317.12247      14315.244      1.3374396      0.70929746   
     41500  -9110.5704     -9190.0172      79.446838      10574.108      320.2853       14297.832      1.3390684      0.70929746   
     41600  -9111.6685     -9190.921       79.25252       9106.456       319.50192      14296.463      1.3391966      0.70929746   
     41700  -9111.9949     -9192.0492      80.054276      10892.049      322.73415      14306.767      1.3382321      0.70929746   
     41800  -9112.4482     -9189.4368      76.988661      11456.222      310.3753       14321.207      1.3368828      0.70929746   
     41900  -9112.0583     -9191.742       79.68366       7334.8569      321.24003      14337.514      1.3353622      0.70929746   
     42000  -9112.7649     -9191.4634      78.698493      10613.021      317.26839      14358.186      1.3334397      0.70609334   
     42100  -9111.5253     -9191.6757      80.150401      8297.1241      323.12167      14380.509      1.3313698      0.70609334   
     42200  -9111.0655     -9189.3889      78.323454      6425.2563      315.75644      14397.865      1.3297649      0.70609334   
     42300  -9109.8727     -9188.9635      79.090782      8992.4096      318.84988      14409.149      1.3287235      0.70609334   
     42400  -9108.6034     -9188.0872      79.483736      10614.693      320.43405      14418.697      1.3278436      0.70609334   
     42500  -9108.0869     -9187.756       79.669025      7933.5894      321.18103      14424.535      1.3273062      0.70609334   
     42600  -9109.3648     -9189.4923      80.127504      8246.2645      323.02936      14423.857      1.3273686      0.70609334   
     42700  -9112.2866     -9190.377       78.090384      5770.312       314.81683      14412.461      1.3284181      0.70609334   
     42800  -9112.1433     -9191.6241      79.480769      5500.592       320.42209      14388.367      1.3306427      0.70609334   
     42900  -9111.6811     -9189.4304      77.749372      8676.8537      313.44206      14351.926      1.3340213      0.70609334   
     43000  -9111.1796     -9190.1544      78.974758      8683.6656      318.38214      14312.524      1.3376938      0.67526663   
     43100  -9109.8342     -9189.4424      79.60812       9744.5846      320.9355       14281.303      1.3406182      0.67526663   
     43200  -9111.2542     -9188.7993      77.545029      10021.027      312.61826      14264.619      1.3421862      0.67526663   
     43300  -9108.7592     -9190.0204      81.261254      7984.8313      327.60001      14265.424      1.3421104      0.67526663   
     43400  -9109.995      -9187.884       77.889014      9916.8356      314.00502      14289.16       1.339881       0.67526663   
     43500  -9109.1555     -9188.0964      78.940911      8478.2488      318.24568      14334.409      1.3356514      0.67526663   
     43600  -9109.106      -9189.2718      80.165818      9183.8142      323.18382      14398.281      1.3297264      0.67526663   
     43700  -9107.208      -9186.8263      79.618315      7829.7066      320.9766       14463.996      1.323685       0.67526663   
     43800  -9107.0106     -9187.6082      80.597606      7196.7526      324.92455      14517.667      1.3187914      0.67526663   
     43900  -9108.7689     -9187.1939      78.425019      5069.4376      316.1659       14548.355      1.3160096      0.67526663   
     44000  -9108.8462     -9188.0372      79.190983      3815.9765      319.25383      14546.528      1.3161748      0.68740724   
     44100  -9109.0709     -9188.978       79.907046      7912.4858      322.1406       14512.215      1.3192869      0.68740724   
     44200  -9106.443      -9189.3047      82.8617        7007.4814      334.05212      14453.2        1.3246737      0.68740724   
     44300  -9107.021      -9187.9842      80.96321       9357.4344      326.39846      14387.169      1.3307535      0.68740724   
     44400  -9105.4703     -9188.1106      82.640241      10499.526      333.15932      14335.309      1.3355677      0.68740724   
     44500  -9106.0096     -9185.3813      79.371643      7883.6926      319.98215      14307.522      1.3381615      0.68740724   
     44600  -9105.799      -9186.5622      80.763219      8629.0208      325.59221      14305.328      1.3383667      0.68740724   
     44700  -9105.0697     -9185.9779      80.908157      6738.7432      326.17652      14325.295      1.3365012      0.68740724   
     44800  -9104.3412     -9185.2003      80.85906       7458.046       325.97859      14359.669      1.3333019      0.68740724   
     44900  -9106.0416     -9186.2082      80.166592      9159.4254      323.18694      14400.06       1.3295621      0.68740724   
     45000  -9106.4178     -9187.1356      80.717817      8297.185       325.40918      14437.68       1.3260977      0.64914849   
     45100  -9106.7711     -9187.9064      81.135354      5631.4292      327.09245      14463.3        1.3237487      0.64914849   
     45200  -9107.0056     -9186.3524      79.34679       4391.7169      319.88196      14470.362      1.3231027      0.64914849   
     45300  -9106.4531     -9187.3324      80.879272      7032.8155      326.06007      14459.694      1.3240788      0.64914849   
     45400  -9105.3459     -9186.2906      80.944653      8412.9288      326.32365      14437.339      1.3261291      0.64914849   
     45500  -9107.2536     -9187.2797      80.026159      8279.9439      322.6208       14408.353      1.3287969      0.64914849   
     45600  -9106.9918     -9185.8218      78.829977      5933.4675      317.79846      14372.636      1.3320991      0.64914849   
     45700  -9106.2219     -9188.7251      82.503202      8457.6562      332.60685      14339.969      1.3351336      0.64914849   
     45800  -9107.9781     -9186.0099      78.031789      9457.3874      314.58061      14316.84       1.3372905      0.64914849   
     45900  -9109.8891     -9188.4888      78.599739      9581.8004      316.87027      14306.635      1.3382444      0.64914849   
     46000  -9110.0488     -9189.7526      79.703744      6668.0245      321.321        14306.724      1.3382361      0.62627528   
     46100  -9109.4668     -9188.014       78.54718       9249.2169      316.65838      14317.314      1.3372463      0.62627528   
     46200  -9108.1446     -9188.2342      80.089572      8931.1377      322.87644      14341.911      1.3349529      0.62627528   
     46300  -9109.8583     -9189.9776      80.119311      8154.5163      322.99633      14374.714      1.3319065      0.62627528   
     46400  -9109.1919     -9187.1657      77.973824      5339.2287      314.34693      14409.432      1.3286974      0.62627528   
     46500  -9109.4986     -9187.883       78.384394      4829.6362      316.00212      14442.233      1.3256796      0.62627528   
     46600  -9111.0651     -9189.6344      78.569285      5644.5992      316.7475       14458.722      1.3241678      0.62627528   
     46700  -9110.5358     -9189.1239      78.588155      7318.9146      316.82357      14450.487      1.3249225      0.62627528   
     46800  -9111.0939     -9188.2221      77.128153      6586.4991      310.93765      14422.455      1.3274977      0.62627528   
     46900  -9109.7412     -9189.2994      79.558163      8589.4121      320.7341       14382.077      1.3312246      0.62627528   
     47000  -9108.2225     -9187.3186      79.096114      8806.4689      318.87137      14335.609      1.3355397      0.71106059   
     47100  -9110.5968     -9189.5936      78.996836      8640.9742      318.47114      14292.969      1.339524       0.71106059   
     47200  -9109.3771     -9188.4275      79.050407      11342.215      318.68711      14262.037      1.3424292      0.71106059   
     47300  -9109.5879     -9190.0346      80.446678      10022.9        324.31609      14250.762      1.3434913      0.71106059   
     47400  -9110.1001     -9190.2201      80.120007      8363.8157      322.99914      14261.626      1.3424679      0.71106059   
     47500  -9111.4837     -9190.0549      78.571238      7313.9533      316.75537      14295.028      1.3393311      0.71106059   
     47600  -9110.5934     -9189.4972      78.90373       9831.7146      318.09579      14346.693      1.3345078      0.71106059   
     47700  -9107.8654     -9188.5884      80.722942      6139.2627      325.42984      14401.93       1.3293895      0.71106059   
     47800  -9108.0655     -9187.2847      79.21923       7573.5893      319.36771      14452.116      1.3247731      0.71106059   
     47900  -9108.1825     -9186.2456      78.063147      7270.1298      314.70703      14492.651      1.3210678      0.71106059   
     48000  -9109.493      -9187.9248      78.431821      7422.239       316.19331      14512.819      1.3192319      0.67463761   
     48100  -9107.7833     -9187.8245      80.041146      4541.4983      322.68122      14501.315      1.3202785      0.67463761   
     48200  -9106.951      -9188.4874      81.536451      10425.976      328.70945      14457.988      1.3242351      0.67463761   
     48300  -9106.0042     -9187.418       81.41381       9598.2848      328.21503      14394.67       1.33006        0.67463761   
     48400  -9106.936      -9186.1981      79.262075      8035.1934      319.54044      14327.746      1.3362726      0.67463761   
     48500  -9103.6873     -9183.6331      79.94584       11306.026      322.29699      14273.806      1.3413223      0.67463761   
     48600  -9105.3446     -9188.7332      83.388631      6109.0323      336.17641      14248.219      1.3437311      0.67463761   
     48700  -9106.9838     -9188.3216      81.337709      8178.5965      327.90824      14251.284      1.3434421      0.67463761   
     48800  -9108.0585     -9187.1779      79.11942       7748.061       318.96533      14285.064      1.3402652      0.67463761   
     48900  -9107.5442     -9189.5092      81.964951      8994.9759      330.43693      14349.382      1.3342578      0.67463761   
     49000  -9109.1064     -9189.3699      80.263459      7382.7025      323.57746      14423.441      1.3274068      0.68042582   
     49100  -9110.2626     -9188.3069      78.044382      5558.6125      314.63138      14491.31       1.32119        0.68042582   
     49200  -9111.0187     -9187.5104      76.491641      4952.0384      308.37159      14536.565      1.3170769      0.68042582   
     49300  -9111.2244     -9189.4647      78.240297      4539.2039      315.4212       14552.185      1.3156632      0.68042582   
     49400  -9110.0348     -9188.7842      78.749412      5845.5963      317.47367      14525.679      1.318064       0.68042582   
     49500  -9109.3261     -9188.8297      79.50353       8354.9473      320.51385      14465.992      1.3235024      0.68042582   
     49600  -9106.0276     -9187.5416      81.514027      9445.4158      328.61905      14384.463      1.3310037      0.68042582   
     49700  -9109.3069     -9188.5947      79.287766      7592.2378      319.64401      14303.429      1.3385444      0.68042582   
     49800  -9109.1002     -9188.6152      79.515011      8485.8545      320.56013      14235.109      1.3449686      0.68042582   
     49900  -9110.1963     -9188.775       78.578684      9843.7894      316.78539      14196.715      1.348606       0.68042582   
     50000  -9111.8907     -9189.6368      77.746036      9171.7015      313.42861      14194.296      1.3488358      0.7693271    
     50100  -9110.251      -9188.9612      78.710167      10566.272      317.31545      14223.339      1.3460816      0.7693271    
     50200  -9109.9403     -9189.1361      79.195839      9706.3134      319.27341      14282.844      1.3404735      0.7693271    
     50300  -9110.1337     -9191.3326      81.198837      8643.6608      327.34838      14361.941      1.333091       0.7693271    
     50400  -9108.5381     -9187.6969      79.158754      6486.6722      319.1239       14441.718      1.3257269      0.7693271    
     50500  -9109.2244     -9186.1502      76.925827      6098.0707      310.12199      14506.196      1.3198343      0.7693271    
     50600  -9109.3017     -9187.2098      77.908047      4745.1528      314.08175      14543.851      1.3164171      0.7693271    
     50700  -9108.8541     -9188.5368      79.682649      6667.6091      321.23596      14547.225      1.3161118      0.7693271    
     50800  -9107.1389     -9188.2613      81.122455      7438.9105      327.04045      14516.885      1.3188624      0.7693271    
     50900  -9108.4533     -9187.3945      78.941217      8453.9548      318.24692      14458.643      1.3241751      0.7693271    
     51000  -9109.786      -9187.7762      77.990218      6771.9464      314.41302      14385.297      1.3309266      0.80509413   
     51100  -9106.727      -9186.4572      79.730263      7988.2957      321.42791      14312.801      1.3376679      0.80509413   
     51200  -9108.4334     -9188.5187      80.085248      6466.1512      322.85901      14257.764      1.3428315      0.80509413   
     51300  -9110.426      -9190.2228      79.796796      10441.807      321.69613      14229.24       1.3455234      0.80509413   
     51400  -9110.9454     -9189.4388      78.493448      9266.5488      316.44176      14230.62       1.3453929      0.80509413   
     51500  -9112.6581     -9191.2051      78.547         9300.0452      316.65765      14257.21       1.3428837      0.80509413   
     51600  -9113.7146     -9190.1431      76.428528      9095.1722      308.11716      14302.74       1.3386089      0.80509413   
     51700  -9112.6344     -9191.4136      78.779255      8915.9368      317.59398      14356.162      1.3336276      0.80509413   
     51800  -9110.5164     -9188.543       78.026597      5878.1838      314.55968      14402.957      1.3292947      0.80509413   
     51900  -9106.8991     -9187.2671      80.368048      6125.2685      323.9991       14437.886      1.3260788      0.80509413   
     52000  -9105.0933     -9186.4041      81.310862      5752.3347      327.8          14461.403      1.3239224      0.6811575    
     52100  -9106.0599     -9185.2078      79.147897      7278.4343      319.08013      14470.361      1.3231027      0.6811575    
     52200  -9108.0818     -9187.4867      79.404872      4405.1008      320.11611      14461.023      1.3239571      0.6811575    
     52300  -9108.2829     -9186.2017      77.918776      7010.7557      314.12501      14430.768      1.3267329      0.6811575    
     52400  -9108.1969     -9187.7693      79.572413      6270.2403      320.79154      14388.774      1.330605       0.6811575    
     52500  -9108.7835     -9186.6815      77.897992      9116.9756      314.04122      14344.902      1.3346745      0.6811575    
     52600  -9110.944      -9189.6094      78.665402      9490.215       317.13498      14306.408      1.3382657      0.6811575    
     52700  -9113.1076     -9191.8103      78.702695      9689.2186      317.28533      14271.676      1.3415225      0.6811575    
     52800  -9110.8875     -9189.0332      78.14565       7294.1503      315.03963      14245.289      1.3440075      0.6811575    
     52900  -9108.6096     -9187.9881      79.378515      9555.0494      320.00986      14238.872      1.3446132      0.6811575    
     53000  -9109.9057     -9190.8383      80.932682      9690.5714      326.27539      14260.329      1.3425899      0.69257523   
     53100  -9110.1873     -9187.6814      77.494114      6998.4124      312.41301      14301.009      1.3387709      0.69257523   
     53200  -9110.024      -9189.3636      79.339662      6148.1866      319.85322      14354.144      1.3338152      0.69257523   
     53300  -9109.4884     -9187.0539      77.565527      6172.1577      312.7009       14405.34       1.3290748      0.69257523   
     53400  -9109.1976     -9188.0426      78.845042      2791.2866      317.85919      14446.679      1.3252717      0.69257523   
     53500  -9109.4226     -9189.1191      79.696457      4761.2296      321.29162      14468.166      1.3233035      0.69257523   
     53600  -9110.6755     -9190.1099      79.434382      4839.7429      320.23508      14463.25       1.3237533      0.69257523   
     53700  -9110.6524     -9190.493       79.840582      7474.763       321.87265      14434.405      1.3263986      0.69257523   
     53800  -9109.6388     -9188.4838      78.844972      8021.0913      317.85891      14387.106      1.3307593      0.69257523   
     53900  -9110.2648     -9191.2627      80.997946      8340.5228      326.5385       14331.341      1.3359375      0.69257523   
     54000  -9109.1139     -9188.741       79.627127      7895.8547      321.01212      14275.34       1.3411782      0.83143982   
     54100  -9108.2498     -9187.574       79.324111      11355.436      319.79053      14238.763      1.3446234      0.83143982   
     54200  -9107.5626     -9190.1877      82.625176      11254.829      333.09858      14229.704      1.3454795      0.83143982   
     54300  -9108.0844     -9187.6361      79.551768      9063.2112      320.70832      14253.238      1.3432579      0.83143982   
     54400  -9108.8432     -9189.0694      80.226259      8802.6694      323.42749      14305.321      1.3383673      0.83143982   
     54500  -9111.3931     -9190.9371      79.543982      5722.46        320.67693      14375.086      1.331872       0.83143982   
     54600  -9110.5533     -9189.102       78.548717      6800.2143      316.66458      14438.19       1.3260509      0.83143982   
     54700  -9112.2885     -9188.1415      75.852994      6305.8915      305.79693      14483.64       1.3218897      0.83143982   
     54800  -9113.6967     -9191.2456      77.548836      6349.0959      312.63361      14498.682      1.3205183      0.83143982   
     54900  -9111.3712     -9187.7325      76.361319      6055.3809      307.84621      14478.057      1.3223994      0.83143982   
     55000  -9110.3541     -9189.9497      79.595631      7582.3097      320.88515      14430.675      1.3267414      0.66143242   
     55100  -9109.6267     -9189.273       79.6463        4466.075       321.08942      14364.147      1.3328863      0.66143242   
     55200  -9108.8426     -9187.8584      79.015789      7096.1428      318.54755      14295.515      1.3392854      0.66143242   
     55300  -9109.6669     -9190.4999      80.833011      7765.9356      325.87357      14241.966      1.3443211      0.66143242   
     55400  -9108.1594     -9186.9672      78.807782      10845.471      317.70898      14212.235      1.3471333      0.66143242   
     55500  -9107.7657     -9188.2674      80.501692      8334.0731      324.53788      14214.178      1.3469491      0.66143242   
     55600  -9109.0731     -9186.9051      77.831943      7419.4979      313.77494      14243.727      1.3441548      0.66143242   
     55700  -9108.7812     -9186.8792      78.098015      8338.7531      314.8476       14294.319      1.3393975      0.66143242   
     55800  -9110.8128     -9187.5625      76.749709      9242.917       309.41198      14354.205      1.3338095      0.66143242   
     55900  -9112.2024     -9191.6829      79.48044       7133.5879      320.42076      14410.778      1.3285733      0.66143242   
     56000  -9111.3999     -9189.2078      77.807867      10708.26       313.67788      14444.263      1.3254934      0.6371415    
     56100  -9110.6226     -9190.3775      79.754864      7078.8293      321.52709      14455.004      1.3245084      0.6371415    
     56200  -9109.3371     -9187.5969      78.259799      6241.1226      315.49982      14445.186      1.3254087      0.6371415    
     56300  -9109.165      -9188.9839      79.818803      8459.0743      321.78485      14419.521      1.3277677      0.6371415    
     56400  -9109.74       -9190.753       81.01302       10724.161      326.59927      14381.793      1.3312508      0.6371415    
     56500  -9111.6197     -9190.5398      78.920066      7816.2739      318.16165      14339.068      1.3352175      0.6371415    
     56600  -9109.049      -9190.0736      81.024546      7756.1356      326.64573      14300.7        1.3387998      0.6371415    
     56700  -9111.2648     -9190.6616      79.396753      11191.52       320.08338      14277.526      1.3409728      0.6371415    
     56800  -9108.3392     -9187.5935      79.254262      12659.162      319.50894      14272.312      1.3414627      0.6371415    
     56900  -9107.7549     -9187.3867      79.631744      6668.2502      321.03074      14284.916      1.3402791      0.6371415    
     57000  -9108.554      -9190.0829      81.528933      9118.0679      328.67914      14310.273      1.3379042      0.65940488   
     57100  -9108.4389     -9186.989       78.550142      8150.9324      316.67032      14342.519      1.3348963      0.65940488   
     57200  -9106.2901     -9187.1696      80.879504      8330.6057      326.06101      14377.096      1.3316858      0.65940488   
[...]
    386300  -9107.8857     -9188.354       80.468218      7659.404       324.40293      14320.475      1.3369511      0.68499654   
    386400  -9110.3602     -9189.0555      78.695311      8259.8479      317.25556      14294.429      1.3393872      0.68499654   
    386500  -9112.861      -9191.5358      78.674823      9354.9339      317.17296      14286.541      1.3401267      0.68499654   
    386600  -9111.3929     -9191.4838      80.090924      5411.3259      322.88189      14290.119      1.3397912      0.68499654   
    386700  -9110.9044     -9189.8289      78.924542      8056.9649      318.17969      14306.871      1.3382223      0.68499654   
    386800  -9110.7148     -9189.3675      78.65264       5279.3676      317.08354      14335.245      1.3355736      0.68499654   
    386900  -9109.9643     -9189.7053      79.740935      8039.3185      321.47093      14368.556      1.3324773      0.68499654   
    387000  -9107.9005     -9187.4057      79.505111      8590.3954      320.52022      14399.869      1.3295798      0.70975731   
    387100  -9109.3246     -9188.3985      79.07393       6250.7138      318.78194      14427.901      1.3269965      0.70975731   
    387200  -9108.5828     -9188.4299      79.847046      6468.8988      321.89871      14450.484      1.3249228      0.70975731   
    387300  -9108.247      -9188.4139      80.16688       7870.7353      323.18811      14457.564      1.3242739      0.70975731   
    387400  -9107.9658     -9187.5135      79.547691      7464.2483      320.69188      14448.898      1.3250682      0.70975731   
    387500  -9109.1417     -9187.2533      78.111626      6732.9517      314.90247      14429.461      1.326853       0.70975731   
    387600  -9109.0939     -9188.9002      79.806308      9676.7725      321.73448      14399.537      1.3296104      0.70975731   
    387700  -9108.8823     -9189.5148      80.632516      8504.7002      325.06529      14366.47       1.3326707      0.70975731   
    387800  -9108.7713     -9188.529       79.757715      7099.5039      321.53858      14336.135      1.3354906      0.70975731   
    387900  -9109.3379     -9188.6825      79.34455       7585.3644      319.87293      14317.798      1.3372011      0.70975731   
    388000  -9107.3214     -9186.7914      79.470005      11516.679      320.3787       14315.312      1.3374333      0.62920603   
    388100  -9106.1064     -9186.325       80.218558      7777.01        323.39644      14333.766      1.3357114      0.62920603   
    388200  -9109.564      -9187.6123      78.048358      7873.854       314.64741      14370.42       1.3323045      0.62920603   
    388300  -9109.0019     -9188.2361      79.234138      7989.1234      319.42781      14414.71       1.3282109      0.62920603   
    388400  -9108.8914     -9187.1863      78.294879      7779.6642      315.64124      14457.462      1.3242832      0.62920603   
    388500  -9108.0202     -9186.9071      78.886834      6377.8962      318.02767      14492.181      1.3211106      0.62920603   
    388600  -9107.4978     -9187.4034      79.905569      7203.5786      322.13464      14512.98       1.3192174      0.62920603   
    388700  -9108.0026     -9187.5089      79.506325      6482.3332      320.52512      14508.287      1.3196441      0.62920603   
    388800  -9107.5322     -9188.5798      81.047605      6907.7839      326.7387       14476.341      1.3225562      0.62920603   
    388900  -9106.278      -9186.9456      80.667605      7297.552       325.20675      14425.384      1.327228       0.62920603   
    389000  -9107.4426     -9186.7853      79.34276       7943.3394      319.86572      14368.25       1.3325057      0.69863825   
    389100  -9106.5709     -9187.1671      80.596171      8175.2811      324.91877      14316.561      1.3373166      0.69863825   
    389200  -9106.1234     -9186.1666      80.043204      8956.968       322.68951      14284.465      1.3403214      0.69863825   
    389300  -9107.2046     -9188.4521      81.247536      9952.4505      327.54471      14276.224      1.3410952      0.69863825   
    389400  -9108.5052     -9187.5959      79.090746      8043.9158      318.84973      14288.332      1.3399587      0.69863825   
    389500  -9109.8739     -9188.7169      78.843021      7018.1126      317.85105      14323.118      1.3367044      0.69863825   
    389600  -9111.8222     -9187.3386      75.516401      7563.8845      304.43997      14376.112      1.3317769      0.69863825   
    389700  -9111.5337     -9191.1324      79.598654      5467.7419      320.89733      14428.971      1.3268981      0.69863825   
    389800  -9110.7716     -9188.5508      77.779254      4808.1558      313.56253      14459.364      1.3241091      0.69863825   
    389900  -9109.6731     -9188.4649      78.791783      6288.7915      317.64448      14466.668      1.3234405      0.69863825   
    390000  -9108.8605     -9189.8835      81.022912      7039.9959      326.63915      14452.029      1.3247811      0.65242687   
    390100  -9110.1298     -9187.3997      77.269944      5264.6162      311.50928      14415.668      1.3281227      0.65242687   
    390200  -9110.5513     -9188.33        77.77876       5498.9303      313.56054      14370.984      1.3322522      0.65242687   
    390300  -9109.5501     -9190.6037      81.05361       7058.2388      326.76291      14326.405      1.3363977      0.65242687   
    390400  -9108.4064     -9187.3005      78.894043      11809.838      318.05674      14289.078      1.3398887      0.65242687   
    390500  -9108.7979     -9187.9781      79.180205      10819.17       319.21038      14270.065      1.3416739      0.65242687   
    390600  -9109.738      -9190.6877      80.949702      7576.9484      326.34401      14273.901      1.3413134      0.65242687   
    390700  -9109.4756     -9189.3423      79.866684      10399.096      321.97788      14300.195      1.3388471      0.65242687   
    390800  -9112.2782     -9191.6907      79.412533      8667.9443      320.147        14342.065      1.3349385      0.65242687   
    390900  -9113.1395     -9191.0815      77.941986      6001.2051      314.21857      14380.904      1.3313332      0.65242687   
    391000  -9113.9017     -9192.1194      78.21777       7426.7849      315.33038      14406.703      1.3289491      0.67812177   
    391100  -9113.8509     -9192.2276      78.376717      7799.6574      315.97117      14410.346      1.3286131      0.67812177   
    391200  -9111.0474     -9187.6127      76.565336      8084.0996      308.66869      14395.224      1.3300088      0.67812177   
    391300  -9108.6982     -9189.0554      80.357224      9468.4256      323.95546      14374.869      1.3318921      0.67812177   
    391400  -9109.268      -9189.5684      80.300439      8869.8982      323.72654      14357.638      1.3334906      0.67812177   
    391500  -9110.0621     -9189.2065      79.144331      9312.1507      319.06576      14339.162      1.3352087      0.67812177   
    391600  -9108.7613     -9188.2918      79.530536      9272.4467      320.62272      14327.15       1.3363282      0.67812177   
    391700  -9111.3351     -9189.0876      77.7525        9609.4979      313.45467      14324.445      1.3365806      0.67812177   
    391800  -9113.589      -9193.4867      79.897717      7994.8538      322.10299      14326.485      1.3363902      0.67812177   
    391900  -9110.2357     -9189.3746      79.138827      7475.7826      319.04357      14329.173      1.3361395      0.67812177   
    392000  -9109.4264     -9189.0589      79.632486      9013.4189      321.03372      14335.906      1.335512       0.72008414   
    392100  -9110.5135     -9189.2086      78.695013      8255.1989      317.25436      14347.679      1.3344161      0.72008414   
    392200  -9109.2828     -9189.9965      80.713692      7651.7716      325.39254      14362.367      1.3330515      0.72008414   
    392300  -9110.1324     -9188.3042      78.171748      7103.5342      315.14485      14375.769      1.3318087      0.72008414   
    392400  -9113.2266     -9191.4683      78.241733      6741.2933      315.42699      14386.646      1.3308018      0.72008414   
    392500  -9112.3198     -9189.9601      77.640315      7976.5943      313.00241      14391.538      1.3303494      0.72008414   
    392600  -9113.6484     -9190.679       77.03056       7737.1787      310.54421      14389.157      1.3305695      0.72008414   
    392700  -9112.957      -9191.2233      78.266255      6393.989       315.52585      14375.355      1.331847       0.72008414   
    392800  -9111.6144     -9190.2885      78.674117      8046.0399      317.17012      14348.591      1.3343313      0.72008414   
    392900  -9110.2918     -9189.6441      79.35227       8562.2827      319.90405      14320.985      1.3369035      0.72008414   
    393000  -9111.3386     -9189.4794      78.140814      8452.2677      315.02014      14298.214      1.3390326      0.66394026   
    393100  -9108.466      -9188.2577      79.791685      9605.5296      321.67553      14282.966      1.3404621      0.66394026   
    393200  -9107.9053     -9189.6658      81.760427      9629.8685      329.6124       14283.543      1.340408       0.66394026   
    393300  -9107.7089     -9186.946       79.23709       10209.091      319.43971      14305.766      1.3383257      0.66394026   
    393400  -9106.7335     -9189.8448      83.111362      7590.4575      335.05861      14349.047      1.3342889      0.66394026   
    393500  -9107.1823     -9186.2996      79.117251      7318.5891      318.95659      14402.173      1.3293671      0.66394026   
    393600  -9106.3868     -9187.0228      80.636004      9303.5126      325.07935      14459.432      1.3241028      0.66394026   
    393700  -9108.0683     -9186.2437      78.175393      9294.1835      315.15954      14502.12       1.3202052      0.66394026   
    393800  -9106.4005     -9185.8883      79.487828      8066.2795      320.45055      14524.16       1.3182018      0.66394026   
    393900  -9105.3853     -9187.3355      81.950191      7800.666       330.37742      14523.813      1.3182334      0.66394026   
    394000  -9106.6435     -9186.0347      79.391135      6630.2401      320.06073      14499.755      1.3204206      0.6330504    
    394100  -9105.8224     -9186.3736      80.551214      9154.4483      324.73753      14457.917      1.3242416      0.6330504    
    394200  -9106.5655     -9185.7663      79.200721      7727.4015      319.29309      14406.671      1.328952       0.6330504    
    394300  -9105.9371     -9186.3378      80.400701      8278.8712      324.13074      14359.1        1.3333548      0.6330504    
    394400  -9106.8341     -9186.3878      79.553735      11495.062      320.71625      14320.24       1.336973       0.6330504    
    394500  -9107.801      -9190.15        82.349077      10285.549      331.98551      14302.687      1.3386139      0.6330504    
    394600  -9107.5684     -9187.2922      79.723769      12084.509      321.40173      14308.521      1.338068       0.6330504    
    394700  -9108.9227     -9188.9339      80.011249      9147.1277      322.56069      14337.732      1.335342       0.6330504    
    394800  -9109.5803     -9188.3388      78.758518      8699.6078      317.51038      14379.412      1.3314714      0.6330504    
    394900  -9109.2803     -9190.1071      80.826773      8383.7075      325.84843      14419.937      1.3277294      0.6330504    
    395000  -9109.6641     -9187.8516      78.187484      5792.5634      315.20828      14450.02       1.3249653      0.67101279   
    395100  -9109.5275     -9187.9127      78.385171      5328.0187      316.00525      14466.865      1.3234225      0.67101279   
    395200  -9110.0914     -9189.5629      79.471483      6300.7341      320.38465      14466.132      1.3234896      0.67101279   
    395300  -9106.8254     -9187.9298      81.104392      6619.35        326.96763      14450.863      1.324888       0.67101279   
    395400  -9108.3654     -9188.5494      80.184         7294.904       323.25712      14426.681      1.3271088      0.67101279   
    395500  -9106.7685     -9187.2366      80.468062      9645.0195      324.4023       14397.516      1.3297971      0.67101279   
    395600  -9106.6588     -9188.0915      81.432775      9408.9454      328.29149      14367.065      1.3326155      0.67101279   
    395700  -9108.3303     -9188.3912      80.060975      6823.1024      322.76116      14340.551      1.3350794      0.67101279   
    395800  -9107.0823     -9186.1766      79.094346      10537.656      318.86425      14320.457      1.3369528      0.67101279   
    395900  -9106.8476     -9187.4063      80.558701      9005.5229      324.76771      14312.124      1.3377311      0.67101279   
    396000  -9106.735      -9186.7007      79.96579       7560.1172      322.37742      14321.689      1.3368378      0.70404149   
    396100  -9109.3152     -9189.1737      79.858444      8070.8355      321.94466      14345.57       1.3346123      0.70404149   
    396200  -9111.3354     -9190.2708      78.935385      8976.7477      318.22341      14371.828      1.332174       0.70404149   
    396300  -9110.7225     -9189.9283      79.205836      9192.9638      319.31371      14392.701      1.3302419      0.70404149   
    396400  -9110.1032     -9187.4536      77.350399      7391.4997      311.83363      14403.194      1.3292729      0.70404149   
    396500  -9108.1557     -9186.9787      78.822993      8090.6184      317.7703       14404.22       1.3291781      0.70404149   
    396600  -9109.1855     -9188.9637      79.778181      7484.3777      321.62109      14395.804      1.3299552      0.70404149   
    396700  -9109.1805     -9188.9529      79.772355      8694.9614      321.5976       14379.202      1.3314907      0.70404149   
    396800  -9109.983      -9189.6924      79.709352      8625.0287      321.34361      14354.431      1.3337885      0.70404149   
    396900  -9107.6969     -9186.514       78.817095      8936.9833      317.74652      14324.747      1.3365524      0.70404149   
    397000  -9108.4392     -9187.4612      79.021985      9119.2518      318.57253      14299.295      1.3389314      0.65237641   
    397100  -9106.8884     -9189.1643      82.275867      8009.0501      331.69037      14287.89       1.3400001      0.65237641   
    397200  -9106.2505     -9187.304       81.053528      8705.8573      326.76258      14293.919      1.3394349      0.65237641   
    397300  -9107.9526     -9189.221       81.268458      9660.8965      327.62905      14318.226      1.337161       0.65237641   
    397400  -9107.5922     -9187.2442      79.652077      10139.355      321.11271      14349.87       1.3342124      0.65237641   
    397500  -9109.35       -9188.3365      78.986453      9559.9309      318.42928      14389.042      1.3305802      0.65237641   
    397600  -9108.137      -9188.8713      80.734335      8681.3839      325.47577      14424.71       1.3272901      0.65237641   
    397700  -9110.1875     -9189.3405      79.152973      8205.0304      319.1006       14446.007      1.3253333      0.65237641   
    397800  -9108.2711     -9187.5142      79.24316       5103.8983      319.46418      14447.427      1.3252031      0.65237641   
    397900  -9107.2847     -9187.7284      80.443739      8441.9334      324.30424      14432.492      1.3265745      0.65237641   
    398000  -9108.4677     -9186.5739      78.106216      8289.0429      314.88066      14401.082      1.3294678      0.71518168   
    398100  -9108.327      -9189.4082      81.081202      5602.1355      326.87414      14363.201      1.3329741      0.71518168   
    398200  -9107.5733     -9188.1807      80.607343      7770.9044      324.96381      14325.274      1.3365032      0.71518168   
    398300  -9107.6883     -9187.7685      80.080241      8729.7243      322.83882      14297.943      1.339058       0.71518168   
    398400  -9107.0749     -9187.3739      80.298999      10128.587      323.72073      14286.374      1.3401424      0.71518168   
    398500  -9107.9383     -9190.9147      82.976435      7936.2962      334.51466      14293.698      1.3394556      0.71518168   
    398600  -9108.734      -9189.3603      80.626315      6226.1425      325.04029      14319.786      1.3370154      0.71518168   
    398700  -9108.7839     -9189.5619      80.77795       9503.6066      325.6516       14355.247      1.3337127      0.71518168   
    398800  -9110.029      -9189.0304      79.001424      8812.124       318.48964      14393.326      1.3301842      0.71518168   
    398900  -9110.4047     -9190.6663      80.261573      8251.0511      323.56985      14430.802      1.3267297      0.71518168   
    399000  -9110.7348     -9187.6235      76.888737      6941.0402      309.97246      14453.199      1.3246738      0.66920799   
    399100  -9108.7656     -9188.0059      79.240356      6297.6354      319.45288      14451.928      1.3247904      0.66920799   
    399200  -9108.9514     -9186.8764      77.925019      3117.9182      314.15017      14426.175      1.3271553      0.66920799   
    399300  -9110.6266     -9189.7051      79.078534      6178.4413      318.8005       14383.195      1.3311212      0.66920799   
    399400  -9107.9382     -9186.7533      78.81512       9597.0777      317.73856      14329.911      1.3360708      0.66920799   
    399500  -9105.7337     -9187.4948      81.761143      6344.0216      329.61528      14282.062      1.3405469      0.66920799   
    399600  -9104.7033     -9186.0457      81.342366      11272.033      327.92701      14254.323      1.3431556      0.66920799   
    399700  -9105.8265     -9188.113       82.28655       12266.285      331.73343      14253.017      1.3432787      0.66920799   
    399800  -9105.1716     -9186.2847      81.113064      14376.442      327.00259      14274.793      1.3412295      0.66920799   
    399900  -9106.2087     -9189.9143      83.705597      10066.778      337.45424      14318.256      1.3371583      0.66920799   
    400000  -9107.7852     -9190.6004      82.815249      7194.2398      333.86485      14368.034      1.3325257      0.68953785   
    400100  -9106.857      -9187.551       80.693983      4966.3918      325.31309      14412.51       1.3284137      0.68953785   
    400200  -9104.5027     -9185.8777      81.374984      7486.3454      328.0585       14446.235      1.3253124      0.68953785   
    400300  -9107.8498     -9186.9711      79.121261      6393.6396      318.97275      14467.649      1.3233508      0.68953785   
    400313  -9107.1741     -9187.3515      80.177348      7097.5179      323.2303       14469.473      1.323184       0.68953785   
Loop time of 545.577 on 4 procs for 200000 steps with 1920 atoms

Performance: 15.836 ns/day, 1.515 hours/ns, 366.584 timesteps/s, 703.841 katom-step/s
99.6% CPU use with 4 MPI tasks x 1 OpenMP threads

MPI task timing breakdown:
Section |  min time  |  avg time  |  max time  |%varavg| %total
---------------------------------------------------------------
Pair    | 270.56     | 273.99     | 278.47     |  20.9 | 50.22
Neigh   | 7.9021     | 7.9871     | 8.047      |   2.0 |  1.46
Comm    | 64.162     | 70.046     | 74.362     |  52.8 | 12.84
Output  | 0.31084    | 0.31723    | 0.32478    |   0.9 |  0.06
Modify  | 189.91     | 190.81     | 192.25     |   7.0 | 34.97
Other   |            | 2.419      |            |       |  0.44

Nlocal:            480 ave         481 max         478 min
Histogram: 1 0 0 0 0 0 1 0 0 2
Nghost:           2644 ave        2653 max        2637 min
Histogram: 2 0 0 0 0 0 1 0 0 1
Neighs:              0 ave           0 max           0 min
Histogram: 4 0 0 0 0 0 0 0 0 0
FullNghs:        74667 ave       75098 max       74404 min
Histogram: 1 1 0 1 0 0 0 0 0 1

Total # of neighbors = 298668
Ave neighs/atom = 155.55625
Neighbor list builds = 20000
Dangerous builds = 20000
Total wall time: 0:18:15
