LAMMPS (7 Feb 2024 - Update 1)
KOKKOS mode with Kokkos version 4.2.0 is enabled (src/KOKKOS/kokkos.cpp:72)
  will use up to 4 GPU(s) per node
  using 1 OpenMP thread(s) per MPI task
Reading data file ...
  triclinic box = (0 0 0) to (24.989956 24.989919 23.167336) with tilt (-0.22207236 -0.16357316 -0.098737559)
  2 by 2 by 1 MPI processor grid
  reading atoms ...
  1920 atoms
  read_data CPU = 0.014 seconds
ACE/AL version: 2023.11.25
Loading /home/cicn/cicn607503/pd/pot_dir/interim_potential_ladder_step_1.yaml
Total number of basis functions
	H: 23 (r=1) 664 (r>1)
	O: 23 (r=1) 664 (r>1)
Mapping LAMMPS atom type #1(H) -> ACE species type #0
Mapping LAMMPS atom type #2(O) -> ACE species type #1
Loading ASI /home/cicn/cicn607503/pd/pot_dir/interim_potential_ladder_step_1.asi
LINEAR ASI is loaded
Switching to 'neigh_modify every 1 delay 0 check yes' setting during minimization
Neighbor list info ...
  update: every = 1 steps, delay = 0 steps, check = yes
  max neighbors/atom: 2000, page size: 100000
  master list distance cutoff = 6.5
  ghost atom cutoff = 6.5
  binsize = 6.5, bins = 4 4 4
  1 neighbor lists, perpetual/occasional/extra = 1 0 0
  (1) pair pace/extrapolation/kk, perpetual
      attributes: full, newton on, kokkos_device
      pair build: full/bin/kk/device
      stencil: full/bin/3d
      bin: kk/device
Setting up cg/kk style minimization ...
  Unit style    : metal
  Current step  : 0
WARNING: Fix with atom-based arrays not compatible with sending data in Kokkos communication, switching to classic exchange/border communication (src/KOKKOS/comm_kokkos.cpp:666)
WARNING: Fix with atom-based arrays not compatible with Kokkos sorting on device, switching to classic host sorting (src/KOKKOS/atom_kokkos.cpp:218)
Per MPI rank memory allocation (min/avg/max) = 423.1 | 425.6 | 428.5 Mbytes
   Step         TotEng         PotEng         KinEng         Press           Temp          Volume        Density     c_max_pace_gamma
         0  -9186.3912     -9186.3912      0              71325.798      0              14467.932      1.3233249      0.69469971   
       100  -9273.0205     -9273.0205      0             -8111.2171      0              14467.932      1.3233249      0.69469971   
       200  -9273.115      -9273.115       0             -8126.2115      0              14467.932      1.3233249      0.69469971   
       300  -9273.1151     -9273.1151      0             -8129.2561      0              14467.932      1.3233249      0.69469971   
       303  -9273.1151     -9273.1151      0             -8129.2493      0              14467.932      1.3233249      0.69469971   
Loop time of 1.22734 on 4 procs for 303 steps with 1920 atoms

99.4% CPU use with 4 MPI tasks x 1 OpenMP threads

Minimization stats:
  Stopping criterion = force tolerance
  Energy initial, next-to-last, final = 
     -9186.39119087423  -9273.11512031253  -9273.11512031871
  Force two-norm initial, final = 64.044178 0.00045820891
  Force max component initial, final = 2.4633048 4.2506895e-05
  Final line search alpha, max atom move = 1 4.2506895e-05
  Iterations, force evaluations = 303 605

MPI task timing breakdown:
Section |  min time  |  avg time  |  max time  |%varavg| %total
---------------------------------------------------------------
Pair    | 0.79559    | 0.80222    | 0.81577    |   0.9 | 65.36
Neigh   | 0.0029224  | 0.003086   | 0.0032358  |   0.2 |  0.25
Comm    | 0.18982    | 0.20311    | 0.21052    |   1.8 | 16.55
Output  | 0.00045876 | 0.00045965 | 0.00046157 |   0.0 |  0.04
Modify  | 0.13598    | 0.13811    | 0.14076    |   0.5 | 11.25
Other   |            | 0.08036    |            |       |  6.55

Nlocal:            480 ave         482 max         478 min
Histogram: 1 0 0 0 0 2 0 0 0 1
Nghost:         2630.5 ave        2633 max        2629 min
Histogram: 1 0 2 0 0 0 0 0 0 1
Neighs:              0 ave           0 max           0 min
Histogram: 4 0 0 0 0 0 0 0 0 0
FullNghs:        75285 ave       75712 max       74890 min
Histogram: 1 0 0 1 0 1 0 0 0 1

Total # of neighbors = 301140
Ave neighs/atom = 156.84375
Neighbor list builds = 7
Dangerous builds = 0
Setting up Verlet run ...
  Unit style    : metal
  Current step  : 303
  Time step     : 0.0005
WARNING: Fix with atom-based arrays not compatible with sending data in Kokkos communication, switching to classic exchange/border communication (src/KOKKOS/comm_kokkos.cpp:666)
WARNING: Fix with atom-based arrays not compatible with Kokkos sorting on device, switching to classic host sorting (src/KOKKOS/atom_kokkos.cpp:218)
Per MPI rank memory allocation (min/avg/max) = 424.7 | 426.4 | 427.6 Mbytes
   Step         TotEng         PotEng         KinEng         Press           Temp          Volume        Density     c_max_pace_gamma
       303  -9196.2196     -9273.1151      76.895568     -2452.3138      310            14467.932      1.3233249      0.69469971   
       400  -9180.6407     -9223.2072      42.566554      5005.6797      171.60458      14377.616      1.3316376      0.69469971   
       500  -9166.8138     -9215.846       49.032244      3794.8787      197.67063      14172.944      1.3508679      0.69469971   
       600  -9153.9655     -9213.4358      59.470239      7069.5896      239.7508       13954.574      1.3720071      0.69469971   
       700  -9147.1959     -9208.8761      61.680171      12823.415      248.66001      13799.954      1.3873796      0.69469971   
       800  -9141.2017     -9205.1039      63.902177      13356.671      257.6179       13732.774      1.3941666      0.69469971   
       900  -9137.4772     -9204.9742      67.496991      14384.117      272.11019      13752.504      1.3921664      0.69469971   
      1000  -9133.1332     -9202.0167      68.88347       12970.593      277.69969      13848.371      1.382529       0.76792919   
      1100  -9132.3598     -9200.9207      68.560835      11522.669      276.39901      13990.916      1.3684432      0.76792919   
      1200  -9129.3636     -9199.8947      70.531131      5249.5482      284.34214      14140.77       1.3539414      0.76792919   
      1300  -9125.881      -9196.5527      70.671747      4597.3498      284.90903      14267.628      1.3419031      0.76792919   
      1400  -9125.4237     -9197.4119      71.988157      5435.4942      290.21606      14358.814      1.3333813      0.76792919   
      1500  -9123.5462     -9194.8948      71.34853       5423.3623      287.63744      14402.525      1.3293346      0.76792919   
      1600  -9124.0334     -9196.2132      72.179795      3017.4436      290.98864      14402.314      1.329354       0.76792919   
      1700  -9121.4042     -9194.5845      73.180218      3811.4568      295.02179      14366.662      1.3326529      0.76792919   
      1800  -9121.3163     -9194.4099      73.093573      8892.6188      294.67248      14308.665      1.3380546      0.76792919   
      1900  -9116.9394     -9195.2293      78.289919      10840.932      315.62125      14240.836      1.3444277      0.76792919   
      2000  -9115.3681     -9191.859       76.49086       10549.652      308.36844      14183.11       1.3498996      0.63539229   
      2100  -9117.0248     -9193.2476      76.222791      9276.1392      307.28774      14154.962      1.352584       0.63539229   
      2200  -9115.7701     -9193.8235      78.053391      8000.5721      314.6677       14158.901      1.3522077      0.63539229   
      2300  -9115.3457     -9191.2993      75.953583      8414.2247      306.20245      14189.343      1.3493066      0.63539229   
      2400  -9116.1737     -9194.0559      77.882176      7588.8176      313.97745      14242.691      1.3442526      0.63539229   
      2500  -9115.7537     -9191.162       75.408217      8151.9994      304.00383      14304.294      1.3384634      0.63539229   
      2600  -9116.6732     -9195.3722      78.699001      6804.8513      317.27044      14358.29       1.33343        0.63539229   
      2700  -9115.8121     -9191.8134      76.001335      7539.8848      306.39495      14392.722      1.33024        0.63539229   
      2800  -9117.5027     -9191.9689      74.466199      6485.0627      300.20614      14402.825      1.3293069      0.63539229   
      2900  -9115.343      -9192.3652      77.022138      7304.0507      310.51026      14391.514      1.3303516      0.63539229   
      3000  -9116.2708     -9192.8902      76.619359      5671.0697      308.88648      14358.14       1.333444       0.64193533   
      3100  -9116.0526     -9192.8848      76.832222      6870.6081      309.74462      14307.258      1.3381862      0.64193533   
      3200  -9114.8209     -9191.0946      76.273695      7789.5735      307.49296      14253.256      1.3432562      0.64193533   
      3300  -9116.8815     -9190.4442      73.562747      6872.7536      296.56393      14208.794      1.3474595      0.64193533   
      3400  -9114.8616     -9191.9194      77.057891      9606.0549      310.6544       14183.143      1.3498965      0.64193533   
      3500  -9113.7231     -9191.2835      77.560434      10297.425      312.68037      14181.565      1.3500467      0.64193533   
      3600  -9114.1108     -9192.4434      78.33269       7420.044       315.79368      14210.453      1.3473022      0.64193533   
      3700  -9113.6749     -9191.3415      77.666564      10748.558      313.10823      14265.064      1.3421443      0.64193533   
      3800  -9116.0051     -9192.7681      76.762952      5640.4175      309.46537      14332.868      1.3357951      0.64193533   
      3900  -9114.3184     -9190.4865      76.1681        4821.8238      307.06726      14405.661      1.3290452      0.64193533   
      4000  -9114.7404     -9190.7861      76.045706      7747.3667      306.57383      14468.155      1.3233045      0.658393     
      4100  -9113.6145     -9189.6517      76.037239      9375.7147      306.5397       14502.954      1.3201293      0.658393     
      4200  -9114.4945     -9192.1532      77.658786      7355.8111      313.07687      14499.311      1.320461       0.658393     
      4300  -9112.1902     -9189.3044      77.114203      8985.6479      310.88142      14449.844      1.3249814      0.658393     
      4400  -9114.3092     -9190.5775      76.268263      8490.0687      307.47106      14367.464      1.3325786      0.658393     
      4500  -9111.8228     -9190.3247      78.50191       8079.7048      316.47588      14269.26       1.3417496      0.658393     
      4600  -9113.9242     -9190.8412      76.917         8724.6943      310.0864       14182.019      1.3500034      0.658393     
      4700  -9114.2906     -9192.8027      78.512136      9541.816       316.5171       14125.725      1.3553835      0.658393     
      4800  -9114.1108     -9190.2355      76.12469       10170.634      306.89225      14112.986      1.3566069      0.658393     
      4900  -9113.3286     -9192.0788      78.75017       8219.6796      317.47672      14146.737      1.3533703      0.658393     
      5000  -9114.6951     -9193.1385      78.443387      7754.8429      316.23994      14226.285      1.3458028      0.70336621   
      5100  -9116.6115     -9192.5174      75.90596       5761.5696      306.01045      14335.135      1.3355839      0.70336621   
      5200  -9114.2457     -9193.1261      78.880477      8170.5792      318.00204      14443.605      1.3255538      0.70336621   
      5300  -9114.8395     -9191.6488      76.809325      7180.4418      309.65232      14526.762      1.3179657      0.70336621   
      5400  -9115.8757     -9191.7665      75.890835      5343.2149      305.94948      14563.531      1.3146382      0.70336621   
      5500  -9116.4837     -9193.1775      76.69377       4680.7672      309.18646      14547.659      1.3160725      0.70336621   
      5600  -9115.9057     -9190.5923      74.686616      8329.7189      301.09474      14478.45       1.3223636      0.70336621   
      5700  -9114.0201     -9189.2268      75.206648      5773.3454      303.19122      14372.12       1.3321469      0.70336621   
      5800  -9113.4321     -9191.3629      77.930847      7056.8253      314.17367      14259.729      1.3426464      0.70336621   
      5900  -9114.0925     -9193.0134      78.920841      10536.64       318.16477      14171.946      1.350963       0.70336621   
      6000  -9112.6759     -9190.0329      77.357016      9716.3142      311.8603       14127.022      1.3552591      0.74731288   
      6100  -9114.0474     -9191.7557      77.708214      11956.271      313.27614      14133.123      1.3546741      0.74731288   
      6200  -9115.91       -9191.6965      75.786493      10023.338      305.52883      14189.131      1.3493268      0.74731288   
      6300  -9115.0262     -9191.5726      76.546415      7135.1696      308.59241      14273.985      1.3413055      0.74731288   
      6400  -9114.4079     -9190.5822      76.174288      7799.6774      307.0922       14363.495      1.3329468      0.74731288   
      6500  -9112.9093     -9189.0072      76.097927      7501.0731      306.78436      14445.261      1.3254018      0.74731288   
      6600  -9112.2756     -9189.092       76.81636       7331.5039      309.68068      14502.868      1.3201371      0.74731288   
      6700  -9111.5054     -9189.6214      78.116058      4751.5028      314.92033      14525.452      1.3180846      0.74731288   
      6800  -9111.0739     -9188.9724      77.898464      4109.5964      314.04312      14515.023      1.3190317      0.74731288   
      6900  -9114.5657     -9190.3875      75.821858      6137.4712      305.6714       14472.5        1.3229072      0.74731288   
      7000  -9113.2011     -9189.9305      76.729355      4910.4366      309.32992      14408.05       1.3288248      0.66442492   
      7100  -9113.7777     -9189.0519      75.27423       5034.5176      303.46367      14334.194      1.3356716      0.66442492   
      7200  -9112.3806     -9190.4262      78.045548      9112.976       314.63608      14269.741      1.3417044      0.66442492   
      7300  -9110.8312     -9189.4286      78.597421      9052.742       316.86092      14227.054      1.3457301      0.66442492   
      7400  -9111.7436     -9188.0607      76.31706       10636.577      307.66778      14216.547      1.3467247      0.66442492   
      7500  -9115.3266     -9192.3166      76.989933      8139.904       310.38043      14236.643      1.3448237      0.66442492   
      7600  -9116.9905     -9193.0884      76.097945      5703.6535      306.78443      14277.411      1.3409837      0.66442492   
      7700  -9113.5517     -9190.7158      77.164152      7575.9599      311.08278      14327.234      1.3363204      0.66442492   
      7800  -9114.9034     -9192.3257      77.42235       6940.9959      312.12369      14387.02       1.3307672      0.66442492   
      7900  -9113.5977     -9191.1409      77.543187      4537.8983      312.61084      14441.487      1.3257482      0.66442492   
      8000  -9112.6399     -9188.308       75.668054      6562.4293      305.05135      14474.69       1.322707       0.74341101   
      8100  -9113.7011     -9188.325       74.623924      8151.0481      300.842        14478.169      1.3223892      0.74341101   
      8200  -9111.7157     -9188.91        77.19428       10109.395      311.20424      14454.606      1.3245449      0.74341101   
      8300  -9110.5182     -9189.5163      78.998077      9322.7703      318.47615      14412.517      1.328413       0.74341101   
      8400  -9111.1612     -9187.2044      76.043197      5925.6567      306.56372      14365.115      1.3327965      0.74341101   
      8500  -9112.2066     -9191.5469      79.340346      5583.0903      319.85598      14319.563      1.3370363      0.74341101   
      8600  -9112.8589     -9189.1086      76.249718      11183.326      307.3963       14282.066      1.3405466      0.74341101   
      8700  -9112.7262     -9191.7553      79.02917       12661.688      318.60149      14257.712      1.3428364      0.74341101   
      8800  -9112.804      -9191.3551      78.551062      8352.4981      316.67403      14256.69       1.3429327      0.74341101   
      8900  -9112.2817     -9190.3236      78.041913      7449.1175      314.62142      14281.606      1.3405897      0.74341101   
      9000  -9110.7885     -9189.985       79.19651       5801.9079      319.27612      14323.05       1.3367108      0.68656988   
      9100  -9109.7584     -9188.5684      78.810033      4374.6005      317.71805      14375.548      1.3318292      0.68656988   
      9200  -9112.351      -9188.8366      76.485573      4325.7985      308.34713      14432.719      1.3265535      0.68656988   
      9300  -9114.1913     -9190.4982      76.306915      7449.2426      307.62688      14479.502      1.3222675      0.68656988   
      9400  -9113.2525     -9192.9396      79.687102      7480.4394      321.25391      14504.846      1.3199571      0.68656988   
      9500  -9113.4185     -9189.6182      76.199668      9164.2907      307.19452      14494.056      1.3209398      0.68656988   
      9600  -9111.6558     -9189.3604      77.704648      6737.6476      313.26176      14451.518      1.3248279      0.68656988   
      9700  -9112.1513     -9188.9489      76.797657      7986.452       309.60528      14385.792      1.3308809      0.68656988   
      9800  -9110.4223     -9189.8925      79.470192      7577.7706      320.37945      14311.3        1.3378082      0.68656988   
      9900  -9112.1592     -9191.0904      78.931185      9262.4782      318.20647      14245.195      1.3440164      0.68656988   
     10000  -9113.4136     -9192.9242      79.510609      7288.0906      320.54239      14202.699      1.3480377      0.7123079    
     10100  -9113.9586     -9191.2642      77.305654      9332.6652      311.65324      14193.041      1.348955       0.7123079    
     10200  -9116.2395     -9192.6128      76.373279      8319.4664      307.89443      14223.995      1.3460195      0.7123079    
     10300  -9115.0408     -9192.9648      77.923974      7398.6843      314.14596      14282.633      1.3404933      0.7123079    
     10400  -9115.287      -9193.2221      77.935042      9074.0494      314.19058      14353.314      1.3338922      0.7123079    
     10500  -9115.9113     -9190.9434      75.032101      7674.3562      302.48754      14419.747      1.3277469      0.7123079    
     10600  -9115.2462     -9191.7797      76.533475      8007.5109      308.54024      14467.832      1.3233341      0.7123079    
     10700  -9116.1266     -9191.931       75.804371      9932.2497      305.6009       14484.419      1.3218187      0.7123079    
     10800  -9114.7453     -9191.0474      76.302133      7812.9687      307.6076       14468.596      1.3232642      0.7123079    
     10900  -9111.4591     -9190.4545      78.995384      7223.9932      318.46529      14427.573      1.3270267      0.7123079    
     11000  -9112.3128     -9189.5247      77.211865      8405.7971      311.27513      14374.395      1.3319361      0.67439245   
     11100  -9111.4032     -9191.7863      80.383065      9144.3382      324.05964      14321.148      1.3368882      0.67439245   
     11200  -9112.8067     -9190.7498      77.943108      11547.232      314.2231       14280.517      1.340692       0.67439245   
     11300  -9113.255      -9191.658       78.403         9177.5119      316.07713      14258.591      1.3427536      0.67439245   
     11400  -9114.9036     -9190.8278      75.92427       8240.2683      306.08427      14257.785      1.3428295      0.67439245   
     11500  -9116.2889     -9193.0945      76.805595      8500.3173      309.63728      14279.186      1.3408169      0.67439245   
     11600  -9118.1721     -9194.4799      76.30781       6520.9882      307.63049      14312.806      1.3376674      0.67439245   
     11700  -9119.3101     -9193.4497      74.139529      6111.4244      298.88919      14350.061      1.3341947      0.67439245   
     11800  -9119.7404     -9194.2373      74.496868      8259.3072      300.32978      14383.194      1.3311212      0.67439245   
     11900  -9118.9377     -9193.2475      74.309848      7264.5894      299.57582      14399.526      1.3296114      0.67439245   
     12000  -9118.6562     -9192.8566      74.200377      7099.9537      299.1345       14395.251      1.3300063      0.65131974   
     12100  -9118.6642     -9195.1052      76.440956      6571.359       308.16726      14373.27       1.3320403      0.65131974   
     12200  -9114.68       -9191.6389      76.958868      7531.4751      310.25519      14333.392      1.3357463      0.65131974   
     12300  -9115.4302     -9192.4215      76.991327      7122.9968      310.38605      14292.795      1.3395402      0.65131974   
     12400  -9116.7515     -9191.5927      74.841213      10129.328      301.71799      14264.438      1.3422032      0.65131974   
     12500  -9118.2031     -9192.8338      74.630698      8854.3082      300.86931      14249.75       1.3435867      0.65131974   
     12600  -9116.9322     -9194.2706      77.338354      8249.3395      311.78507      14248.786      1.3436776      0.65131974   
     12700  -9117.3133     -9194.0444      76.731127      10023.894      309.33707      14260.522      1.3425718      0.65131974   
     12800  -9114.8646     -9190.9398      76.075108      6832.273       306.69237      14279.531      1.3407846      0.65131974   
     12900  -9116.5317     -9192.7623      76.230583      8469.287       307.31915      14308.145      1.3381032      0.65131974   
     13000  -9115.9166     -9191.6086      75.692067      5258.7302      305.14816      14340.5        1.3350841      0.7395248    
     13100  -9114.3074     -9190.4237      76.116365      4126.8164      306.85869      14368.941      1.3324416      0.7395248    
     13200  -9113.7225     -9192.1724      78.449942      4145.1705      316.26637      14388.125      1.330665       0.7395248    
     13300  -9114.057      -9190.1193      76.062371      5429.3635      306.64102      14395.803      1.3299553      0.7395248    
     13400  -9114.5142     -9191.3093      76.795101      4769.3295      309.59498      14392.638      1.3302477      0.7395248    
     13500  -9115.2621     -9190.5087      75.246651      9109.1385      303.35249      14372.897      1.3320749      0.7395248    
     13600  -9114.2646     -9190.6556      76.390981      8501.0791      307.96579      14342.636      1.3348853      0.7395248    
     13700  -9115.0661     -9191.3586      76.292515      10073.831      307.56883      14308.292      1.3380895      0.7395248    
     13800  -9112.902      -9191.0204      78.118362      6894.8648      314.92963      14283.959      1.3403689      0.7395248    
     13900  -9112.9798     -9189.7593      76.779541      6999.2245      309.53225      14277.127      1.3410104      0.7395248    
     14000  -9111.6393     -9190.2497      78.610377      5994.0738      316.91315      14292.937      1.339527       0.65031027   
     14100  -9112.8434     -9189.5593      76.715916      7744.9379      309.27575      14325.375      1.3364938      0.65031027   
     14200  -9114.4346     -9191.1454      76.710819      10671.31       309.2552       14364.712      1.3328338      0.65031027   
     14300  -9115.1066     -9190.7758      75.669157      9017.3413      305.0558       14398.327      1.3297222      0.65031027   
     14400  -9115.5804     -9193.0369      77.456515      4111.1357      312.26143      14416.817      1.3280168      0.65031027   
     14500  -9113.3359     -9191.9512      78.615337      7319.2926      316.93315      14415.59       1.3281298      0.65031027   
     14600  -9114.9419     -9191.1889      76.246981      7875.8416      307.38526      14401.692      1.3294115      0.65031027   
     14700  -9113.8591     -9192.3648      78.505707      8741.4869      316.49118      14375.346      1.3318479      0.65031027   
     14800  -9112.4447     -9191.4591      79.014399      7504.0401      318.54195      14343.545      1.3348007      0.65031027   
     14900  -9113.3407     -9191.0366      77.69596       6169.0004      313.22674      14316.145      1.3373554      0.65031027   
     15000  -9114.0627     -9191.0863      77.023653      8227.9829      310.51637      14296.049      1.3392354      0.68571479   
     15100  -9114.9058     -9190.9782      76.072455      8416.1672      306.68167      14283.4        1.3404214      0.68571479   
     15200  -9113.6267     -9191.6737      78.046978      11264.773      314.64184      14281.025      1.3406442      0.68571479   
     15300  -9115.0676     -9191.5738      76.506229      11678.592      308.4304       14293.673      1.339458       0.68571479   
     15400  -9113.1142     -9190.2024      77.088114      7620.1014      310.77624      14311.084      1.3378284      0.68571479   
     15500  -9113.8989     -9191.365       77.46604       7007.7447      312.29983      14329.312      1.3361266      0.68571479   
     15600  -9115.9748     -9192.6153      76.640437      8438.8636      308.97145      14345.49       1.3346198      0.68571479   
     15700  -9116.042      -9192.7162      76.674187      7631.6681      309.10752      14353.534      1.3338718      0.68571479   
     15800  -9115.5696     -9191.4579      75.888376      5146.4672      305.93957      14350.069      1.3341939      0.68571479   
     15900  -9117.6481     -9191.6427      73.994588      4286.739       298.30487      14338.812      1.3352413      0.68571479   
     16000  -9119.4264     -9194.4681      75.041662      5597.4571      302.52609      14318.501      1.3371354      0.70918883   
     16100  -9119.6506     -9194.5663      74.915691      8959.4904      302.01824      14293.158      1.3395063      0.70918883   
     16200  -9117.8794     -9194.1031      76.223701      6925.0977      307.29141      14264.211      1.3422246      0.70918883   
     16300  -9116.1792     -9192.8866      76.707384      7018.8044      309.24135      14240.923      1.3444195      0.70918883   
     16400  -9118.557      -9195.7792      77.222191      6098.3703      311.31676      14231.163      1.3453415      0.70918883   
     16500  -9116.2606     -9193.2852      77.024523      7772.3505      310.51988      14235.827      1.3449008      0.70918883   
     16600  -9117.0823     -9193.8331      76.750792      6389.1516      309.41634      14258.619      1.342751       0.70918883   
     16700  -9116.2541     -9190.4685      74.214384      9836.874       299.19097      14290.075      1.3397953      0.70918883   
     16800  -9114.5923     -9190.6854      76.093083      8401.831       306.76483      14329.75       1.3360857      0.70918883   
     16900  -9111.9574     -9191.3882      79.430729      5618.6934      320.22035      14369.441      1.3323953      0.70918883   
     17000  -9112.0755     -9187.0744      74.998891      7721.8617      302.35366      14402.882      1.3293016      0.6357693    
     17100  -9112.3524     -9189.7656      77.413226      6007.0359      312.08691      14425.46       1.3272211      0.6357693    
     17200  -9112.1652     -9192.2367      80.071479      6385.1031      322.8035       14429.445      1.3268545      0.6357693    
     17300  -9110.0922     -9188.6409      78.548652      9673.1883      316.66431      14414.362      1.328243       0.6357693    
     17400  -9109.2011     -9188.9314      79.730261      7855.2899      321.4279       14388.189      1.3306591      0.6357693    
     17500  -9111.1038     -9190.3073      79.203443      6239.9603      319.30407      14358.071      1.3334504      0.6357693    
     17600  -9112.6821     -9191.0968      78.414715      7519.7505      316.12435      14327.226      1.3363211      0.6357693    
     17700  -9112.6815     -9190.7482      78.066605      8860.1247      314.72097      14300.641      1.3388053      0.6357693    
     17800  -9112.2087     -9191.1515      78.942743      11274.609      318.25307      14284.672      1.340302       0.6357693    
     17900  -9112.9857     -9189.3488      76.36305       8832.3808      307.85319      14281.237      1.3406244      0.6357693    
     18000  -9114.6062     -9190.932       76.325802      7737.3956      307.70302      14289.346      1.3398636      0.6659797    
     18100  -9113.6778     -9191.1783      77.500455      9438.1847      312.43857      14304.952      1.3384018      0.6659797    
     18200  -9113.9494     -9190.7994      76.849986      10886.572      309.81624      14328.221      1.3362283      0.6659797    
     18300  -9112.4374     -9191.41        78.972634      8617.7563      318.37357      14356.242      1.3336203      0.6659797    
     18400  -9112.2643     -9189.3095      77.045202      6193.8302      310.60324      14382.691      1.3311677      0.6659797    
     18500  -9114.3362     -9190.4294      76.093149      5918.9199      306.7651       14399.812      1.329585       0.6659797    
     18600  -9115.1578     -9192.2745      77.116629      5397.3102      310.8912       14403.983      1.3292         0.6659797    
     18700  -9116.0682     -9192.5466      76.478436      7594.3703      308.31836      14392.412      1.3302687      0.6659797    
     18800  -9116.8796     -9194.7413      77.861735      5804.5748      313.89505      14361.582      1.3331243      0.6659797    
     18900  -9116.4209     -9190.1565      73.735557      8040.7426      297.2606       14315.061      1.3374567      0.6659797    
     19000  -9118.8812     -9195.7963      76.915067      7786.5589      310.07861      14267.738      1.3418928      0.78373595   
     19100  -9117.5616     -9195.0664      77.50474       4849.1704      312.45584      14228.236      1.3456183      0.78373595   
     19200  -9116.1427     -9191.2299      75.087175      10884.9        302.70957      14202.321      1.3480737      0.78373595   
     19300  -9117.9823     -9192.5761      74.593852      9531.4661      300.72077      14200.148      1.3482799      0.78373595   
     19400  -9114.2031     -9193.6978      79.494765      8816.8292      320.47851      14221.252      1.3462791      0.78373595   
     19500  -9117.2322     -9192.4777      75.245534      7639.9557      303.34798      14264.805      1.3421687      0.78373595   
     19600  -9117.8822     -9194.5259      76.643706      5874.0224      308.98463      14324.406      1.3365842      0.78373595   
     19700  -9117.5925     -9193.2177      75.62522       5342.3393      304.87867      14377.914      1.3316101      0.78373595   
     19800  -9115.4546     -9191.5577      76.103062      7698.7203      306.80506      14414.485      1.3282316      0.78373595   
     19900  -9113.4918     -9190.235       76.74313       6597.1251      309.38546      14430.355      1.3267709      0.78373595   
     20000  -9113.4092     -9190.4878      77.078664      6047.7013      310.73814      14425.19       1.3272459      0.64029863   
     20100  -9113.1817     -9191.8688      78.687085      8477.332       317.2224       14396.459      1.3298947      0.64029863   
     20200  -9113.573      -9190.0444      76.471453      11239.97       308.29021      14352.824      1.3339378      0.64029863   
     20300  -9114.0252     -9192.1227      78.097517      7169.3024      314.84559      14306.074      1.3382969      0.64029863   
     20400  -9112.2578     -9189.3027      77.044832      8540.7385      310.60175      14266.545      1.342005       0.64029863   
     20500  -9112.4517     -9190.7226      78.270846      8418.2169      315.54436      14244.952      1.3440392      0.64029863   
     20600  -9115.89       -9192.3378      76.447846      11221          308.19504      14241.592      1.3443563      0.64029863   
     20700  -9114.0114     -9190.9863      76.974917      11741.314      310.31989      14252.134      1.343362       0.64029863   
     20800  -9111.6971     -9190.8895      79.192479      7058.8832      319.25986      14277.992      1.3409291      0.64029863   
     20900  -9110.3832     -9188.1811      77.797965      9287.684       313.63796      14315.852      1.3373829      0.64029863   
     21000  -9111.9925     -9191.0676      79.075099      10141.892      318.78665      14359.989      1.3332722      0.65782809   
     21100  -9112.5135     -9189.2885      76.775021      7905.0453      309.51403      14399.73       1.3295926      0.65782809   
     21200  -9113.5707     -9190.2426      76.671911      6847.9975      309.09834      14422.459      1.3274973      0.65782809   
     21300  -9114.5508     -9191.8511      77.300307      8478.3705      311.63168      14423.873      1.3273671      0.65782809   
     21400  -9113.1083     -9189.4602      76.351925      7905.1155      307.80834      14402.392      1.3293468      0.65782809   
     21500  -9115.9169     -9192.0144      76.097537      7882.4211      306.78279      14366.498      1.3326682      0.65782809   
     21600  -9115.5222     -9192.6714      77.14918       8178.7215      311.02242      14322.015      1.3368073      0.65782809   
     21700  -9115.9467     -9191.9303      75.983606      7944.0164      306.32348      14273.888      1.3413146      0.65782809   
     21800  -9117.514      -9191.8032      74.289238      6901.2457      299.49273      14232.193      1.3452442      0.65782809   
     21900  -9118.6984     -9194.1188      75.420382      6285.897       304.05288      14207.149      1.3476155      0.65782809   
     22000  -9116.0328     -9192.7489      76.716076      7549.9114      309.27639      14202.335      1.3480723      0.66371693   
     22100  -9115.5781     -9192.9551      77.377028      9903.3202      311.94098      14220.224      1.3463764      0.66371693   
     22200  -9116.6147     -9192.5932      75.978498      7608.4511      306.30289      14258.727      1.3427408      0.66371693   
     22300  -9117.7027     -9192.9492      75.246485      9986.2677      303.35182      14305.194      1.3383792      0.66371693   
     22400  -9115.5329     -9191.5741      76.041199      10258.359      306.55566      14350.278      1.3341745      0.66371693   
     22500  -9116.5532     -9193.0937      76.540505      6938.1684      308.56859      14385.182      1.3309373      0.66371693   
     22600  -9116.2158     -9193.3328      77.117037      5082.5259      310.89284      14404.374      1.3291639      0.66371693   
     22700  -9116.6618     -9193.2885      76.626662      6328.5141      308.91592      14399.396      1.3296234      0.66371693   
     22800  -9116.929      -9192.5027      75.573647      8291.5557      304.67075      14370.726      1.3322761      0.66371693   
     22900  -9115.555      -9191.2473      75.692289      10010.361      305.14905      14327.195      1.336324       0.66371693   
     23000  -9114.8154     -9191.456       76.640626      8961.1306      308.97222      14280.113      1.3407299      0.67492947   
     23100  -9117.1618     -9192.45        75.28825       7533.831       303.52019      14234.079      1.345066       0.67492947   
     23200  -9117.8379     -9194.1357      76.297749      11850.157      307.58993      14197.83       1.3485001      0.67492947   
     23300  -9118.4619     -9194.0787      75.616797      10552.394      304.84471      14179.223      1.3502697      0.67492947   
     23400  -9118.0914     -9195.0896      76.998157      7994.1115      310.41358      14184.398      1.349777       0.67492947   
     23500  -9118.6312     -9195.7352      77.10393       9016.2654      310.84         14216.513      1.3467279      0.67492947   
     23600  -9119.1099     -9194.43        75.320189      7764.5152      303.64895      14266.135      1.3420436      0.67492947   
     23700  -9120.3895     -9195.741       75.351501      3666.14        303.77518      14324.993      1.3365294      0.67492947   
     23800  -9120.7953     -9194.7117      73.916416      5282.5256      297.98972      14377.764      1.3316239      0.67492947   
     23900  -9119.2535     -9194.0969      74.843453      3947.4878      301.72702      14409.454      1.3286953      0.67492947   
     24000  -9118.0013     -9193.2254      75.224056      5259.1077      303.2614       14416.24       1.3280699      0.67434428   
     24100  -9118.7311     -9194.4557      75.724626      7963.0288      305.27942      14393.389      1.3301784      0.67434428   
     24200  -9118.5749     -9193.4434      74.868495      4930.348       301.82797      14341.194      1.3350195      0.67434428   
     24300  -9118.9648     -9194.3219      75.357046      6763.2334      303.79754      14270.457      1.3416371      0.67434428   
     24400  -9119.4334     -9194.5194      75.086009      6095.5202      302.70487      14200.942      1.3482046      0.67434428   
     24500  -9117.1408     -9193.6235      76.482681      8394.2632      308.33547      14150.092      1.3530495      0.67434428   
     24600  -9117.9713     -9192.7543      74.782996      10940.456      301.48329      14132.8        1.354705       0.67434428   
     24700  -9116.0871     -9191.559       75.471898      7602.3372      304.26056      14150.272      1.3530322      0.67434428   
     24800  -9116.749      -9193.6241      76.87514       8131.0202      309.91765      14199.433      1.3483479      0.67434428   
     24900  -9116.2426     -9193.5297      77.28712       8653.6084      311.57852      14265.082      1.3421426      0.67434428   
     25000  -9115.9212     -9192.5155      76.594234      8378.6126      308.78519      14332.28       1.3358498      0.64782203   
     25100  -9117.2588     -9192.0737      74.81493       6730.9036      301.61203      14388.842      1.3305987      0.64782203   
     25200  -9119.7645     -9194.3449      74.580406      7394.9144      300.66656      14418.935      1.3278217      0.64782203   
     25300  -9119.8748     -9193.9368      74.061966      5955.4287      298.5765       14413.784      1.3282962      0.64782203   
     25400  -9119.3919     -9193.2222      73.830284      6869.9467      297.64249      14376.34       1.3317558      0.64782203   
     25500  -9116.9674     -9194.8371      77.869621      3821.8008      313.92684      14322.019      1.3368069      0.64782203   
     25600  -9118.4954     -9194.0133      75.517868      4864.3487      304.44588      14263.307      1.3423097      0.64782203   
     25700  -9116.7456     -9193.9998      77.254196      7732.0271      311.44579      14213.332      1.3470293      0.64782203   
     25800  -9115.9383     -9193.7102      77.771967      10027.017      313.53315      14183.196      1.3498914      0.64782203   
     25900  -9118.1314     -9194.048       75.916549      10328.811      306.05314      14183.271      1.3498843      0.64782203   
     26000  -9117.4529     -9193.6498      76.196815      9667.9557      307.18302      14206.971      1.3476324      0.70204338   
     26100  -9117.9958     -9195.1164      77.120552      7453.4617      310.90701      14250.475      1.3435184      0.70204338   
     26200  -9118.7413     -9194.1358      75.394531      9726.163       303.94866      14298.838      1.3389741      0.70204338   
     26300  -9119.097      -9194.2242      75.127144      8353.0692      302.8707       14340.875      1.3350492      0.70204338   
     26400  -9119.5942     -9194.5525      74.95828       7266.944       302.18994      14364.72       1.3328331      0.70204338   
     26500  -9118.901      -9193.8911      74.990163      4920.6047      302.31847      14369.553      1.3323849      0.70204338   
     26600  -9119.2679     -9194.1381      74.87024       8139.6621      301.83501      14357.803      1.3334752      0.70204338   
     26700  -9115.5747     -9193.4176      77.842891      6709.8852      313.81908      14329.516      1.3361075      0.70204338   
     26800  -9113.9592     -9190.7003      76.741154      8213.4971      309.37749      14291.629      1.3396496      0.70204338   
     26900  -9113.2904     -9191.8658      78.575433      11589.446      316.77228      14258.885      1.342726       0.70204338   
     27000  -9112.7812     -9190.443       77.661758      12966.699      313.08885      14239.884      1.3445176      0.67419706   
     27100  -9113.7832     -9190.6669      76.883689      6387.8006      309.95211      14241.81       1.3443358      0.67419706   
     27200  -9114.9831     -9192.8335      77.850324      5794.6329      313.84904      14260.395      1.3425837      0.67419706   
     27300  -9114.5857     -9192.7775      78.191824      5870.5639      315.22578      14284.32       1.340335       0.67419706   
     27400  -9115.6241     -9192.2564      76.632359      9156.052       308.93889      14309.174      1.338007       0.67419706   
     27500  -9115.9431     -9193.8156      77.872528      7404.9199      313.93856      14335.467      1.3355529      0.67419706   
     27600  -9115.2417     -9192.1605      76.91878       10688.788      310.09358      14356.499      1.3335964      0.67419706   
     27700  -9114.3376     -9191.2186      76.880979      9410.2879      309.94118      14369.11       1.3324259      0.67419706   
     27800  -9115.1249     -9189.4663      74.341454      6137.3635      299.70324      14368.187      1.3325115      0.67419706   
     27900  -9113.6091     -9190.1897      76.580601      7248.5694      308.73023      14353.24       1.3338991      0.67419706   
     28000  -9113.6362     -9191.5563      77.920117      6700.8349      314.13041      14328.151      1.3362348      0.63916474   
     28100  -9113.6831     -9194.5349      80.851791      6596.3261      325.94928      14304.135      1.3384783      0.63916474   
     28200  -9113.2081     -9190.6388      77.430694      10821.497      312.15733      14280.199      1.3407219      0.63916474   
     28300  -9112.7296     -9190.0109      77.281283      8327.803       311.55499      14266.756      1.3419851      0.63916474   
     28400  -9113.4676     -9190.0458      76.578201      7113.4823      308.72055      14265.762      1.3420786      0.63916474   
     28500  -9114.6638     -9190.1754      75.511631      11178.583      304.42074      14276.714      1.3410491      0.63916474   
     28600  -9113.1986     -9192.9539      79.755241      8512.8522      321.52861      14298.763      1.3389812      0.63916474   
     28700  -9114.6296     -9191.8251      77.195484      8455.3275      311.20909      14325.379      1.3364934      0.63916474   
     28800  -9115.8708     -9192.7949      76.924114      10341.029      310.11508      14348.439      1.3343454      0.63916474   
     28900  -9115.1414     -9192.5317      77.390291      8088.8577      311.99445      14360.769      1.3331998      0.63916474   
     29000  -9114.9451     -9191.0868      76.141723      6173.208       306.96092      14362.481      1.3330409      0.65222873   
     29100  -9114.4359     -9190.4975      76.061603      8149.6441      306.63792      14357.154      1.3335355      0.65222873   
     29200  -9113.7804     -9191.1126      77.332255      8296.6321      311.76048      14343.959      1.3347622      0.65222873   
     29300  -9114.4541     -9192.2386      77.784497      10929.573      313.58367      14325.624      1.3364706      0.65222873   
     29400  -9112.7056     -9190.8925      78.186884      8095.3572      315.20587      14303.249      1.3385613      0.65222873   
     29500  -9112.3952     -9191.4906      79.095475      5432.8705      318.8688       14284.67       1.3403022      0.65222873   
     29600  -9113.9695     -9190.9956      77.026151      7263.2055      310.52644      14278.232      1.3409066      0.65222873   
     29700  -9116.1447     -9192.1141      75.969465      10143.616      306.26647      14282.716      1.3404856      0.65222873   
     29800  -9115.5114     -9191.9399      76.428409      9422.6775      308.11668      14292.282      1.3395884      0.65222873   
     29900  -9115.8946     -9193.3505      77.455904      4650.6354      312.25896      14304.433      1.3384504      0.65222873   
     30000  -9116.6538     -9192.5487      75.894918      7099.8489      305.96594      14310.453      1.3378874      0.71208167   
     30100  -9115.6162     -9191.1112      75.495057      6575.9126      304.35392      14306.676      1.3382406      0.71208167   
     30200  -9115.4374     -9192.0095      76.572038      7701.7232      308.69571      14299.013      1.3389577      0.71208167   
     30300  -9113.7181     -9189.8316      76.11353       8413.9676      306.84726      14287.148      1.3400697      0.71208167   
     30400  -9113.9391     -9191.1905      77.251341      6446.745       311.43428      14275.713      1.3411432      0.71208167   
     30500  -9113.8892     -9193.7212      79.831999      6848.3721      321.83805      14268.8        1.3417929      0.71208167   
     30600  -9114.9365     -9191.8825      76.946042      6262.5541      310.20349      14264.813      1.3421679      0.71208167   
     30700  -9114.0895     -9191.5725      77.482972      8035.5472      312.36809      14268.501      1.341821       0.71208167   
     30800  -9113.4495     -9190.3282      76.878708      7730.5112      309.93203      14278.025      1.340926       0.71208167   
     30900  -9113.803      -9191.3959      77.592843      6362.8674      312.81102      14291.747      1.3396385      0.71208167   
     31000  -9114.4517     -9191.5167      77.065022      4741.6286      310.68315      14309.723      1.3379556      0.65888128   
     31100  -9114.4976     -9189.0625      74.564953      4117.95        300.60426      14327.222      1.3363215      0.65888128   
     31200  -9114.3183     -9190.2613      75.943025      4987.6428      306.15988      14339.556      1.335172       0.65888128   
     31300  -9114.322      -9189.2044      74.882322      5632.4587      301.88372      14344.272      1.3347331      0.65888128   
     31400  -9112.8105     -9190.5225      77.711954      5726.2739      313.29121      14337.808      1.3353348      0.65888128   
     31500  -9113.6982     -9193.218       79.51981       6391.2001      320.57948      14324.496      1.3365758      0.65888128   
     31600  -9112.3615     -9189.2106      76.84914       9754.647       309.81283      14307.717      1.3381432      0.65888128   
     31700  -9113.3055     -9192.3361      79.030602      8767.4947      318.60727      14292.281      1.3395884      0.65888128   
     31800  -9113.6202     -9189.6833      76.063113      9526.4489      306.64401      14276.154      1.3411017      0.65888128   
     31900  -9112.9731     -9190.0677      77.094663      7823.4868      310.80264      14266.65       1.3419951      0.65888128   
     32000  -9113.9097     -9190.5555      76.645819      7323.6861      308.99315      14266.706      1.3419898      0.67443577   
     32100  -9114.2918     -9192.4057      78.113898      8268.3415      314.91163      14276.106      1.3411063      0.67443577   
     32200  -9115.9728     -9194.2943      78.321552      5434.2772      315.74877      14289.155      1.3398816      0.67443577   
     32300  -9115.9218     -9192.4125      76.490739      5147.2651      308.36796      14296.699      1.3391745      0.67443577   
     32400  -9113.2354     -9189.6353      76.399928      5933.8418      308.00186      14297.895      1.3390625      0.67443577   
     32500  -9114.1075     -9190.8334      76.725851      9496.8743      309.3158       14299.329      1.3389282      0.67443577   
     32600  -9114.3255     -9191.4323      77.106784      9054.9989      310.8515       14298.992      1.3389597      0.67443577   
     32700  -9113.9622     -9191.7329      77.77075       7355.1663      313.52825      14295.491      1.3392876      0.67443577   
     32800  -9115.2592     -9192.0805      76.821355      7872.2071      309.70082      14288.258      1.3399656      0.67443577   
     32900  -9115.4556     -9192.332       76.876427      9354.7786      309.92284      14281.401      1.340609       0.67443577   
     33000  -9115.3126     -9192.0303      76.717691      8114.2799      309.2829       14277.402      1.3409845      0.76645964   
     33100  -9118.2567     -9195.787       77.530273      5672.357       312.55878      14280.704      1.3406744      0.76645964   
     33200  -9117.7984     -9194.2669      76.468524      7933.3726      308.2784       14282.28       1.3405265      0.76645964   
     33300  -9117.6668     -9192.5196      74.852745      7491.4269      301.76448      14283.041      1.3404551      0.76645964   
     33400  -9119.0272     -9191.9456      72.918414      9006.6438      293.96634      14285.351      1.3402383      0.76645964   
     33500  -9119.6992     -9195.0953      75.396081      7414.7884      303.95491      14289.873      1.3398142      0.76645964   
     33600  -9118.5148     -9193.9198      75.404957      7309.4033      303.99069      14293.28       1.3394948      0.76645964   
     33700  -9119.3454     -9194.8563      75.510896      6577.1432      304.41778      14295.563      1.3392809      0.76645964   
     33800  -9119.2968     -9194.3212      75.024485      8756.2345      302.45684      14291.592      1.339653       0.76645964   
     33900  -9119.2686     -9194.9755      75.706956      9495.539       305.20818      14285.035      1.340268       0.76645964   
     34000  -9117.2617     -9192.4319      75.170129      10428.449      303.04399      14273.596      1.3413421      0.65543396   
     34100  -9116.9587     -9193.8147      76.856029      8197.3573      309.8406       14265.418      1.342111       0.65543396   
     34200  -9116.6636     -9191.0597      74.396059      10319.12       299.92338      14263.052      1.3423337      0.65543396   
     34300  -9117.7987     -9193.4814      75.682709      7211.847       305.11043      14272.657      1.3414303      0.65543396   
     34400  -9117.6525     -9193.1645      75.512019      7154.1515      304.4223       14288.878      1.3399075      0.65543396   
     34500  -9118.7913     -9194.353       75.561719      7737.2297      304.62267      14307.851      1.3381307      0.65543396   
     34600  -9117.1174     -9189.5829      72.465512      8899.5911      292.14049      14321.38       1.3368666      0.65543396   
     34700  -9118.174      -9194.1655      75.991564      4550.0225      306.35556      14328.406      1.3362111      0.65543396   
     34800  -9117.3272     -9193.7767      76.449504      5689.7832      308.20172      14325.706      1.3364629      0.65543396   
     34900  -9116.7465     -9193.6017      76.855214      8685.8767      309.83732      14317.044      1.3372714      0.65543396   
     35000  -9115.9392     -9192.2395      76.300358      8193.9298      307.60045      14304.474      1.3384466      0.73776153   
     35100  -9114.1503     -9190.9829      76.83258       8308.8888      309.74607      14296.148      1.3392261      0.73776153   
     35200  -9113.5451     -9189.8691      76.323992      6865.1795      307.69573      14295.076      1.3393266      0.73776153   
     35300  -9112.8747     -9191.8954      79.020681      8909.9253      318.56727      14299.979      1.3388674      0.73776153   
     35400  -9112.9147     -9191.1323      78.217645      6562.7456      315.32988      14313.667      1.3375869      0.73776153   
     35500  -9110.3307     -9189.9607      79.630086      8221.1797      321.02405      14330.171      1.3360465      0.73776153   
     35600  -9112.8378     -9189.3287      76.4909        8942.9786      308.3686       14350.919      1.3341149      0.73776153   
     35700  -9112.8639     -9188.8165      75.952681      9378.8178      306.19881      14370.407      1.3323057      0.73776153   
     35800  -9113.1071     -9190.517       77.409869      8496.5895      312.07338      14383.849      1.3310606      0.73776153   
     35900  -9112.3887     -9188.7587      76.369983      9967.0582      307.88113      14385.52       1.330906       0.73776153   
     36000  -9110.7059     -9188.6527      77.946839      10968.284      314.23814      14380.548      1.3313661      0.67613338   
     36100  -9111.4259     -9192.6317      81.205742      8049.7324      327.37622      14373.982      1.3319743      0.67613338   
     36200  -9112.8991     -9189.4097      76.510519      12151.473      308.4477       14361.477      1.3331341      0.67613338   
     36300  -9113.905      -9192.2241      78.319047      8192.1159      315.73867      14348.329      1.3343557      0.67613338   
     36400  -9113.823      -9191.2825      77.459505      8086.6945      312.27348      14333.4        1.3357455      0.67613338   
     36500  -9111.6282     -9190.4378      78.809622      7110.5905      317.7164       14323.766      1.3366439      0.67613338   
     36600  -9112.5467     -9190.4432      77.896422      6952.2127      314.03489      14324.917      1.3365365      0.67613338   
     36700  -9114.5069     -9191.3587      76.851775      7768.2331      309.82345      14334.273      1.3356642      0.67613338   
     36800  -9115.506      -9192.677       77.170995      8667.9787      311.11037      14345.757      1.3345949      0.67613338   
     36900  -9114.6622     -9193.7214      79.059227      7419.3247      318.72267      14357.489      1.3335044      0.67613338   
     37000  -9114.7892     -9191.1377      76.348543      5238.6953      307.7947       14365.367      1.3327731      0.62182308   
     37100  -9115.8524     -9190.7877      74.935239      3761.8646      302.09705      14363.653      1.3329322      0.62182308   
     37200  -9117.482      -9192.3779      74.89593       5369.9951      301.93858      14348.786      1.3343132      0.62182308   
     37300  -9116.8405     -9193.2945      76.454083      7131.2496      308.22018      14321.114      1.3368915      0.62182308   
     37400  -9114.0499     -9190.6725      76.622682      9465.3586      308.89988      14292.819      1.339538       0.62182308   
     37500  -9112.7604     -9191.4825      78.722105      9329.5946      317.36358      14273.879      1.3413155      0.62182308   
     37600  -9114.881      -9190.0723      75.191376      9216.9315      303.12965      14265.527      1.3421008      0.62182308   
     37700  -9115.415      -9192.5535      77.138512      8926.7475      310.97941      14268.417      1.3418289      0.62182308   
     37800  -9115.2914     -9194.191       78.899625      8815.8466      318.07924      14282.524      1.3405035      0.62182308   
     37900  -9115.3853     -9191.1269      75.74163       8697.2137      305.34797      14302.89       1.3385948      0.62182308   
     38000  -9115.8383     -9194.956       79.117661      5097.4203      318.95824      14328.152      1.3362348      0.63645904   
     38100  -9116.8721     -9193.621       76.748953      4887.3543      309.40893      14353.014      1.3339202      0.63645904   
     38200  -9116.0707     -9192.4843      76.413676      8024.3153      308.05728      14368.887      1.3324466      0.63645904   
     38300  -9116.1567     -9192.1258      75.969097      7834.8066      306.26499      14371.26       1.3322266      0.63645904   
     38400  -9114.297      -9191.8052      77.508241      7843.4828      312.46996      14363.335      1.3329616      0.63645904   
     38500  -9112.625      -9191.778       79.153053      9034.2218      319.10092      14347.974      1.3343887      0.63645904   
     38600  -9113.1504     -9190.7037      77.553278      11209.516      312.65152      14329.402      1.3361182      0.63645904   
     38700  -9110.9388     -9189.4668      78.527946      9068.5752      316.58084      14314.401      1.3375184      0.63645904   
     38800  -9110.3216     -9189.8292      79.507537      8568.3078      320.53         14311.549      1.3377849      0.63645904   
     38900  -9112.4776     -9190.0642      77.58664       8992.0467      312.78602      14317.05       1.3372709      0.63645904   
     39000  -9112.054      -9190.8098      78.755853      9823.3675      317.49963      14328.108      1.3362389      0.64574273   
     39100  -9113.293      -9191.0886      77.795644      9221.1287      313.6286       14344.96       1.3346691      0.64574273   
     39200  -9114.8146     -9192.7585      77.943873      8507.4848      314.22618      14365.823      1.3327308      0.64574273   
     39300  -9115.3734     -9191.252       75.878594      7343.1064      305.90013      14382.971      1.3311419      0.64574273   
     39400  -9114.2509     -9190.3119      76.061004      2632.9763      306.63551      14393.268      1.3301896      0.64574273   
     39500  -9115.3495     -9191.8975      76.547976      8328.8263      308.59871      14394.807      1.3300474      0.64574273   
     39600  -9115.6938     -9193.5311      77.837293      8707.994       313.79651      14385.019      1.3309524      0.64574273   
     39700  -9116.5272     -9192.4559      75.928742      6319.8352      306.1023       14366.571      1.3326614      0.64574273   
     39800  -9116.5848     -9189.695       73.110158      7708.6335      294.73934      14346.448      1.3345306      0.64574273   
     39900  -9116.5678     -9192.9249      76.357065      9564.8627      307.82906      14329.358      1.3361223      0.64574273   
     40000  -9116.2467     -9191.3098      75.063156      8099.7924      302.61274      14315.012      1.3374613      0.78927464   
     40100  -9116.4766     -9193.7157      77.239113      9747.6907      311.38498      14307.271      1.338185       0.78927464   
     40200  -9115.5557     -9191.0891      75.533357      9132.1883      304.50833      14307.734      1.3381416      0.78927464   
     40300  -9116.0128     -9192.1092      76.096353      10133.411      306.77801      14317.7        1.3372103      0.78927464   
     40400  -9116.6483     -9193.0312      76.382897      8791.3722      307.9332       14331.329      1.3359385      0.78927464   
     40500  -9116.9192     -9193.332       76.412842      6231.9368      308.05392      14342.638      1.3348852      0.78927464   
     40600  -9118.2016     -9194.3124      76.110834      6082.2659      306.83639      14347.683      1.3344158      0.78927464   
     40700  -9118.5212     -9194.2077      75.686493      7794.5374      305.12569      14344.559      1.3347064      0.78927464   
     40800  -9116.3592     -9191.4334      75.074191      9142.3941      302.65723      14337.375      1.3353752      0.78927464   
     40900  -9115.9608     -9192.1221      76.161285      9425.3868      307.03978      14331.331      1.3359383      0.78927464   
     41000  -9115.558      -9192.3131      76.755141      8681.0816      309.43388      14327.814      1.3362663      0.66938163   
     41100  -9115.3625     -9191.53        76.167566      10544.707      307.0651       14325.001      1.3365287      0.66938163   
     41200  -9114.9247     -9192.405       77.480325      6733.5353      312.35741      14324.044      1.3366179      0.66938163   
     41300  -9114.5854     -9190.5715      75.986052      8518.1084      306.33334      14325.874      1.3364473      0.66938163   
     41400  -9114.6293     -9191.6019      76.972637      10398.913      310.3107       14332.808      1.3358007      0.66938163   
     41500  -9115.5794     -9192.3463      76.766888      7418.1656      309.48124      14341.872      1.3349565      0.66938163   
     41600  -9117.8819     -9194.279       76.397019      8459.3778      307.99013      14349.012      1.3342922      0.66938163   
     41700  -9116.7417     -9192.7971      76.055484      9353.1873      306.61325      14348.028      1.3343837      0.66938163   
     41800  -9117.3976     -9193.5814      76.183807      7573.5534      307.13058      14344.421      1.3347193      0.66938163   
     41900  -9116.1444     -9193.0595      76.915062      4630.986       310.07859      14333.096      1.3357739      0.66938163   
     42000  -9112.8542     -9189.6303      76.776142      6042.6641      309.51854      14315.641      1.3374025      0.69042782   
     42100  -9115.7447     -9191.7536      76.008988      8403.1686      306.42581      14304.594      1.3384354      0.69042782   
     42200  -9115.2958     -9191.9523      76.656503      10369.494      309.03623      14301.678      1.3387083      0.69042782   
     42300  -9116.7349     -9192.9837      76.248835      8240.8848      307.39273      14305.134      1.3383849      0.69042782   
     42400  -9116.7346     -9193.5116      76.777053      10174.171      309.52221      14311.698      1.337771       0.69042782   
     42500  -9116.9438     -9192.9471      76.003288      7616.899       306.40282      14322.589      1.3367538      0.69042782   
     42600  -9117.9325     -9193.5946      75.662191      5990.7751      305.02771      14337.29       1.3353831      0.69042782   
     42700  -9114.9545     -9192.4011      77.446564      9342.1204      312.22131      14347.616      1.334422       0.69042782   
     42800  -9115.0322     -9193.3912      78.358946      8273.9639      315.89952      14351.126      1.3340957      0.69042782   
     42900  -9116.4039     -9193.3299      76.925961      7440.9036      310.12253      14347.303      1.3344511      0.69042782   
     43000  -9115.1971     -9192.0085      76.811395      7939.5475      309.66066      14334.438      1.3356488      0.68438743   
     43100  -9114.7135     -9191.7141      77.000614      7012.7629      310.42349      14320.375      1.3369604      0.68438743   
     43200  -9113.3376     -9191.492       78.154418      5483.4328      315.07498      14309.009      1.3380225      0.68438743   
     43300  -9112.3186     -9190.5228      78.204154      6808.2042      315.27549      14301.815      1.3386954      0.68438743   
     43400  -9111.1632     -9187.8921      76.728896      7989.8418      309.32807      14303.677      1.3385212      0.68438743   
     43500  -9112.4766     -9190.6936      78.217004      6884.9272      315.3273       14316.903      1.3372847      0.68438743   
     43600  -9113.4995     -9190.1473      76.647854      5938.0633      309.00136      14340.22       1.3351102      0.68438743   
     43700  -9113.3345     -9190.9019      77.567418      9300.7202      312.70852      14364.694      1.3328355      0.68438743   
     43800  -9114.2141     -9190.8992      76.685143      7023.9662      309.15169      14380.657      1.3313561      0.68438743   
     43900  -9114.2414     -9190.4471      76.205715      8562.3589      307.2189       14382.798      1.3311579      0.68438743   
     44000  -9112.6132     -9192.5337      79.920515      7852.8358      322.1949       14378.688      1.3315384      0.62342304   
     44100  -9110.2797     -9190.2166      79.936814      7572.1713      322.26061      14367.944      1.332534       0.62342304   
     44200  -9111.6432     -9188.5891      76.945924      8322.4762      310.20301      14354.677      1.3337656      0.62342304   
     44300  -9114.2038     -9191.4511      77.247333      9882.831       311.41812      14345.307      1.3346368      0.62342304   
     44400  -9112.6564     -9190.9715      78.315087      8218.6784      315.72271      14338.398      1.3352799      0.62342304   
     44500  -9115.0569     -9191.6644      76.607502      7419.6611      308.83868      14330.717      1.3359956      0.62342304   
     44600  -9115.9527     -9190.5841      74.631437      8666.3196      300.87229      14320.891      1.3369122      0.62342304   
     44700  -9116.2455     -9192.6061      76.360544      6969.4825      307.84308      14312.321      1.3377128      0.62342304   
     44800  -9117.6277     -9195.0534      77.425789      6712.4667      312.13756      14304.053      1.338486       0.62342304   
     44900  -9116.149      -9190.8813      74.73234       8913.1194      301.27908      14295.437      1.3392927      0.62342304   
     45000  -9114.6605     -9191.3448      76.684319      8926.9998      309.14836      14293.349      1.3394884      0.6534404    
     45100  -9113.1632     -9190.9453      77.782163      7455.6783      313.57426      14300.25       1.3388419      0.6534404    
     45200  -9114.4543     -9193.1958      78.741429      6457.1081      317.44148      14311.652      1.3377753      0.6534404    
     45300  -9115.361      -9191.1183      75.757303      7635.4031      305.41115      14317.445      1.337234       0.6534404    
     45400  -9112.8595     -9189.5464      76.686914      11271.991      309.15883      14322.271      1.3367834      0.6534404    
     45500  -9113.9102     -9192.3021      78.391925      9952.6661      316.03248      14329.287      1.336129       0.6534404    
     45600  -9114.1791     -9191.423       77.243872      11439.126      311.40417      14332.166      1.3358605      0.6534404    
     45700  -9113.6125     -9190.4455      76.833014      7493.0589      309.74782      14330.625      1.3360042      0.6534404    
     45800  -9115.4655     -9191.9011      76.435605      7840.0632      308.14569      14324.88       1.3365399      0.6534404    
     45900  -9116.6961     -9193.6625      76.9664        9468.0734      310.28556      14317.395      1.3372387      0.6534404    
     46000  -9116.4515     -9194.2174      77.765892      8498.6177      313.50866      14307.255      1.3381864      0.73992721   
     46100  -9114.6259     -9190.5134      75.887448      9429.024       305.93583      14295.818      1.3392571      0.73992721   
     46200  -9118.393      -9195.9932      77.600251      6405.0474      312.84089      14285.206      1.340252       0.73992721   
     46300  -9118.5658     -9193.0984      74.532652      8794.1904      300.47404      14271.588      1.3415307      0.73992721   
     46400  -9118.9078     -9193.0803      74.172503      9007.5412      299.02212      14259.905      1.3426299      0.73992721   
     46500  -9119.8111     -9194.9396      75.12844       7548.9252      302.87593      14250.024      1.3435609      0.73992721   
     46600  -9119.9631     -9196.0459      76.082742      7054.746       306.72314      14242.438      1.3442765      0.73992721   
     46700  -9119.0866     -9195.6359      76.549335      7709.3628      308.60418      14238.925      1.3446082      0.73992721   
     46800  -9118.4287     -9194.363       75.934259      9605.2863      306.12454      14244.124      1.3441174      0.73992721   
     46900  -9117.7672     -9193.4279      75.660728      8615.8592      305.02182      14255.298      1.3430638      0.73992721   
     47000  -9117.575      -9194.425       76.849947      9638.4589      309.81608      14268.113      1.3418575      0.69047972   
     47100  -9117.1225     -9191.8172      74.694768      8091.9088      301.12761      14281.99       1.3405537      0.69047972   
     47200  -9118.8963     -9193.2124      74.316076      4949.5683      299.60093      14298.594      1.338997       0.69047972   
     47300  -9118.3829     -9194.0617      75.678809      4642.1142      305.09471      14310.614      1.3378723      0.69047972   
     47400  -9119.4092     -9194.1061      74.696919      9972.0586      301.13628      14310.304      1.3379013      0.69047972   
     47500  -9117.66       -9192.7439      75.083814      12803.466      302.69602      14295.157      1.339319       0.69047972   
     47600  -9114.9936     -9192.6449      77.651309      7963.5018      313.04673      14270.276      1.3416541      0.69047972   
     47700  -9114.3699     -9191.2285      76.858622      7195.5255      309.85105      14246.308      1.3439113      0.69047972   
     47800  -9116.2157     -9192.5161      76.300433      9226.9818      307.60075      14231.361      1.3453228      0.69047972   
     47900  -9115.2278     -9192.3686      77.140865      8527.6193      310.9889       14227.478      1.34569        0.69047972   
     48000  -9113.7632     -9190.7122      76.948961      9474.9043      310.21525      14233.646      1.3451068      0.68180989   
     48100  -9114.7402     -9191.5434      76.803226      7189.8077      309.62773      14253.584      1.3432253      0.68180989   
     48200  -9112.4387     -9190.1705      77.731846      7236.7598      313.37141      14283.069      1.3404524      0.68180989   
     48300  -9113.9979     -9191.3254      77.327488      10627.812      311.74126      14314.27       1.3375307      0.68180989   
     48400  -9112.1474     -9189.4093      77.261945      9674.3121      311.47703      14344.434      1.334718       0.68180989   
     48500  -9113.6273     -9189.7173      76.090048      6979.5257      306.7526       14371.071      1.3322441      0.68180989   
     48600  -9113.6759     -9193.0694      79.393516      5849.5591      320.07033      14385.806      1.3308795      0.68180989   
     48700  -9111.5938     -9191.0386      79.444832      7369.045       320.27721      14381.079      1.331317       0.68180989   
     48800  -9112.3187     -9190.2354      77.916686      7201.7073      314.11658      14359.901      1.3332804      0.68180989   
     48900  -9113.0392     -9191.1772      78.138072      9096.1304      315.00908      14332.688      1.3358119      0.68180989   
     49000  -9117.9421     -9192.3743      74.432166      5574.2127      300.06894      14303.864      1.3385037      0.68915255   
     49100  -9116.0181     -9190.7996      74.781418      5142.3945      301.47693      14268.756      1.341797       0.68915255   
     49200  -9115.2614     -9194.2462      78.984786      9185.2027      318.42256      14238.102      1.3446859      0.68915255   
     49300  -9113.7125     -9190.4513      76.738839      12729.337      309.36816      14221.961      1.346212       0.68915255   
     49400  -9111.8181     -9189.2154      77.397321      10735.345      312.02279      14230.244      1.3454284      0.68915255   
     49500  -9110.9605     -9189.3139      78.353393      10508.559      315.87714      14263.351      1.3423055      0.68915255   
     49600  -9112.8491     -9187.6339      74.784779      8096.6547      301.49048      14310.617      1.3378721      0.68915255   
     49700  -9114.1753     -9191.2981      77.122814      9761.9347      310.91613      14359.494      1.3333182      0.68915255   
     49800  -9115.7414     -9190.2654      74.524069      9498.5498      300.43944      14395.059      1.330024       0.68915255   
     49900  -9117.8497     -9193.7229      75.873203      5767.4261      305.8784       14407.959      1.3288332      0.68915255   
     50000  -9116.558      -9192.8084      76.250459      6344.4576      307.39928      14395.594      1.3299746      0.724467     
     50100  -9117.0173     -9192.8472      75.829911      8574.4714      305.70387      14364.129      1.332888       0.724467     
     50200  -9115.8373     -9191.7492      75.911888      5941.0253      306.03435      14320.58       1.3369413      0.724467     
     50300  -9116.8372     -9193.5408      76.703666      6681.878       309.22636      14267.384      1.341926       0.724467     
     50400  -9116.0175     -9194.7518      78.734308      11306.993      317.41277      14215.966      1.3467797      0.724467     
     50500  -9116.3337     -9192.4463      76.112523      9276.9615      306.8432       14182.353      1.3499716      0.724467     
     50600  -9118.2919     -9193.3942      75.102281      10030.172      302.77047      14174.347      1.3507341      0.724467     
     50700  -9119.0198     -9195.1516      76.13178       11531.522      306.92084      14190.951      1.3491537      0.724467     
     50800  -9116.1687     -9194.1876      78.018872      10206.401      314.52854      14227.016      1.3457337      0.724467     
     50900  -9117.3948     -9193.0375      75.642701      10116.605      304.94914      14275.953      1.3411206      0.724467     
     51000  -9117.6332     -9193.226       75.592774      8102.0526      304.74786      14332.329      1.3358454      0.68758305   
     51100  -9116.5037     -9193.0819      76.578191      9817.6563      308.72052      14389.166      1.3305688      0.68758305   
     51200  -9117.842      -9194.5224      76.680428      7666.0003      309.13268      14428.646      1.326928       0.68758305   
     51300  -9118.7703     -9194.2629      75.492627      5398.7356      304.34413      14437.934      1.3260744      0.68758305   
     51400  -9116.6122     -9190.8252      74.213012      6821.2112      299.18543      14414.261      1.3282523      0.68758305   
     51500  -9117.774      -9193.7969      76.022817      8014.0808      306.48156      14372.854      1.3320788      0.68758305   
     51600  -9115.2655     -9192.825       77.559502      8318.5776      312.67661      14318.578      1.3371282      0.68758305   
     51700  -9114.2913     -9193.2819      78.990573      9307.7976      318.44589      14263.431      1.342298       0.68758305   
     51800  -9115.5382     -9193.0817      77.543506      9560.0958      312.61213      14222.946      1.3461187      0.68758305   
     51900  -9119.3953     -9192.2606      72.86529       11353.97       293.75217      14203.779      1.3479352      0.68758305   
     52000  -9119.7041     -9195.2288      75.52462       8437.2821      304.47311      14212.051      1.3471507      0.68864784   
     52100  -9118.1289     -9193.6133      75.48446       10117.274      304.3112       14240.545      1.3444552      0.68864784   
     52200  -9117.4656     -9192.8279      75.36227       8405.9489      303.8186       14282.114      1.3405421      0.68864784   
     52300  -9117.2054     -9193.4995      76.294047      8590.7225      307.575        14331.001      1.3359691      0.68864784   
     52400  -9117.586      -9195.0395      77.453522      7890.1657      312.24936      14371.25       1.3322275      0.68864784   
     52500  -9116.2164     -9192.4662      76.249864      4912.2101      307.39688      14392.994      1.3302148      0.68864784   
     52600  -9117.2032     -9193.8282      76.624992      5074.8493      308.90919      14395.492      1.329984       0.68864784   
     52700  -9117.0941     -9190.0266      72.932536      6852.4668      294.02327      14375.116      1.3318692      0.68864784   
     52800  -9115.9212     -9191.1797      75.258531      6621.5417      303.40038      14339.673      1.3351612      0.68864784   
     52900  -9115.43       -9191.3826      75.952601      8402.7691      306.19849      14297.183      1.3391291      0.68864784   
     53000  -9116.3961     -9191.8168      75.420721      6510.028       304.05424      14257.728      1.3428349      0.72963651   
     53100  -9117.1419     -9193.4943      76.352352      8732.5294      307.81006      14227.265      1.3457102      0.72963651   
     53200  -9117.0156     -9192.131       75.115359      9273.1674      302.82319      14208.046      1.3475305      0.72963651   
     53300  -9116.5802     -9193.6921      77.111902      9537.7686      310.87214      14205.487      1.3477732      0.72963651   
     53400  -9114.9939     -9192.3823      77.388417      10756.727      311.98689      14222.11       1.3461979      0.72963651   
     53500  -9115.3386     -9192.8396      77.500986      11994.319      312.44071      14259.127      1.3427032      0.72963651   
     53600  -9113.5114     -9192.3778      78.866354      8376.7667      317.94511      14301.865      1.3386908      0.72963651   
     53700  -9113.3226     -9189.9054      76.58277       6015.9783      308.73898      14342.749      1.3348749      0.72963651   
     53800  -9113.9383     -9192.0023      78.063915      10047.374      314.71013      14377.589      1.3316401      0.72963651   
     53900  -9114.7188     -9191.5503      76.831515      8387.1415      309.74178      14400.648      1.3295078      0.72963651   
     54000  -9115.9113     -9191.2678      75.35651       6391.3444      303.79538      14402.768      1.3293121      0.65525101   
     54100  -9114.9643     -9193.1643      78.199951      5494.1851      315.25855      14384.805      1.3309721      0.65525101   
     54200  -9115.4704     -9190.6795      75.209107      7360.6973      303.20113      14349.122      1.3342819      0.65525101   
     54300  -9115.9503     -9191.7328      75.78251       7782.4447      305.51277      14302.856      1.338598       0.65525101   
     54400  -9117.9222     -9194.5031      76.58088       7202.4312      308.73136      14259.97       1.3426238      0.65525101   
     54500  -9118.7317     -9194.6322      75.900456      8525.8919      305.98827      14226.373      1.3457945      0.65525101   
     54600  -9118.6747     -9193.5751      74.900413      9907.9992      301.95665      14206.609      1.3476667      0.65525101   
     54700  -9119.5354     -9193.449       73.913632      8100.5997      297.9785       14201.615      1.3481406      0.65525101   
     54800  -9118.2181     -9195.0381      76.82008       10208.05       309.69568      14212.339      1.3471234      0.65525101   
     54900  -9117.6654     -9193.2956      75.630213      9643.4455      304.8988       14236.391      1.3448475      0.65525101   
     55000  -9116.2679     -9191.8085      75.540515      6914.3253      304.53719      14266.162      1.342041       0.68161976   
     55100  -9117.4807     -9192.688       75.207259      6743.2872      303.19368      14299.352      1.3389261      0.68161976   
     55200  -9117.9199     -9193.3895      75.469611      8145.3507      304.25134      14328.085      1.336241       0.68161976   
     55300  -9116.6107     -9190.3907      73.779992      5764.4488      297.43974      14349.806      1.3342184      0.68161976   
     55400  -9117.8259     -9192.9232      75.097324      2861.4698      302.75048      14360.444      1.33323        0.68161976   
     55500  -9118.4611     -9194.1133      75.652178      5902.2779      304.98735      14351.36       1.3340739      0.68161976   
     55600  -9117.5384     -9191.2945      73.756134      7042.2167      297.34356      14323.072      1.3367086      0.68161976   
     55700  -9116.8796     -9193.5458      76.666161      7203.1791      309.07516      14282.179      1.3405359      0.68161976   
     55800  -9115.6963     -9192.0412      76.344914      11425.872      307.78007      14245.217      1.3440142      0.68161976   
     55900  -9115.6527     -9192.1233      76.470654      8609.7696      308.28698      14218.672      1.3465234      0.68161976   
     56000  -9114.7449     -9192.4569      77.711995      7843.3418      313.29138      14209.836      1.3473607      0.67696926   
     56100  -9116.13       -9192.0664      75.936423      12041.087      306.13326      14220.123      1.346386       0.67696926   
     56200  -9115.4201     -9191.9731      76.552994      10788.975      308.61893      14251.441      1.3434273      0.67696926   
     56300  -9116.7016     -9193.9494      77.247871      5773.2804      311.42029      14294.705      1.3393613      0.67696926   
     56400  -9116.437      -9191.4342      74.997222      7601.716       302.34693      14334.263      1.3356651      0.67696926   
     56500  -9115.2055     -9192.0392      76.83365       9645.62        309.75038      14364.428      1.3328602      0.67696926   
     56600  -9114.2411     -9189.0748      74.833672      6417.8076      301.68759      14379.038      1.331506       0.67696926   
     56700  -9116.7237     -9192.5047      75.781081      8656.1111      305.50701      14377.617      1.3316376      0.67696926   
     56800  -9118.0201     -9193.5625      75.542423      6453.024       304.54488      14356.084      1.3336349      0.67696926   
     56900  -9115.8339     -9192.3661      76.532213      7833.9377      308.53516      14314.538      1.3375056      0.67696926   
     57000  -9116.4208     -9191.9436      75.522784      9924.3443      304.4657       14267.355      1.3419288      0.62419063   
     57100  -9116.5817     -9194.236       77.654276      10371.982      313.05869      14221.434      1.3462619      0.62419063   
     57200  -9118.564      -9193.7774      75.213363      8277.6686      303.21829      14185.459      1.3496761      0.62419063   
[...]
    386300  -9118.4101     -9193.6483      75.238124      8245.6216      303.31811      14281.565      1.3405936      0.67952598   
    386400  -9118.6768     -9193.9928      75.315997      9871.658       303.63205      14250.893      1.343479       0.67952598   
    386500  -9119.9414     -9195.34        75.398613      10288.516      303.96512      14235.023      1.3449768      0.67952598   
    386600  -9119.5043     -9194.4186      74.914329      8910.2797      302.01275      14231.955      1.3452666      0.67952598   
    386700  -9118.7038     -9192.2574      73.553638      6629.6546      296.5272       14241.407      1.3443738      0.67952598   
    386800  -9118.5104     -9193.0848      74.574348      7281.9068      300.64214      14264.686      1.3421799      0.67952598   
    386900  -9118.5587     -9193.9342      75.375561      6111.0094      303.87218      14299.854      1.338879       0.67952598   
    387000  -9116.5621     -9193.1567      76.594592      7543.2431      308.78664      14337.469      1.3353664      0.66477094   
    387100  -9118.0035     -9193.8593      75.855803      10454.942      305.80825      14372.001      1.3321579      0.66477094   
    387200  -9118.5312     -9193.0897      74.558416      7979.1909      300.57791      14397.71       1.3297792      0.66477094   
    387300  -9117.4491     -9194.2095      76.760345      5822.5656      309.45486      14408.712      1.3287638      0.66477094   
    387400  -9115.7193     -9194.7536      79.034295      7202.3515      318.62216      14397.983      1.3297539      0.66477094   
    387500  -9114.0031     -9192.9599      78.956842      8640.0233      318.30991      14367.309      1.3325929      0.66477094   
    387600  -9113.1764     -9191.6072      78.430725      10148.503      316.1889       14330.23       1.336041       0.66477094   
    387700  -9115.3622     -9193.3402      77.978043      11750.719      314.36393      14293.221      1.3395004      0.66477094   
    387800  -9114.3112     -9192.4996      78.188438      9215.0381      315.21213      14261.281      1.3425003      0.66477094   
    387900  -9113.4502     -9191.232       77.781821      12705.341      313.57288      14239.092      1.3445923      0.66477094   
    388000  -9112.4562     -9191.4174      78.961218      7419.5234      318.32755      14238.704      1.344629       0.72704786   
    388100  -9113.7557     -9191.0259      77.270227      8285.6125      311.51042      14259.178      1.3426983      0.72704786   
    388200  -9113.8624     -9191.2676      77.40521       10373.968      312.05459      14295.493      1.3392875      0.72704786   
    388300  -9115.9642     -9191.4229      75.458644      9680.7747      304.20713      14339.991      1.3351316      0.72704786   
    388400  -9116.6795     -9193.5059      76.826419      8611.2882      309.72123      14382.224      1.331211       0.72704786   
    388500  -9116.4844     -9192.2946      75.810241      4595.748       305.62457      14409.661      1.3286763      0.72704786   
    388600  -9113.6344     -9190.7958      77.161438      7479.5593      311.07184      14411.888      1.3284709      0.72704786   
    388700  -9112.4188     -9191.2561      78.837269      5690.2361      317.82786      14391.975      1.3303091      0.72704786   
    388800  -9110.5619     -9189.9071      79.34518       5557.0859      319.87547      14359.351      1.3333315      0.72704786   
    388900  -9110.1009     -9188.1047      78.003783      7273.0109      314.46771      14324.637      1.3365627      0.72704786   
    389000  -9111.6174     -9190.91        79.292545      9328.9591      319.66327      14294.213      1.3394074      0.71346378   
    389100  -9112.5501     -9191.9076      79.357473      11048.951      319.92503      14274.195      1.3412858      0.71346378   
    389200  -9115.887      -9191.0675      75.180572      9461.5171      303.0861       14271.967      1.3414952      0.71346378   
    389300  -9115.0793     -9191.1754      76.096062      7223.505       306.77684      14293.176      1.3395045      0.71346378   
    389400  -9115.4112     -9193.332       77.920866      8739.2844      314.13343      14326.783      1.3363624      0.71346378   
    389500  -9114.6235     -9191.8933      77.269785      8444.1581      311.50864      14361.95       1.3330902      0.71346378   
    389600  -9113.7014     -9190.6866      76.985137      5832.5792      310.36109      14396.098      1.329928       0.71346378   
    389700  -9112.8866     -9190.815       77.928419      5654.426       314.16388      14424.966      1.3272665      0.71346378   
    389800  -9113.7509     -9191.3117      77.560732      7133.9765      312.68157      14436.723      1.3261857      0.71346378   
    389900  -9113.0366     -9191.8507      78.814159      7424.8032      317.73469      14426.603      1.3271159      0.71346378   
    390000  -9112.7538     -9188.9428      76.189014      6586.3759      307.15157      14399.874      1.3295793      0.68363014   
    390100  -9110.1124     -9188.884       78.771533      7234.0665      317.56284      14364.786      1.332827       0.68363014   
    390200  -9111.515      -9190.4056      78.890529      6652.0189      318.04257      14330.414      1.3360239      0.68363014   
    390300  -9110.6507     -9188.2829      77.632148      7196.9196      312.96948      14308.253      1.3380931      0.68363014   
    390400  -9110.8785     -9189.6138      78.73529       10492.613      317.41673      14301.914      1.3386862      0.68363014   
    390500  -9112.0793     -9192.9782      80.898883      12191.704      326.13913      14306.47       1.3382599      0.68363014   
    390600  -9112.8381     -9191.7294      78.891332      11695.569      318.04581      14318.527      1.337133       0.68363014   
    390700  -9114.4827     -9190.6038      76.121142      9464.5509      306.87795      14339.494      1.3351778      0.68363014   
    390800  -9113.8891     -9192.8003      78.91123       8258.809       318.12602      14359.202      1.3333453      0.68363014   
    390900  -9115.4716     -9192.0795      76.607864      7876.2126      308.84014      14371.964      1.3321613      0.68363014   
    391000  -9115.0871     -9190.3914      75.304297      5388.619       303.58488      14379.66       1.3314483      0.65896102   
    391100  -9114.8831     -9190.8955      76.012366      6861.8224      306.43942      14384.035      1.3310434      0.65896102   
    391200  -9114.4533     -9192.431       77.977677      6385.8091      314.36246      14380.774      1.3313452      0.65896102   
    391300  -9113.7822     -9189.064       75.281825      8272.2747      303.49429      14364.424      1.3328606      0.65896102   
    391400  -9114.2694     -9190.5141      76.244772      9686.9182      307.37636      14343.063      1.3348456      0.65896102   
    391500  -9113.4486     -9190.553       77.104408      9392.2039      310.84193      14327.098      1.3363331      0.65896102   
    391600  -9113.6129     -9189.5754      75.962478      11082.984      306.2383       14316.392      1.3373324      0.65896102   
    391700  -9115.7409     -9191.822       76.081127      8907.5967      306.71663      14313.833      1.3375715      0.65896102   
    391800  -9115.3893     -9192.4329      77.043583      7190.9339      310.59672      14318.576      1.3371284      0.65896102   
    391900  -9114.2726     -9192.8467      78.57416       8221.1678      316.76715      14325.548      1.3364776      0.65896102   
    392000  -9115.2628     -9195.0124      79.749541      7939.9948      321.50563      14333.767      1.3357113      0.63649905   
    392100  -9115.3557     -9191.6197      76.263974      7913.9352      307.45377      14344.587      1.3347038      0.63649905   
    392200  -9116.959      -9192.5684      75.609435      8762.7675      304.81503      14357.412      1.3335115      0.63649905   
    392300  -9116.5231     -9192.886       76.362876      6476.2895      307.85248      14363.083      1.3329851      0.63649905   
    392400  -9115.329      -9192.24        76.910986      6666.1292      310.06216      14362.163      1.3330704      0.63649905   
    392500  -9113.1768     -9190.7562      77.579429      9730.7485      312.75695      14356.182      1.3336257      0.63649905   
    392600  -9114.9022     -9189.9582      75.055993      7205.4232      302.58386      14349.668      1.3342312      0.63649905   
    392700  -9113.7051     -9192.1438      78.438687      9999.0751      316.221        14343.194      1.3348334      0.63649905   
    392800  -9111.0369     -9189.344       78.30709       12017.904      315.69047      14336.741      1.3354343      0.63649905   
    392900  -9111.5696     -9188.8877      77.318063      8416.2473      311.70326      14333.24       1.3357605      0.63649905   
    393000  -9113.2722     -9190.771       77.498795      8640.4802      312.43188      14336.927      1.3354169      0.67390675   
    393100  -9114.6153     -9191.0155      76.400144      9387.3915      308.00273      14343.066      1.3348453      0.67390675   
    393200  -9116.1976     -9192.969       76.771385      8266.6751      309.49936      14346.178      1.3345557      0.67390675   
    393300  -9114.2733     -9191.2352      76.961884      7985.4605      310.26735      14342.78       1.334872       0.67390675   
    393400  -9114.2187     -9191.4232      77.204447      7093.7109      311.24523      14332.638      1.3358166      0.67390675   
    393500  -9113.6257     -9194.0345      80.408777      6517.4818      324.1633       14320.465      1.336952       0.67390675   
    393600  -9114.9663     -9191.018       76.051743      7867.454       306.59817      14307.642      1.3381503      0.67390675   
    393700  -9114.4384     -9190.1294      75.691025      7857.8994      305.14396      14301.281      1.3387455      0.67390675   
    393800  -9113.8696     -9191.8381      77.968513      6396.0406      314.32552      14303.094      1.3385757      0.67390675   
    393900  -9115.6219     -9192.8739      77.252068      6230.7938      311.43721      14312.196      1.3377244      0.67390675   
    394000  -9116.2563     -9192.296       76.039714      6025.5171      306.54967      14321.105      1.3368922      0.65410746   
    394100  -9117.7777     -9193.6554      75.877606      4854.6591      305.89615      14328.392      1.3362124      0.65410746   
    394200  -9117.3923     -9193.7375      76.345194      8004.4539      307.7812       14331.689      1.335905       0.65410746   
    394300  -9115.451      -9194.2384      78.787368      7052.897       317.62668      14329.529      1.3361064      0.65410746   
    394400  -9117.143      -9193.232       76.088961      9263.8294      306.74821      14322.123      1.3367972      0.65410746   
    394500  -9118.6047     -9193.4016      74.796866      10000.943      301.53921      14315.374      1.3374275      0.65410746   
    394600  -9119.4238     -9193.5762      74.152492      9219.8887      298.94145      14308.158      1.338102       0.65410746   
    394700  -9120.4523     -9194.5841      74.131835      6648.621       298.85817      14296.029      1.3392372      0.65410746   
    394800  -9119.1969     -9194.4553      75.258479      6540.1601      303.40017      14283          1.3404589      0.65410746   
    394900  -9120.3851     -9197.4598      77.07476       7738.717       310.7224       14271.739      1.3415166      0.65410746   
    395000  -9120.0638     -9196.2112      76.14742       9637.2704      306.98389      14260.891      1.3425371      0.76323582   
    395100  -9118.693      -9194.7361      76.04312       9174.6302      306.56341      14255.644      1.3430312      0.76323582   
    395200  -9116.9986     -9192.4306      75.432001      7903.7363      304.09972      14264.69       1.3421795      0.76323582   
    395300  -9116.3099     -9193.0202      76.710322      6395.0364      309.25319      14286.41       1.340139       0.76323582   
    395400  -9117.9548     -9192.6461      74.691347      7764.3219      301.11381      14315.013      1.3374612      0.76323582   
    395500  -9116.0391     -9191.9447      75.90562       6276.1992      306.00908      14338.048      1.3353125      0.76323582   
    395600  -9115.0256     -9192.4959      77.470282      8382.0966      312.31693      14355.245      1.3337128      0.76323582   
    395700  -9115.603      -9190.7369      75.133931      6367.7506      302.89806      14363.422      1.3329536      0.76323582   
    395800  -9115.1174     -9191.0394      75.922024      5266.7127      306.07522      14363.098      1.3329837      0.76323582   
    395900  -9112.4121     -9191.0927      78.680658      8006.0248      317.19649      14354.1        1.3338192      0.76323582   
    396000  -9113.6537     -9190.6217      76.968062      5521.5973      310.29226      14341.447      1.3349961      0.65589803   
    396100  -9114.16       -9189.188       75.028061      7150.6562      302.47126      14330.588      1.3360076      0.65589803   
    396200  -9114.1081     -9192.9606      78.852532      7836.8725      317.88939      14321.339      1.3368705      0.65589803   
    396300  -9114.9303     -9191.2733      76.343031      8177.5911      307.77248      14318.704      1.3371165      0.65589803   
    396400  -9114.5066     -9190.3076      75.800938      7720.6438      305.58707      14316.042      1.3373651      0.65589803   
    396500  -9114.4814     -9192.6582      78.176745      7400.9047      315.16499      14317.618      1.3372179      0.65589803   
    396600  -9115.7016     -9192.2627      76.561016      8354.0163      308.65128      14318.401      1.3371448      0.65589803   
    396700  -9115.1829     -9192.3819      77.198948      7455.6045      311.22306      14321.025      1.3368997      0.65589803   
    396800  -9117.6274     -9192.6454      75.018046      7673.4948      302.43088      14321.551      1.3368506      0.65589803   
    396900  -9116.9801     -9192.437       75.45695       5670.4631      304.2003       14318.855      1.3371023      0.65589803   
    397000  -9115.3456     -9192.2191      76.873583      7121.5428      309.91137      14311.671      1.3377736      0.68061518   
    397100  -9116.7408     -9191.7366      74.995749      10165.149      302.34099      14305.29       1.3383703      0.68061518   
    397200  -9117.2616     -9193.7228      76.461106      10374.859      308.24849      14304.044      1.3384868      0.68061518   
    397300  -9115.2842     -9193.2598      77.975577      10680.675      314.354        14302.126      1.3386663      0.68061518   
    397400  -9113.1738     -9191.3126      78.138822      8056.361       315.01211      14301.704      1.3387059      0.68061518   
    397500  -9115.1169     -9191.9565      76.839589      6149.1993      309.77432      14307.432      1.3381699      0.68061518   
    397600  -9116.503      -9195.1821      78.679095      4711.9558      317.19019      14320.431      1.3369552      0.68061518   
    397700  -9116.9226     -9193.0829      76.160303      7280.6715      307.03582      14330.157      1.3360478      0.68061518   
    397800  -9117.1021     -9191.9301      74.827997      5946.3998      301.66471      14334.093      1.3356809      0.68061518   
    397900  -9115.5614     -9191.8628      76.301454      7247.7886      307.60487      14329.104      1.3361459      0.68061518   
    398000  -9116.6812     -9193.1452      76.46404       8198.4139      308.26032      14318.147      1.3371685      0.68847524   
    398100  -9115.2797     -9192.4659      77.186221      9068.014       311.17175      14304.672      1.3384281      0.68847524   
    398200  -9116.5818     -9193.6097      77.027951      8851.3267      310.53369      14289.858      1.3398156      0.68847524   
    398300  -9116.0088     -9192.9189      76.910052      10970.739      310.05839      14277.665      1.3409597      0.68847524   
    398400  -9114.0663     -9191.7955      77.729154      9486.5283      313.36056      14274.867      1.3412227      0.68847524   
    398500  -9114.0694     -9191.0101      76.94063       8596.4148      310.18167      14284.899      1.3402807      0.68847524   
    398600  -9114.4562     -9193.9445      79.488348      6507.3302      320.45264      14304.251      1.3384675      0.68847524   
    398700  -9114.0112     -9194.1561      80.144887      8067.7754      323.09944      14325.911      1.3364438      0.68847524   
    398800  -9113.5519     -9190.3478      76.795918      6310.9524      309.59827      14342.384      1.3349088      0.68847524   
    398900  -9112.375      -9189.0959      76.720913      6463.7969      309.29589      14357.535      1.3335001      0.68847524   
    399000  -9114.4486     -9192.7565      78.307867      5154.73        315.6936       14368.544      1.3324784      0.70618634   
    399100  -9115.5757     -9190.6165      75.040813      5756.0827      302.52266      14368.185      1.3325117      0.70618634   
    399200  -9114.3085     -9189.9692      75.660662      6335.9923      305.02155      14359.615      1.333307       0.70618634   
    399300  -9113.3256     -9192.0892      78.763544      7465.6544      317.53064      14347.888      1.3343968      0.70618634   
    399400  -9113.6766     -9190.9407      77.264078      8939.1067      311.48563      14331.662      1.3359075      0.70618634   
    399500  -9112.7147     -9192.5408      79.826093      10018.858      321.81424      14316.969      1.3372785      0.70618634   
    399600  -9114.0883     -9192.6998      78.611499      9130.3826      316.91768      14309.14       1.3380101      0.70618634   
    399700  -9115.0335     -9191.8366      76.803088      8423.5329      309.62718      14305.426      1.3383575      0.70618634   
    399800  -9113.9661     -9190.8623      76.896213      7918.1608      310.0026       14300.101      1.3388559      0.70618634   
    399900  -9116.4339     -9193.9735      77.539655      6408.8181      312.5966       14296.879      1.3391576      0.70618634   
    400000  -9118.1022     -9193.9928      75.890571      5990.834       305.94842      14292.051      1.33961        0.69442331   
    400100  -9116.4369     -9194.1161      77.679245      10512.02       313.15935      14286.524      1.3401283      0.69442331   
    400200  -9116.2659     -9192.9492      76.683381      8840.4935      309.14458      14282.618      1.3404948      0.69442331   
    400300  -9116.3525     -9191.6038      75.251226      7994.6046      303.37093      14281.785      1.3405729      0.69442331   
    400303  -9116.8281     -9192.9565      76.128364      9119.8477      306.90706      14281.798      1.3405717      0.69442331   
Loop time of 543.829 on 4 procs for 200000 steps with 1920 atoms

Performance: 15.887 ns/day, 1.511 hours/ns, 367.763 timesteps/s, 706.105 katom-step/s
99.5% CPU use with 4 MPI tasks x 1 OpenMP threads

MPI task timing breakdown:
Section |  min time  |  avg time  |  max time  |%varavg| %total
---------------------------------------------------------------
Pair    | 272.11     | 273.77     | 275.96     |   8.7 | 50.34
Neigh   | 7.8619     | 7.997      | 8.1126     |   3.4 |  1.47
Comm    | 66.164     | 69.043     | 71.527     |  27.1 | 12.70
Output  | 0.30957    | 0.31564    | 0.32281    |   0.9 |  0.06
Modify  | 189.23     | 190.29     | 191.41     |   6.5 | 34.99
Other   |            | 2.408      |            |       |  0.44

Nlocal:            480 ave         485 max         475 min
Histogram: 1 0 0 0 0 2 0 0 0 1
Nghost:         2649.5 ave        2653 max        2645 min
Histogram: 1 0 0 0 0 1 0 1 0 1
Neighs:              0 ave           0 max           0 min
Histogram: 4 0 0 0 0 0 0 0 0 0
FullNghs:      75562.5 ave       76457 max       74422 min
Histogram: 1 0 0 0 0 1 1 0 0 1

Total # of neighbors = 302250
Ave neighs/atom = 157.42188
Neighbor list builds = 20000
Dangerous builds = 20000
Total wall time: 0:18:09
