LAMMPS (7 Feb 2024 - Update 1)
KOKKOS mode with Kokkos version 4.2.0 is enabled (src/KOKKOS/kokkos.cpp:72)
  will use up to 4 GPU(s) per node
  using 1 OpenMP thread(s) per MPI task
package kokkos
package kokkos newton on neigh half

units		metal						## E in [eV], t in [ps], P in [10000 Pa], l in [A]
atom_style	atomic						## mass x y z vx vy vz

neighbor	0.5 bin						## neighbor list, skin = 0.5 Angstrom
neigh_modify	every 2 delay 10 check yes			## update of neighbor list

############################## main variables
variable        seed equal 59712

variable	temperature equal 290
variable	tempDamp equal 0.1

variable        pressure equal 5000
variable        pressureDamp equal 1.0 				# This is 1 ps

##############################

read_data water.dat
Reading data file ...
  triclinic box = (0 0 0) to (18.047441 22.912981 19.549222) with tilt (-0.10697296 -6.2467562 -0.022549581)
  1 by 2 by 2 MPI processor grid
  reading atoms ...
  1008 atoms
  read_data CPU = 0.011 seconds

mass		1 1.008    # H
mass		2 15.9994  # O


pair_style	pace/extrapolation
ACE/AL version: 2023.11.25
pair_coeff	* * /home/cicn/cicn607503/pd/pot_dir/interim_potential_ladder_step_1.yaml /home/cicn/cicn607503/pd/pot_dir/interim_potential_ladder_step_1.asi H O
Loading /home/cicn/cicn607503/pd/pot_dir/interim_potential_ladder_step_1.yaml
Total number of basis functions
	H: 23 (r=1) 664 (r>1)
	O: 23 (r=1) 664 (r>1)
Mapping LAMMPS atom type #1(H) -> ACE species type #0
Mapping LAMMPS atom type #2(O) -> ACE species type #1
Loading ASI /home/cicn/cicn607503/pd/pot_dir/interim_potential_ladder_step_1.asi
LINEAR ASI is loaded

fix pace_gamma all pair 1000 pace/extrapolation gamma 1
compute max_pace_gamma all reduce max f_pace_gamma
variable dump_skip equal "c_max_pace_gamma < 10"

dump pace_dump all custom 1000 extrapolative_structures.dump id type x y z f_pace_gamma
dump_modify pace_dump skip v_dump_skip
dump_modify pace_dump element H O

variable max_pace_gamma equal c_max_pace_gamma

timestep	0.0005						## timestep = 0.0005*ps = 0.5 fs

thermo		100
thermo_style custom step etotal pe ke press temp vol density c_max_pace_gamma


min_style cg/kk
minimize 0.0 5.0e-4 10000 100000
Switching to 'neigh_modify every 1 delay 0 check yes' setting during minimization
Neighbor list info ...
  update: every = 1 steps, delay = 0 steps, check = yes
  max neighbors/atom: 2000, page size: 100000
  master list distance cutoff = 6.5
  ghost atom cutoff = 6.5
  binsize = 6.5, bins = 4 4 4
  1 neighbor lists, perpetual/occasional/extra = 1 0 0
  (1) pair pace/extrapolation/kk, perpetual
      attributes: full, newton on, kokkos_device
      pair build: full/bin/kk/device
      stencil: full/bin/3d
      bin: kk/device
WARNING: Fix with atom-based arrays not compatible with sending data in Kokkos communication, switching to classic exchange/border communication (src/KOKKOS/comm_kokkos.cpp:666)
WARNING: Fix with atom-based arrays not compatible with Kokkos sorting on device, switching to classic host sorting (src/KOKKOS/atom_kokkos.cpp:218)
Per MPI rank memory allocation (min/avg/max) = 235.3 | 242.3 | 246.3 Mbytes
   Step         TotEng         PotEng         KinEng         Press           Temp          Volume        Density     c_max_pace_gamma
         0  -4828.0548     -4828.0548      0              65519.119      0              8084.0073      1.2433848      0.66599328   
       100  -4870.1836     -4870.1836      0             -8195.723       0              8084.0073      1.2433848      0.66599328   
       200  -4870.1941     -4870.1941      0             -8254.8387      0              8084.0073      1.2433848      0.66599328   
       297  -4870.1942     -4870.1942      0             -8253.7006      0              8084.0073      1.2433848      0.66599328   
Loop time of 1.0107 on 4 procs for 297 steps with 1008 atoms

99.3% CPU use with 4 MPI tasks x 1 OpenMP threads

Minimization stats:
  Stopping criterion = force tolerance
  Energy initial, next-to-last, final = 
     -4828.05482421705   -4870.1941735052  -4870.19417350929
  Force two-norm initial, final = 47.911707 0.00049841008
  Force max component initial, final = 2.3126941 4.2962653e-05
  Final line search alpha, max atom move = 1 4.2962653e-05
  Iterations, force evaluations = 297 593

MPI task timing breakdown:
Section |  min time  |  avg time  |  max time  |%varavg| %total
---------------------------------------------------------------
Pair    | 0.59987    | 0.60815    | 0.61805    |   0.9 | 60.17
Neigh   | 0.0018007  | 0.0019367  | 0.0020862  |   0.3 |  0.19
Comm    | 0.17279    | 0.18309    | 0.19116    |   1.8 | 18.11
Output  | 0.00030554 | 0.00030602 | 0.00030724 |   0.0 |  0.03
Modify  | 0.13532    | 0.13875    | 0.14168    |   0.6 | 13.73
Other   |            | 0.07847    |            |       |  7.76

Nlocal:            252 ave         254 max         250 min
Histogram: 1 0 1 0 0 0 0 1 0 1
Nghost:           1953 ave        1955 max        1951 min
Histogram: 1 0 1 0 0 0 0 1 0 1
Neighs:              0 ave           0 max           0 min
Histogram: 4 0 0 0 0 0 0 0 0 0
FullNghs:      36659.5 ave       36861 max       36458 min
Histogram: 1 1 0 0 0 0 0 0 1 1

Total # of neighbors = 146638
Ave neighs/atom = 145.47421
Neighbor list builds = 5
Dangerous builds = 0

################## equilibration of main calculation
# Equilibrate to specified number of ice

fix             3 all nph tri ${pressure} ${pressure} ${pressureDamp}
fix             3 all nph tri 5000 ${pressure} ${pressureDamp}
fix             3 all nph tri 5000 5000 ${pressureDamp}
fix             3 all nph tri 5000 5000 1
fix             4 all temp/csvr ${temperature} ${temperature} ${tempDamp} ${seed}
fix             4 all temp/csvr 290 ${temperature} ${tempDamp} ${seed}
fix             4 all temp/csvr 290 290 ${tempDamp} ${seed}
fix             4 all temp/csvr 290 290 0.1 ${seed}
fix             4 all temp/csvr 290 290 0.1 59712
velocity 	all create ${temperature} ${seed} dist gaussian
velocity 	all create 290 ${seed} dist gaussian
velocity 	all create 290 59712 dist gaussian

run 200000
WARNING: Fix with atom-based arrays not compatible with sending data in Kokkos communication, switching to classic exchange/border communication (src/KOKKOS/comm_kokkos.cpp:666)
WARNING: Fix with atom-based arrays not compatible with Kokkos sorting on device, switching to classic host sorting (src/KOKKOS/atom_kokkos.cpp:218)
Per MPI rank memory allocation (min/avg/max) = 242 | 244.4 | 247 Mbytes
   Step         TotEng         PotEng         KinEng         Press           Temp          Volume        Density     c_max_pace_gamma
       297  -4832.4463     -4870.1942      37.74784      -3266.1822      290            8084.0073      1.2433848      0.66599328   
       300  -4832.3919     -4863.1759      30.783974     -5418.3627      236.49969      8083.9587      1.2433923      0.66599328   
       400  -4825.013      -4848.6008      23.587835      3193.4947      181.21493      8030.7801      1.2516258      0.66599328   
       500  -4816.1227     -4842.4239      26.301208      5422.7291      202.06058      7912.7429      1.2702968      0.66599328   
       600  -4810.489      -4839.3871      28.898062      9479.2973      222.01106      7777.9623      1.2923091      0.66599328   
       700  -4807.1994     -4838.0329      30.8335        7950.5854      236.88018      7670.6284      1.3103922      0.66599328   
       800  -4803.8449     -4836.4893      32.644348      12426.078      250.79212      7616.2724      1.3197442      0.66599328   
       900  -4802.1959     -4836.0446      33.848721      11288.852      260.04479      7624.2427      1.3183646      0.66599328   
      1000  -4799.9529     -4834.5827      34.6298        9400.5948      266.04547      7689.1523      1.3072354      0.74863059   
      1100  -4798.9447     -4833.6269      34.682211      9882.8707      266.44813      7787.0845      1.2907952      0.74863059   
      1200  -4797.5073     -4833.2841      35.776809      5740.9038      274.85744      7892.808       1.2735051      0.74863059   
      1300  -4796.2781     -4833.9235      37.64538       5908.9513      289.21284      7982.3642      1.2592174      0.74863059   
      1400  -4795.8174     -4831.2783      35.460915      2617.2233      272.43057      8045.0705      1.2494026      0.74863059   
      1500  -4795.3124     -4831.2784      35.966015      3742.8906      276.31102      8075.3755      1.2447138      0.74863059   
      1600  -4794.5267     -4830.5202      35.993511      5972.0465      276.52226      8072.6468      1.2451346      0.74863059   
      1700  -4793.956      -4832.5838      38.627771      4500.7908      296.76012      8043.0105      1.2497226      0.74863059   
      1800  -4793.0274     -4832.1592      39.131747      1839.4597      300.63194      7997.2692      1.2568705      0.74863059   
      1900  -4791.8693     -4830.3048      38.435516      5871.4579      295.28311      7948.3816      1.2646011      0.74863059   
      2000  -4791.6856     -4830.4622      38.776594      6799.915       297.90347      7909.7522      1.2707771      0.67978719   
      2100  -4793.3641     -4829.9821      36.618017      5831.9224      281.32007      7888.393       1.2742179      0.67978719   
      2200  -4794.1554     -4829.3897      35.234293      9511.3728      270.68952      7884.4322      1.274858       0.67978719   
      2300  -4793.0801     -4830.8471      37.767028      4826.8803      290.14741      7895.7799      1.2730258      0.67978719   
      2400  -4791.3955     -4829.6606      38.265059      2515.6092      293.97357      7925.9475      1.2681805      0.67978719   
      2500  -4790.1021     -4828.5385      38.436394      3604.7673      295.28986      7969.4123      1.2612639      0.67978719   
      2600  -4790.2719     -4828.0829      37.810935      6451.1018      290.48473      8015.9901      1.2539351      0.67978719   
      2700  -4790.4954     -4829.5437      39.048267      3283.7891      299.9906       8055.3635      1.2478061      0.67978719   
      2800  -4792.0396     -4829.1364      37.096804      6498.6829      284.99838      8073.9426      1.2449348      0.67978719   
      2900  -4791.9467     -4830.0514      38.104698      1146.724       292.74158      8069.1072      1.2456808      0.67978719   
      3000  -4792.478      -4830.5639      38.085901      5071.7494      292.59717      8042.0675      1.2498691      0.61967363   
      3100  -4792.1023     -4830.4164      38.314052      2917.619       294.34996      8002.7347      1.2560121      0.61967363   
      3200  -4792.3278     -4830.6247      38.296881      7222.5355      294.21804      7956.3075      1.2633413      0.61967363   
      3300  -4792.9198     -4830.345       37.425131      7195.9733      287.52077      7910.3774      1.2706766      0.61967363   
      3400  -4791.7369     -4830.0641      38.327184      5308.2454      294.45084      7875.8615      1.2762454      0.61967363   
      3500  -4791.4157     -4830.4653      39.04958       5849.6552      300.00069      7861.1539      1.2786331      0.61967363   
      3600  -4790.8618     -4829.0376      38.175808      7648.3699      293.28789      7871.3222      1.2769814      0.61967363   
      3700  -4791.7665     -4829.4645      37.697979      5304.2016      289.61694      7905.5896      1.2714462      0.61967363   
      3800  -4792.5803     -4830.1559      37.57562       4775.8941      288.67691      7955.2662      1.2635066      0.61967363   
      3900  -4793.654      -4831.9629      38.308963      4649.9941      294.31086      8009.9751      1.2548768      0.61967363   
      4000  -4795.0094     -4832.0506      37.041166      3794.4688      284.57094      8058.5236      1.2473168      0.77456018   
      4100  -4795.2495     -4832.1888      36.939346      6435.9612      283.7887       8082.5214      1.2436134      0.77456018   
      4200  -4795.5573     -4830.9436      35.386286      4808.3208      271.85722      8077.8742      1.2443288      0.77456018   
      4300  -4794.532      -4831.5685      37.036446      4394.541       284.53467      8042.7064      1.2497698      0.77456018   
      4400  -4794.218      -4829.9734      35.755434      5584.3926      274.69322      7982.2497      1.2592354      0.77456018   
      4500  -4793.0179     -4830.709       37.691124      6195.3998      289.56428      7913.2989      1.2702075      0.77456018   
      4600  -4791.3781     -4830.3177      38.939606      4621.7851      299.15581      7855.8441      1.2794973      0.77456018   
      4700  -4791.2162     -4829.2063      37.990176      8021.77        291.86176      7827.9296      1.28406        0.77456018   
      4800  -4792.5927     -4831.142       38.549334      6131.9605      296.15752      7834.4575      1.2829901      0.77456018   
      4900  -4793.5653     -4832.1974      38.632188      8516.6583      296.79405      7870.3877      1.277133       0.77456018   
      5000  -4793.3528     -4830.6033      37.250545      7681.915       286.1795       7936.3919      1.2665115      0.70455548   
      5100  -4792.1509     -4829.6237      37.472777      1015.0197      287.88681      8014.9063      1.2541047      0.70455548   
      5200  -4792.0938     -4829.5678      37.473926      2804.5128      287.89564      8082.0461      1.2436865      0.70455548   
      5300  -4791.2344     -4828.6825      37.448175      3343.0536      287.6978       8123.185       1.237388       0.70455548   
      5400  -4791.1828     -4829.2388      38.055975      2096.7262      292.36726      8133.7039      1.2357878      0.70455548   
      5500  -4791.0347     -4830.0703      39.035552      2730.4605      299.89292      8114.349       1.2387354      0.70455548   
      5600  -4791.3411     -4829.0098      37.668718      5522.3224      289.39214      8068.9424      1.2457062      0.70455548   
      5700  -4791.0756     -4829.7916      38.716049      7815.3247      297.43832      8006.9621      1.255349       0.70455548   
      5800  -4790.8664     -4829.584       38.717539      5209.1962      297.44977      7944.0292      1.2652939      0.70455548   
      5900  -4789.7732     -4827.9576      38.184482      8784.6015      293.35453      7892.1745      1.2736074      0.70455548   
      6000  -4790.5915     -4829.7485      39.156947      7137.0597      300.82555      7866.7843      1.277718       0.66501495   
      6100  -4790.499      -4829.8914      39.392405      4661.0656      302.63446      7871.9511      1.2768793      0.66501495   
      6200  -4789.9182     -4828.4687      38.550522      7758.3625      296.16665      7905.3384      1.2714866      0.66501495   
      6300  -4790.5651     -4829.1242      38.559091      7224.0484      296.23248      7957.2092      1.2631981      0.66501495   
      6400  -4791.9643     -4829.6809      37.716575      6491.7116      289.75981      8016.3638      1.2538767      0.66501495   
      6500  -4794.337      -4830.9605      36.623475      4410.3115      281.362        8068.1308      1.2458315      0.66501495   
      6600  -4794.9083     -4831.7874      36.879145      1531.6138      283.3262       8100.5216      1.2408499      0.66501495   
      6700  -4793.2399     -4831.558       38.318108      3485.5303      294.38111      8103.4757      1.2403976      0.66501495   
      6800  -4793.4726     -4830.9671      37.494425      5517.0752      288.05312      8076.4359      1.2445504      0.66501495   
      6900  -4792.2291     -4828.9247      36.695584      1078.5398      281.91598      8031.1482      1.2515684      0.66501495   
      7000  -4792.5406     -4830.4054      37.864841      3990.305       290.89887      7978.4434      1.2598362      0.64578823   
      7100  -4793.4383     -4830.8445      37.40614       4366.3796      287.37487      7929.7098      1.2675788      0.64578823   
      7200  -4793.7706     -4831.6447      37.874092      5661.2368      290.96994      7893.0144      1.2734718      0.64578823   
      7300  -4793.8106     -4831.2147      37.404128      5485.8465      287.35941      7873.9359      1.2765575      0.64578823   
      7400  -4792.6023     -4830.5843      37.982049      8106.0846      291.79932      7877.4354      1.2759904      0.64578823   
      7500  -4792.5841     -4829.9197      37.335568      6795.8252      286.8327       7907.2903      1.2711727      0.64578823   
      7600  -4792.3243     -4830.3103      37.985936      7207.0772      291.82918      7957.5814      1.263139       0.64578823   
      7700  -4792.8062     -4830.9444      38.138214      4029.7404      292.99907      8011.5848      1.2546246      0.64578823   
      7800  -4792.9373     -4829.8715      36.934138      4720.0158      283.74869      8055.4245      1.2477967      0.64578823   
      7900  -4792.3836     -4830.7943      38.410761      4529.3063      295.09293      8080.3768      1.2439434      0.64578823   
      8000  -4792.8187     -4829.6965      36.877763      4313.5374      283.31558      8077.3221      1.2444139      0.68758761   
      8100  -4792.7464     -4828.7584      36.012035      4991.9957      276.66458      8048.473       1.2488744      0.68758761   
      8200  -4792.5405     -4830.1668      37.626345      4610.5584      289.0666       8003.9242      1.2558254      0.68758761   
      8300  -4792.21       -4830.5639      38.353912      4917.6852      294.65618      7952.4884      1.263948       0.68758761   
      8400  -4791.8529     -4829.4473      37.594428      8933.2776      288.82141      7909.0451      1.2708907      0.68758761   
      8500  -4791.4107     -4830.4638      39.053118      5972.2834      300.02787      7880.8053      1.2754447      0.68758761   
      8600  -4791.3856     -4829.4959      38.110326      6057.4399      292.78482      7872.4752      1.2767943      0.68758761   
      8700  -4792.3925     -4830.3788      37.986378      6789.2845      291.83258      7889.4184      1.2740523      0.68758761   
      8800  -4792.5963     -4830.6604      38.064088      5317.1574      292.42959      7928.2855      1.2678065      0.68758761   
      8900  -4793.5357     -4831.4764      37.940648      6946.4811      291.48126      7978.9306      1.2597593      0.68758761   
      9000  -4793.3143     -4830.6704      37.356098      3611.211       286.99042      8029.4839      1.2518279      0.65155363   
      9100  -4792.9136     -4830.6261      37.712541      1880.8614      289.72881      8066.9376      1.2460158      0.65155363   
      9200  -4794.0174     -4830.8342      36.816777      825.28077      282.84705      8084.4982      1.2433093      0.65155363   
      9300  -4792.005      -4829.5526      37.547575      2881.0186      288.46145      8075.6012      1.244679       0.65155363   
      9400  -4793.0944     -4829.211       36.116609      4987.0877      277.46797      8042.2698      1.2498377      0.65155363   
      9500  -4792.8323     -4829.4612      36.628901      1507.8934      281.40369      7990.1797      1.2579857      0.65155363   
      9600  -4792.75       -4831.0041      38.254079      4977.7284      293.88921      7927.6606      1.2679064      0.65155363   
      9700  -4790.7602     -4829.1571      38.396876      9202.6829      294.98626      7874.0358      1.2765413      0.65155363   
      9800  -4791.3384     -4830.358       39.019613      7872.983       299.77047      7844.0786      1.2814165      0.65155363   
      9900  -4791.2275     -4831.4402      40.212689      8280.9162      308.93635      7845.7534      1.281143       0.65155363   
     10000  -4789.9278     -4829.9594      40.031613      8422.2092      307.54522      7875.4119      1.2763182      0.70318609   
     10100  -4791.0202     -4828.757       37.736798      4230.4987      289.91517      7922.7528      1.2686918      0.70318609   
     10200  -4789.7098     -4827.8028      38.092972      3346.5928      292.6515       7979.9112      1.2596045      0.70318609   
     10300  -4790.3624     -4830.022       39.659583      1994.1417      304.68708      8040.9329      1.2500455      0.70318609   
     10400  -4790.3473     -4828.4176      38.070286      3526.7996      292.47721      8090.2621      1.2424235      0.70318609   
     10500  -4791.5948     -4829.2134      37.618518      2869.5609      289.00647      8116.4663      1.2384123      0.70318609   
     10600  -4789.9121     -4828.9818      39.069632      3715.2418      300.15475      8106.3325      1.2399604      0.70318609   
     10700  -4788.7237     -4828.611       39.887347      4972.4095      306.43689      8066.4327      1.2460938      0.70318609   
     10800  -4789.6768     -4828.3958      38.718963      5090.576       297.46071      8011.6488      1.2546146      0.70318609   
     10900  -4789.3316     -4829.3014      39.969762      4609.1489      307.07004      7957.1318      1.2632104      0.70318609   
     11000  -4791.1522     -4830.7026      39.550381      5316.0927      303.84812      7914.6916      1.269984       0.7084791    
     11100  -4792.1025     -4830.1436      38.041118      4139.7533      292.25312      7888.119       1.2742622      0.7084791    
     11200  -4791.7257     -4830.8024      39.076651      7492.7028      300.20867      7878.5047      1.2758172      0.7084791    
     11300  -4792.0196     -4829.7462      37.726539      7144.1944      289.83635      7889.9258      1.2739704      0.7084791    
     11400  -4791.3563     -4829.001       37.644774      6109.6554      289.20819      7919.393       1.2692301      0.7084791    
     11500  -4792.6586     -4830.1824      37.523839      7501.2497      288.2791       7956.3328      1.2633373      0.7084791    
     11600  -4792.4578     -4830.0453      37.587481      7202.0624      288.76803      7991.9373      1.257709       0.7084791    
     11700  -4791.2219     -4830.3991      39.177217      6284.1201      300.98127      8021.4355      1.2530839      0.7084791    
     11800  -4791.3575     -4830.0195      38.66206       3875.4         297.02355      8038.7147      1.2503904      0.7084791    
     11900  -4792.9671     -4831.1802      38.213097      5865.3115      293.57436      8036.8941      1.2506737      0.7084791    
     12000  -4792.0696     -4830.5818      38.51219       4088.461       295.87216      8017.3763      1.2537183      0.68106392   
     12100  -4791.0026     -4829.7514      38.748838      1300.469       297.69022      7986.5183      1.2585624      0.68106392   
     12200  -4791.7359     -4829.998       38.262136      4434.0012      293.95111      7949.4323      1.2644339      0.68106392   
     12300  -4792.7772     -4830.0243      37.247138      7177.2908      286.15332      7912.974       1.2702597      0.68106392   
     12400  -4792.6445     -4829.8543      37.209859      8070.2459      285.86693      7886.0201      1.2746013      0.68106392   
     12500  -4791.9884     -4830.9677      38.97933       12304.966      299.46099      7875.0683      1.2763739      0.68106392   
     12600  -4788.1092     -4828.3149      40.205684      8627.1368      308.88253      7886.002       1.2746042      0.68106392   
     12700  -4788.625      -4827.8977      39.272754      5923.1272      301.71524      7923.4626      1.2685782      0.68106392   
     12800  -4789.6586     -4829.8805      40.221974      6970.9824      309.00768      7979.8096      1.2596205      0.68106392   
     12900  -4791.3592     -4829.0028      37.643574      6234.4179      289.19897      8037.2349      1.2506206      0.68106392   
     13000  -4793.0114     -4829.2539      36.242495      5396.3253      278.4351       8079.9713      1.2440059      0.61944906   
     13100  -4793.3695     -4830.4028      37.03324       4543.3515      284.51004      8095.9922      1.2415441      0.61944906   
     13200  -4793.1534     -4831.7305      38.57712       2795.5443      296.37099      8083.2145      1.2435067      0.61944906   
     13300  -4793.0967     -4831.4016      38.30489       4397.6432      294.27956      8043.2415      1.2496867      0.61944906   
     13400  -4794.2286     -4830.6676      36.43895       7411.2015      279.94437      7983.3248      1.2590659      0.61944906   
     13500  -4793.6648     -4831.3171      37.652257      7246.8824      289.26568      7917.8242      1.2694815      0.61944906   
     13600  -4792.5837     -4830.5368      37.953076      8146.6104      291.57674      7860.5426      1.2787326      0.61944906   
     13700  -4793.2675     -4831.3474      38.079904      7320.5298      292.5511       7826.9195      1.2842258      0.61944906   
     13800  -4794.0922     -4832.1288      38.036597      6939.4013      292.21839      7824.1904      1.2846737      0.61944906   
     13900  -4792.2285     -4829.9288      37.700247      7641.2372      289.63436      7851.1076      1.2802693      0.61944906   
     14000  -4791.4403     -4828.5694      37.129071      6184.8393      285.24627      7901.4182      1.2721174      0.64119694   
     14100  -4792.2347     -4829.6681      37.433434      6341.2236      287.58455      7970.556       1.2610829      0.64119694   
     14200  -4792.8093     -4831.0523      38.243034      1096.0971      293.80435      8042.7999      1.2497553      0.64119694   
     14300  -4791.8855     -4829.8883      38.002801     -127.555        291.95875      8090.6668      1.2423614      0.64119694   
     14400  -4791.9596     -4829.9643      38.00473       3760.5565      291.97357      8108.875       1.2395717      0.64119694   
     14500  -4791.3187     -4828.9957      37.677063      763.71655      289.45625      8096.7133      1.2414336      0.64119694   
     14600  -4790.5117     -4828.5194      38.007654      3527.4553      291.99604      8054.0207      1.2480141      0.64119694   
     14700  -4791.4343     -4828.6735      37.239179      2132.3174      286.09218      7993.3268      1.2574904      0.64119694   
     14800  -4793.4238     -4830.4153      36.99149       6725.8689      284.1893       7930.657       1.2674274      0.64119694   
     14900  -4793.2126     -4831.264       38.051407      5530.8344      292.33217      7876.9779      1.2760645      0.64119694   
     15000  -4793.6277     -4831.0324      37.404714      6240.2314      287.36391      7843.2254      1.2815559      0.6909237    
     15100  -4793.5314     -4831.0824      37.551094      7412.692       288.48848      7838.4654      1.2823341      0.6909237    
     15200  -4793.2123     -4831.7995      38.587188      4738.5268      296.44834      7856.9456      1.279318       0.6909237    
     15300  -4792.8637     -4829.9986      37.134951      8225.5726      285.29144      7894.1909      1.2732821      0.6909237    
     15400  -4794.2454     -4831.84        37.594618      3289.9031      288.82286      7941.6856      1.2656673      0.6909237    
     15500  -4793.4635     -4830.154       36.690511      4373.0075      281.87701      7987.6566      1.258383       0.6909237    
     15600  -4793.9695     -4830.1812      36.211683      5982.958       278.19838      8026.6621      1.252268       0.6909237    
     15700  -4795.326      -4831.66        36.334021      5316.6838      279.13825      8050.9331      1.2484928      0.6909237    
     15800  -4794.4188     -4831.1627      36.743839      4335.2769      282.2867       8054.2982      1.2479711      0.6909237    
     15900  -4794.5696     -4831.3109      36.741249      3815.948       282.26681      8034.3364      1.2510718      0.6909237    
     16000  -4795.3364     -4831.3855      36.049091      5244.6028      276.94926      7994.1893      1.2573547      0.66534717   
     16100  -4794.6703     -4831.5576      36.88732       5241.519       283.389        7945.8436      1.265005       0.66534717   
     16200  -4794.2778     -4831.0314      36.753595      6255.0604      282.36165      7901.2466      1.272145       0.66534717   
     16300  -4793.999      -4831.1534      37.154375      5515.2186      285.44067      7870.7544      1.2770735      0.66534717   
     16400  -4794.1429     -4829.6714      35.5285        9904.6256      272.94979      7862.2934      1.2784478      0.66534717   
     16500  -4794.284      -4832.0084      37.724355      3677.4781      289.81958      7878.9066      1.2757521      0.66534717   
     16600  -4794.5598     -4831.7428      37.182964      4485.1839      285.6603       7913.5539      1.2701666      0.66534717   
     16700  -4794.0477     -4832.0392      37.99141       6666.338       291.87124      7957.2427      1.2631928      0.66534717   
     16800  -4793.5432     -4831.7271      38.18392       7526.3387      293.35021      8001.138       1.2562628      0.66534717   
     16900  -4792.4027     -4829.7858      37.383086      3375.5023      287.19776      8037.0913      1.250643       0.66534717   
     17000  -4790.9379     -4830.2906      39.35271       1126.1465      302.32951      8057.9751      1.2474017      0.69154858   
     17100  -4791.5093     -4828.5712      37.061831      6149.3695      284.72969      8058.8845      1.2472609      0.69154858   
     17200  -4793.6435     -4830.3811      36.737623      4095.753       282.23895      8044.3352      1.2495168      0.69154858   
     17300  -4793.6612     -4830.8565      37.195333      6928.4448      285.75533      8013.4026      1.25434        0.69154858   
     17400  -4794.8386     -4831.4855      36.646948      5216.2999      281.54233      7970.7507      1.2610521      0.69154858   
     17500  -4795.2185     -4831.7544      36.535931      4189.3054      280.68944      7924.2007      1.26846        0.69154858   
     17600  -4794.3599     -4831.4147      37.05482       4401.0811      284.67583      7883.909       1.2749426      0.69154858   
     17700  -4794.1696     -4831.6079      37.438375      6922.7911      287.62251      7862.6047      1.2783972      0.69154858   
     17800  -4792.6459     -4831.1393      38.493418      8122.3294      295.72795      7863.8133      1.2782007      0.69154858   
     17900  -4792.4894     -4830.1138      37.624381      5313.2063      289.05152      7888.2013      1.2742489      0.69154858   
     18000  -4791.0052     -4830.2912      39.28596       7018.0231      301.81669      7932.5154      1.2671304      0.77491489   
     18100  -4791.2606     -4829.2938      38.033288      5925.4497      292.19297      7992.569       1.2576096      0.77491489   
     18200  -4790.835      -4828.9313      38.096293      415.83608      292.67701      8053.254       1.248133       0.77491489   
     18300  -4789.3314     -4828.215       38.883615      5272.494       298.72566      8096.2393      1.2415062      0.77491489   
     18400  -4790.858      -4829.1897      38.331656      3167.3466      294.4852       8120.451       1.2378046      0.77491489   
     18500  -4791.8389     -4829.4556      37.616654      3285.5585      288.99215      8115.591       1.2385459      0.77491489   
     18600  -4791.6783     -4828.6092      36.930901      885.9749       283.72382      8080.8853      1.2438652      0.77491489   
     18700  -4792.1087     -4830.2242      38.115567      620.53468      292.82509      8024.5934      1.2525908      0.77491489   
     18800  -4791.0246     -4831.6038      40.579217      5017.2086      311.75222      7963.8681      1.2621419      0.77491489   
     18900  -4791.3731     -4828.7147      37.34157       8842.9304      286.87881      7908.0624      1.2710486      0.77491489   
     19000  -4791.8174     -4829.4158      37.598457      3976.4517      288.85236      7873.9363      1.2765574      0.72509804   
     19100  -4792.9541     -4829.6621      36.70806       4798.181       282.01183      7870.0285      1.2771913      0.72509804   
     19200  -4792.627      -4831.227       38.600015      4536.2215      296.54688      7890.289       1.2739117      0.72509804   
     19300  -4792.9989     -4830.3683      37.369424      6019.0467      287.09279      7928.3729      1.2677925      0.72509804   
     19400  -4792.5664     -4829.8673      37.300875      7718.1435      286.56616      7973.6974      1.260586       0.72509804   
     19500  -4791.8593     -4829.4053      37.546063      4892.8506      288.44984      8020.2149      1.2532746      0.72509804   
     19600  -4791.3096     -4828.9441      37.634518      3864.1194      289.1294       8057.6366      1.2474541      0.72509804   
     19700  -4791.5712     -4829.6232      38.052077      5404.0473      292.33732      8080.1526      1.243978       0.72509804   
     19800  -4793.2408     -4829.6675      36.426634      2265.3837      279.84975      8082.2837      1.2436499      0.72509804   
     19900  -4793.584      -4830.7293      37.145356      6193.595       285.37138      8059.1388      1.2472216      0.72509804   
     20000  -4793.6298     -4831.0513      37.421419      6224.7939      287.49225      8009.8047      1.2549035      0.63487791   
     20100  -4794.3989     -4831.4729      37.073987      7163.8209      284.82308      7945.8495      1.265004       0.63487791   
     20200  -4794.4943     -4831.581       37.086656      5018.4091      284.92042      7884.9153      1.2747799      0.63487791   
     20300  -4793.8885     -4831.31        37.421557      8791.6904      287.49331      7842.9519      1.2816006      0.63487791   
     20400  -4793.7382     -4830.8521      37.113853      8293.355       285.12936      7832.6935      1.2832791      0.63487791   
     20500  -4794.3824     -4830.6353      36.252925      5836.1611      278.51523      7853.4955      1.27988        0.63487791   
     20600  -4794.3742     -4830.0453      35.671064      5285.5031      274.04504      7893.7118      1.2733593      0.63487791   
     20700  -4794.3429     -4832.7651      38.422201      6415.9923      295.18082      7941.6423      1.2656742      0.63487791   
     20800  -4793.8098     -4830.6719      36.862163      5398.3017      283.19574      7987.6103      1.2583904      0.63487791   
     20900  -4793.3955     -4829.5569      36.161408      411.32353      277.81214      8027.9283      1.2520704      0.63487791   
     21000  -4793.3683     -4831.2116      37.843255      2497.5158      290.73303      8053.1864      1.2481434      0.62876343   
     21100  -4795.2416     -4832.6894      37.447841      2469.2273      287.69524      8058.2151      1.2473645      0.62876343   
     21200  -4795.4879     -4832.944       37.456092      5648.5351      287.75863      8040.9046      1.2500499      0.62876343   
     21300  -4794.2349     -4830.4195      36.184581      6404.1403      277.99017      8005.9508      1.2555076      0.62876343   
     21400  -4793.3359     -4831.9973      38.661476      5807.9911      297.01906      7962.7295      1.2623224      0.62876343   
     21500  -4795.2481     -4831.7985      36.550375      4288.1884      280.80041      7918.3247      1.2694013      0.62876343   
     21600  -4793.5523     -4831.5709      38.018621      3664.8949      292.08029      7883.9922      1.2749292      0.62876343   
     21700  -4793.8817     -4831.0751      37.193386      6550.5972      285.74037      7865.2102      1.2779737      0.62876343   
     21800  -4792.7212     -4830.7265      38.005295      8345.8079      291.97791      7869.3087      1.2773081      0.62876343   
     21900  -4792.3574     -4831.1546      38.797146      3205.0255      298.06135      7896.7973      1.2728618      0.62876343   
     22000  -4791.9882     -4830.2245      38.236378      3653.7078      293.75322      7940.7812      1.2658114      0.6746268    
     22100  -4791.9588     -4830.637       38.678223      6053.4433      297.14772      7995.2347      1.2571903      0.6746268    
     22200  -4792.882      -4829.8004      36.918403      8286.4629      283.6278       8048.5034      1.2488697      0.6746268    
     22300  -4793.4748     -4831.6666      38.191852      1842.5226      293.41114      8083.7261      1.243428       0.6746268    
     22400  -4794.3176     -4831.4001      37.082548     -203.03334      284.88885      8094.2363      1.2418135      0.6746268    
     22500  -4793.872      -4830.4313      36.559344     -18.215006      280.86931      8077.0462      1.2444564      0.6746268    
     22600  -4795.7913     -4832.0002      36.208968      2518.143       278.17753      8031.1085      1.2515746      0.6746268    
     22700  -4795.696      -4832.3022      36.606157      6145.721       281.22895      7966.3351      1.261751       0.6746268    
     22800  -4795.1021     -4832.4527      37.35065       8192.499       286.94856      7901.9352      1.2720342      0.6746268    
     22900  -4793.9662     -4831.2864      37.320192      4333.1189      286.71456      7852.7089      1.2800082      0.6746268    
     23000  -4793.1951     -4829.94        36.744944      7453.165       282.29519      7829.3037      1.2838347      0.64949335   
     23100  -4793.2394     -4831.2073      37.967844      5879.8283      291.69019      7835.3596      1.2828424      0.64949335   
     23200  -4792.3801     -4830.506       38.125935      7833.1195      292.90474      7864.1823      1.2781407      0.64949335   
     23300  -4791.4368     -4830.0697      38.632963      8795.3911      296.80001      7913.9402      1.2701046      0.64949335   
     23400  -4790.8504     -4829.6341      38.783717      2834.3824      297.95819      7980.4736      1.2595157      0.64949335   
     23500  -4791.2495     -4829.4952      38.245714      3905.1003      293.82494      8046.2815      1.2492145      0.64949335   
     23600  -4790.338      -4828.2298      37.891738      4183.6307      291.10551      8088.758       1.2426545      0.64949335   
     23700  -4790.9769     -4828.9393      37.962451      3381.3995      291.64876      8100.5026      1.2408528      0.64949335   
     23800  -4790.6677     -4828.3174      37.649663      3581.0481      289.24575      8083.4869      1.2434648      0.64949335   
     23900  -4790.3469     -4829.2134      38.866474      73.482809      298.59397      8045.1921      1.2493837      0.64949335   
     24000  -4789.2366     -4827.4935      38.256885     -31.420053      293.91077      7993.6266      1.2574432      0.69133507   
     24100  -4789.4084     -4827.2338      37.825394      7714.3135      290.59581      7939.7787      1.2659713      0.69133507   
     24200  -4789.1428     -4828.3656      39.222745      5737.5058      301.33104      7898.4655      1.272593       0.69133507   
     24300  -4789.1731     -4828.7901      39.61691       6333.919       304.35924      7879.689       1.2756254      0.69133507   
     24400  -4789.5915     -4828.5483      38.95678       6878.3604      299.28775      7885.1629      1.2747399      0.69133507   
     24500  -4790.3476     -4828.7948      38.447186      8821.7301      295.37276      7913.7232      1.2701394      0.69133507   
     24600  -4790.846      -4830.5643      39.718339      7547.6827      305.13847      7961.9998      1.2624381      0.69133507   
     24700  -4791.2165     -4828.6776      37.461084      3783.5244      287.79698      8009.2576      1.2549892      0.69133507   
     24800  -4792.965      -4830.8458      37.880793      5649.748       291.02142      8046.5876      1.249167       0.69133507   
     24900  -4793.4065     -4830.8947      37.488179      3248.8414      288.00513      8064.8802      1.2463337      0.69133507   
     25000  -4792.2419     -4829.6837      37.441764      4328.7009      287.64855      8058.8486      1.2472665      0.70293151   
     25100  -4792.3853     -4829.7881      37.402804      2220.367       287.34924      8032.5186      1.2513549      0.70293151   
     25200  -4791.5008     -4829.1368      37.635997      1757.8905      289.14076      7990.0994      1.2579983      0.70293151   
     25300  -4790.5593     -4829.319       38.759693      4174.1447      297.77362      7945.2382      1.2651014      0.70293151   
     25400  -4791.5973     -4830.0112      38.413921      5586.2854      295.1172       7904.0029      1.2717014      0.70293151   
     25500  -4791.6623     -4830.9578      39.295562      8131.2682      301.89047      7874.5972      1.2764503      0.70293151   
     25600  -4791.7834     -4829.721       37.937631      5874.0648      291.45808      7864.6126      1.2780708      0.70293151   
     25700  -4791.6691     -4830.6662      38.997029      9201.3242      299.59697      7880.0368      1.2755691      0.70293151   
     25800  -4791.9577     -4830.2244      38.266743      6514.8307      293.9865       7915.695       1.269823       0.70293151   
     25900  -4791.9921     -4831.3757      39.383567      5839.8592      302.56657      7959.8093      1.2627855      0.70293151   
     26000  -4791.2527     -4828.4888      37.236034      6118.486       286.06802      8002.8954      1.2559869      0.73014309   
     26100  -4790.7448     -4828.9369      38.192106      2413.319       293.4131       8042.0953      1.2498648      0.73014309   
     26200  -4789.4575     -4829.5024      40.044911      3598.646       307.64738      8065.5964      1.246223       0.73014309   
     26300  -4788.3701     -4827.9165      39.546396      2492.2532      303.81751      8069.1589      1.2456728      0.73014309   
     26400  -4788.2067     -4826.355       38.148349      3868.455       293.07694      8056.3492      1.2476534      0.73014309   
     26500  -4788.807      -4829.7168      40.909794      6944.8048      314.2919       8027.5431      1.2521305      0.73014309   
     26600  -4789.7535     -4828.8294      39.075852      3791.3318      300.20253      7987.332       1.2584342      0.73014309   
     26700  -4789.2146     -4828.0278      38.813241      6944.1335      298.18501      7942.0342      1.2656117      0.73014309   
     26800  -4788.3285     -4827.4147      39.086165      2811.611       300.28176      7900.0535      1.2723372      0.73014309   
     26900  -4787.8964     -4827.9406      40.044123      5909.589       307.64133      7876.6045      1.276125       0.73014309   
     27000  -4788.3807     -4828.9832      40.602468      6334.61        311.93084      7880.2549      1.2755338      0.71975343   
     27100  -4789.1143     -4828.5995      39.485197      4795.662       303.34735      7912.4714      1.2703403      0.71975343   
     27200  -4788.8834     -4827.934       39.050654      3726.7912      300.00894      7966.6638      1.261699       0.71975343   
     27300  -4789.5044     -4829.3942      39.889757      5452.9321      306.45541      8032.4364      1.2513677      0.71975343   
     27400  -4789.9616     -4828.6756      38.714079      5618.6978      297.42319      8093.9044      1.2418644      0.71975343   
     27500  -4791.3819     -4829.3223      37.940424      1989.6652      291.47953      8129.5954      1.2364123      0.71975343   
     27600  -4790.9554     -4828.4002      37.444763      4993.568       287.67159      8125.6269      1.2370161      0.71975343   
     27700  -4790.3951     -4829.8655      39.47047       4085.459       303.23421      8085.3036      1.2431854      0.71975343   
     27800  -4791.862      -4830.0561      38.194072      3035.0748      293.4282       8018.7541      1.2535029      0.71975343   
     27900  -4792.9628     -4830.424       37.461165      2536.5049      287.7976       7944.7051      1.2651862      0.71975343   
     28000  -4792.8827     -4831.4471      38.56432       8304.8356      296.27265      7882.5133      1.2751684      0.68146678   
     28100  -4792.1574     -4829.8137      37.656294      7414.7444      289.29669      7842.1598      1.28173        0.68146678   
     28200  -4791.1995     -4829.7658      38.566256      4477.6101      296.28752      7831.6961      1.2834425      0.68146678   
     28300  -4790.2021     -4829.9258      39.723706      4780.8494      305.17971      7853.1272      1.27994        0.68146678   
     28400  -4791.6012     -4830.2486      38.647372      5220.769       296.91071      7899.0511      1.2724986      0.68146678   
     28500  -4790.5806     -4830.2262      39.645596      5979.2907      304.57962      7959.6466      1.2628113      0.68146678   
     28600  -4790.285      -4828.8285      38.543499      5403.1511      296.11269      8017.7308      1.2536629      0.68146678   
     28700  -4790.3921     -4829.2876      38.895457      4075.5592      298.81664      8063.4349      1.2465571      0.68146678   
     28800  -4792.0039     -4829.5797      37.575845      1604.9999      288.67863      8085.6241      1.2431362      0.68146678   
     28900  -4792.5242     -4829.6602      37.135928      4118.0616      285.29895      8081.4534      1.2437777      0.68146678   
     29000  -4793.8407     -4831.1541      37.313428      3419.7787      286.6626       8053.7924      1.2480495      0.65191979   
     29100  -4791.0064     -4830.4545      39.448123      4719.0377      303.06252      8007.7947      1.2552184      0.65191979   
     29200  -4790.7449     -4829.2372      38.492236      6442.0353      295.71887      7957.2358      1.2631939      0.65191979   
     29300  -4790.6474     -4830.091       39.443553      6374.745       303.02742      7915.7678      1.2698113      0.65191979   
     29400  -4791.4631     -4830.4067      38.943593      5812.5993      299.18644      7891.8641      1.2736575      0.65191979   
     29500  -4791.5384     -4829.4637      37.925259      5745.3362      291.36303      7883.6851      1.2749788      0.65191979   
     29600  -4791.45       -4830.5945      39.144546      5369.2764      300.73027      7890.6304      1.2738566      0.65191979   
     29700  -4790.6623     -4828.3703      37.707991      2690.6611      289.69385      7911.5794      1.2704836      0.65191979   
     29800  -4790.5282     -4829.503       38.974826      5768.4655      299.42639      7950.2726      1.2643003      0.65191979   
     29900  -4791.8348     -4829.0625      37.227638      5757.2075      286.00352      7994.6625      1.2572803      0.65191979   
     30000  -4792.6933     -4830.6091      37.91579       2971.9012      291.29029      8033.748       1.2511634      0.6813103    
     30100  -4792.7781     -4830.7761      37.998062      3272.2626      291.92234      8054.6146      1.2479221      0.6813103    
     30200  -4792.9156     -4830.5688      37.653204      3854.9376      289.27295      8055.5984      1.2477697      0.6813103    
     30300  -4794.7889     -4829.765       34.976035      2372.9929      268.70544      8034.7275      1.2510109      0.6813103    
     30400  -4793.5622     -4831.5189      37.956691      2647.3501      291.60451      7997.9312      1.2567665      0.6813103    
     30500  -4794.1288     -4831.1934      37.064563      4726.4218      284.75068      7949.9896      1.2643453      0.6813103    
     30600  -4793.6932     -4832.0779      38.384698      5517.6516      294.8927       7899.8636      1.2723677      0.6813103    
     30700  -4793.6905     -4831.1123      37.421861      9080.63        287.49565      7859.4703      1.278907       0.6813103    
     30800  -4792.7458     -4831.404       38.658191      6380.3619      296.99382      7841.1383      1.281897       0.6813103    
     30900  -4792.7268     -4831.5588      38.832031      10976.635      298.32936      7849.1616      1.2805867      0.6813103    
     31000  -4794.1981     -4832.5991      38.400947      5490.1385      295.01753      7880.7722      1.2754501      0.81313541   
     31100  -4793.6315     -4830.9886      37.35715       6194.9854      286.9985       7929.2495      1.2676523      0.81313541   
     31200  -4794.416      -4830.3099      35.893944      5204.7069      275.75733      7986.0464      1.2586368      0.81313541   
     31300  -4794.7503     -4831.0844      36.334039      3557.8113      279.13839      8035.4771      1.2508942      0.81313541   
     31400  -4793.576      -4830.0137      36.437746      4103.3687      279.93512      8064.1621      1.2464447      0.81313541   
     31500  -4793.6028     -4831.0787      37.475892      3323.8792      287.91074      8069.8809      1.2455613      0.81313541   
     31600  -4793.6528     -4829.7635      36.110697      3646.2819      277.42255      8051.8419      1.2483518      0.81313541   
     31700  -4793.0965     -4830.2204      37.123911      7103.8716      285.20663      8014.1304      1.2542261      0.81313541   
     31800  -4792.1902     -4830.927       38.736818      6099.3549      297.59788      7966.8118      1.2616756      0.81313541   
     31900  -4792.0501     -4829.7951      37.745003      6589.7475      289.9782       7918.2409      1.2694147      0.81313541   
     32000  -4792.273      -4830.6597      38.386684      8620.3882      294.90795      7879.2662      1.2756939      0.66918112   
     32100  -4791.1783     -4828.9838      37.805555      7055.1001      290.4434       7858.1951      1.2791146      0.66918112   
     32200  -4790.519      -4829.5224      39.003403      4701.2151      299.64593      7861.5463      1.2785693      0.66918112   
     32300  -4791.0823     -4830.1779      39.0956        3063.7926      300.35425      7888.321       1.2742295      0.66918112   
     32400  -4792.9932     -4830.9345      37.941249      5655.4908      291.48588      7931.4551      1.2672998      0.66918112   
     32500  -4792.67       -4830.1617      37.491741      5755.0878      288.0325       7981.4827      1.2593564      0.66918112   
     32600  -4792.9329     -4831.0573      38.124445      4629.3924      292.89329      8024.4554      1.2526123      0.66918112   
     32700  -4791.9891     -4829.9671      37.978095      2.1152717      291.76895      8052.5494      1.2482422      0.66918112   
     32800  -4791.5353     -4829.2648      37.729519      3518.0022      289.85924      8055.9661      1.2477128      0.66918112   
     32900  -4792.2833     -4830.4453      38.162004     -1097.1377      293.18184      8032.4318      1.2513684      0.66918112   
     33000  -4792.0188     -4829.694       37.67516       6227.6161      289.44163      7988.9221      1.2581837      0.70215845   
     33100  -4792.3216     -4830.1281      37.806454      4388.7404      290.45031      7942.1477      1.2655937      0.70215845   
     33200  -4792.7761     -4830.5478      37.771766      4770.4593      290.18381      7906.0582      1.2713708      0.70215845   
     33300  -4791.4265     -4830.9874      39.5609        6869.0416      303.92894      7885.4666      1.2746908      0.70215845   
     33400  -4793.1747     -4830.3835      37.208841      6164.2056      285.8591       7887.038       1.2744368      0.70215845   
     33500  -4793.6489     -4831.262       37.613045      4713.2487      288.96443      7904.5534      1.2716128      0.70215845   
     33600  -4794.4241     -4832.1324      37.708267      4780.7235      289.69598      7933.2329      1.2670158      0.70215845   
     33700  -4793.5039     -4831.0593      37.555439      4057.2692      288.52187      7964.9081      1.2619771      0.70215845   
     33800  -4794.3117     -4831.3677      37.055959      3634.8496      284.68458      7993.5342      1.2574578      0.70215845   
     33900  -4793.5681     -4831.3238      37.75579       7403.5403      290.06107      8012.7842      1.2544368      0.70215845   
     34000  -4793.6702     -4831.1065      37.436299      6094.4878      287.60657      8026.555       1.2522847      0.66728346   
     34100  -4794.0961     -4830.5414      36.445323      483.25896      279.99333      8029.7312      1.2517893      0.66728346   
     34200  -4794.6783     -4831.0227      36.344379      347.1579       279.21782      8018.9841      1.253467       0.66728346   
     34300  -4794.3554     -4830.7934      36.43803       3737.3407      279.9373       7993.8598      1.2574065      0.66728346   
     34400  -4794.2821     -4830.0807      35.798641      6045.4401      275.02516      7958.2735      1.2630292      0.66728346   
     34500  -4793.2171     -4829.9283      36.711185      5382.1399      282.03584      7919.6133      1.2691948      0.66728346   
     34600  -4793.6282     -4831.1908      37.562539      4406.3415      288.57642      7892.05        1.2736275      0.66728346   
     34700  -4794.1613     -4832.4697      38.308436      4934.1865      294.30681      7882.472       1.2751751      0.66728346   
     34800  -4792.5287     -4830.5063      37.977577      6637.7762      291.76497      7894.9981      1.2731519      0.66728346   
     34900  -4792.1103     -4830.1275      38.017107      3621.9004      292.06866      7929.9428      1.2675415      0.66728346   
     35000  -4791.4855     -4829.4476      37.962046      22.107906      291.64565      7978.7829      1.2597826      0.67754367   
     35100  -4791.5574     -4828.8557      37.298269      5195.4114      286.54614      8031.6171      1.2514954      0.67754367   
     35200  -4791.213      -4830.0853      38.872267      1732.317       298.63847      8073.0577      1.2450712      0.67754367   
     35300  -4791.5426     -4830.2342      38.691594      1629.9563      297.25044      8091.1801      1.2422825      0.67754367   
     35400  -4791.5714     -4829.3958      37.824356      6404.8796      290.58784      8084.0142      1.2433837      0.67754367   
     35500  -4789.2295     -4828.2299      39.000355      2083.7045      299.62252      8059.8075      1.2471181      0.67754367   
     35600  -4789.3532     -4827.1132      37.760044      1972.9419      290.09376      8025.8087      1.2524011      0.67754367   
     35700  -4789.3486     -4828.2369      38.888347      2801.6067      298.76201      7993.9396      1.257394       0.67754367   
     35800  -4788.1356     -4826.6722      38.536586      3645.9423      296.05959      7967.6216      1.2615473      0.67754367   
     35900  -4787.5848     -4827.7133      40.128447      6047.935       308.28915      7952.1954      1.2639946      0.67754367   
     36000  -4789.5184     -4827.9133      38.394957      7277.4228      294.97151      7945.6381      1.2650377      0.63586225   
     36100  -4790.3188     -4829.0063      38.687581      7144.1927      297.21961      7945.3325      1.2650864      0.63586225   
     36200  -4791.822      -4829.1636      37.341631      8167.2505      286.87927      7951.8088      1.264056       0.63586225   
     36300  -4792.1203     -4830.2084      38.088101      8543.7894      292.61407      7963.3346      1.2622265      0.63586225   
     36400  -4791.8809     -4831.1955      39.314596      7910.2013      302.03669      7978.4356      1.2598374      0.63586225   
     36500  -4792.5865     -4830.4967      37.910197      5703.4203      291.24731      7990.8285      1.2578835      0.63586225   
     36600  -4794.0857     -4832.1619      38.076196      5072.3874      292.52262      7994.7129      1.2572724      0.63586225   
     36700  -4793.1819     -4829.5438      36.361882      2659.7249      279.3523       7988.97        1.2581762      0.63586225   
     36800  -4793.0042     -4829.6353      36.631033      2401.8996      281.42006      7973.6368      1.2605956      0.63586225   
     36900  -4791.252      -4829.9637      38.711644      7827.3347      297.40448      7953.2447      1.2638278      0.63586225   
     37000  -4791.0241     -4830.9687      39.944518      4997.8671      306.87611      7942.0661      1.2656066      0.72546307   
     37100  -4790.5976     -4829.4855      38.887926      5768.9348      298.75877      7940.0499      1.265928       0.72546307   
     37200  -4791.272      -4829.2828      38.010775      7417.7559      292.02001      7944.2483      1.265259       0.72546307   
     37300  -4792.2556     -4830.4496      38.193994      1575.8287      293.4276       7952.5304      1.2639413      0.72546307   
     37400  -4793.1106     -4830.0693      36.958626      6434.1764      283.93681      7962.2029      1.2624059      0.72546307   
     37500  -4792.6303     -4829.7975      37.167219      8844.4152      285.53935      7971.8193      1.260883       0.72546307   
     37600  -4792.6059     -4832.4183      39.812404      6631.6875      305.86113      7976.8142      1.2600935      0.72546307   
     37700  -4792.0099     -4831.0048      38.994834      6799.7628      299.5801       7977.9791      1.2599095      0.72546307   
     37800  -4792.2184     -4829.7152      37.496814      3818.6983      288.07148      7975.1785      1.2603519      0.72546307   
     37900  -4791.5238     -4830.747       39.223229      1063.8813      301.33476      7966.566       1.2617145      0.72546307   
     38000  -4790.4262     -4829.5817      39.155464      705.9783       300.81415      7954.4078      1.263643       0.67059694   
     38100  -4791.0716     -4830.555       39.48336       7081.4431      303.33323      7945.4473      1.2650681      0.67059694   
     38200  -4791.8538     -4829.839       37.985208      7117.5932      291.82359      7939.5447      1.2660086      0.67059694   
     38300  -4790.6458     -4828.0578      37.411979      7127.6717      287.41973      7934.6793      1.2667849      0.67059694   
     38400  -4791.2395     -4830.1339      38.894383      5269.8159      298.80838      7935.8907      1.2665915      0.67059694   
     38500  -4791.8133     -4830.8739      39.060613      7310.244       300.08546      7946.8935      1.2648378      0.67059694   
     38600  -4793.6477     -4829.4755      35.82779       5015.6631      275.2491       7963.7103      1.2621669      0.67059694   
     38700  -4793.4418     -4830.7657      37.323953      6272.1295      286.74346      7978.0858      1.2598927      0.67059694   
     38800  -4792.8504     -4830.818       37.967587      5201.794       291.68822      7986.8775      1.2585058      0.67059694   
     38900  -4791.5608     -4829.8232      38.262399      4554.2635      293.95313      7987.2835      1.2584418      0.67059694   
     39000  -4792.2375     -4829.899       37.661494      2912.8124      289.33664      7982.1712      1.2592478      0.7746938    
     39100  -4791.4888     -4829.2132      37.724407      4310.8576      289.81997      7973.0644      1.2606861      0.7746938    
     39200  -4791.4698     -4830.3544      38.884591      6072.2602      298.73315      7963.0529      1.2622711      0.7746938    
     39300  -4791.9655     -4829.5332      37.567669      2800.1553      288.61582      7952.5808      1.2639333      0.7746938    
     39400  -4791.5351     -4830.4605      38.925461      5044.0315      299.04714      7937.9138      1.2662687      0.7746938    
     39500  -4792.095      -4830.7781      38.683126      6162.2902      297.18539      7922.8076      1.2686831      0.7746938    
     39600  -4791.7456     -4829.0707      37.325168      6259.4622      286.7528       7910.3038      1.2706885      0.7746938    
     39700  -4792.33       -4830.9516      38.621578      4957.2673      296.71254      7911.0064      1.2705756      0.7746938    
     39800  -4792.0173     -4829.7884      37.771063      7976.7136      290.17841      7924.798       1.2683644      0.7746938    
     39900  -4791.5436     -4831.2846      39.741027      5976.7997      305.31278      7950.861       1.2642067      0.7746938    
     40000  -4790.9459     -4830.458       39.512144      2363.9269      303.55437      7984.0356      1.2589538      0.67692715   
     40100  -4790.1961     -4828.4739      38.27779       4993.5858      294.07137      8012.2612      1.2545187      0.67692715   
     40200  -4791.0978     -4829.4662      38.368434      4516.9959      294.76775      8026.7206      1.2522588      0.67692715   
     40300  -4792.1448     -4830.0661      37.921271      487.83506      291.33239      8023.8348      1.2527092      0.67692715   
     40400  -4792.068      -4830.3355      38.267513      3540.4482      293.99242      8007.531       1.2552598      0.67692715   
     40500  -4792.24       -4828.4939      36.253938      5256.12        278.52301      7982.6134      1.2591781      0.67692715   
     40600  -4793.7116     -4830.3866      36.675023      7918.4989      281.75802      7954.2818      1.263663       0.67692715   
     40700  -4792.9259     -4830.2935      37.367619      8713.9531      287.07893      7925.704       1.2682194      0.67692715   
     40800  -4793.6004     -4832.4465      38.846068      5363.8022      298.4372       7905.5243      1.2714567      0.67692715   
     40900  -4793.5395     -4832.3793      38.839792      3368.0783      298.38898      7896.3195      1.2729388      0.67692715   
     41000  -4793.4487     -4830.7983      37.349692      5493.5293      286.94121      7898.5185      1.2725844      0.61983002   
     41100  -4792.6292     -4831.1936      38.56431       4458.4389      296.27258      7913.0119      1.2702536      0.61983002   
     41200  -4791.4644     -4828.7592      37.294815      5159.4818      286.51961      7935.5699      1.2666427      0.61983002   
     41300  -4792.2078     -4829.2978      37.089959      6663.4837      284.94579      7969.838       1.2611965      0.61983002   
     41400  -4793.3485     -4831.6411      38.292548      3544.7408      294.18475      8007.6894      1.255235       0.61983002   
     41500  -4792.8047     -4830.8662      38.061471      2392.3506      292.40948      8034.0943      1.2511095      0.61983002   
     41600  -4792.071      -4830.0005      37.929455      4051.4255      291.39527      8043.3814      1.2496649      0.61983002   
     41700  -4793.9012     -4829.8038      35.902518      5553.4465      275.82321      8034.4089      1.2510605      0.61983002   
     41800  -4794.0664     -4831.2359      37.169536      4463.4115      285.55714      8008.2689      1.2551441      0.61983002   
     41900  -4793.2201     -4830.6701      37.450015      8031.9431      287.71194      7970.5797      1.2610791      0.61983002   
     42000  -4792.589      -4829.7895      37.200487      4406.2426      285.79492      7938.6585      1.2661499      0.71382052   
     42100  -4792.9257     -4830.9062      37.980476      8055.3966      291.78723      7916.1714      1.2697466      0.71382052   
     42200  -4792.0106     -4830.4008      38.390181      9263.1208      294.93482      7909.6982      1.2707857      0.71382052   
     42300  -4792.3693     -4830.4335      38.064141      7341.8048      292.43         7919.3298      1.2692402      0.71382052   
     42400  -4793.1179     -4830.4479      37.33          6287.1744      286.78992      7942.6568      1.2655125      0.71382052   
     42500  -4793.7248     -4831.532       37.807144      2795.9895      290.45561      7973.3833      1.2606357      0.71382052   
     42600  -4792.3569     -4829.7973      37.440392      4578.6374      287.63801      8002.1381      1.2561058      0.71382052   
     42700  -4791.9472     -4829.9469      37.999717      4724.4639      291.93506      8027.7944      1.2520913      0.71382052   
     42800  -4791.9623     -4829.4961      37.533805      3478.8661      288.35566      8042.496       1.2498025      0.71382052   
     42900  -4791.4973     -4829.758       38.260679      5230.5977      293.93991      8043.3279      1.2496732      0.71382052   
     43000  -4791.1517     -4828.0296      36.877877      2481.3403      283.31646      8034.3086      1.2510761      0.65348769   
     43100  -4791.089      -4829.8706      38.781649      3209.2776      297.9423       8017.34        1.253724       0.65348769   
     43200  -4791.095      -4828.4045      37.309481      3052.2086      286.63228      7991.4476      1.2577861      0.65348769   
     43300  -4791.601      -4830.6685      39.067489      4739.6449      300.13828      7966.0478      1.2617966      0.65348769   
     43400  -4791.3367     -4828.6486      37.3119        5842.4214      286.65087      7948.2364      1.2646241      0.65348769   
     43500  -4792.2358     -4830.0617      37.825903      8678.7097      290.59972      7945.9337      1.2649906      0.65348769   
     43600  -4791.2899     -4830.8891      39.59922       7330.8486      304.22333      7955.099       1.2635332      0.65348769   
     43700  -4792.0864     -4829.0965      37.010167      4185.174       284.33279      7969.9412      1.2611802      0.65348769   
     43800  -4791.8095     -4830.1491      38.339529      1929.1508      294.54568      7986.0507      1.2586361      0.65348769   
     43900  -4792.2184     -4829.7469      37.528508      7219.36        288.31497      8001.7273      1.2561702      0.65348769   
     44000  -4791.9033     -4829.9909      38.087559      6792.414       292.60991      8017.9837      1.2536234      0.63662701   
     44100  -4793.7216     -4830.5555      36.83386       2873.6379      282.9783       8029.3682      1.2518459      0.63662701   
     44200  -4793.5681     -4830.2446      36.676425      3010.3392      281.76879      8024.377       1.2526246      0.63662701   
     44300  -4793.2005     -4831.7111      38.510613      5225.6274      295.86005      8002.5906      1.2560347      0.63662701   
     44400  -4794.3717     -4832.4259      38.05423       5663.1837      292.35386      7968.2054      1.2614549      0.63662701   
     44500  -4793.9785     -4831.8426      37.864104      9170.5605      290.89321      7927.6248      1.2679121      0.63662701   
     44600  -4795.0898     -4831.0465      35.956718      9682.5023      276.2396       7896.9951      1.2728299      0.63662701   
     44700  -4795.5529     -4833.2609      37.707956      5558.4311      289.69358      7881.3725      1.2753529      0.63662701   
     44800  -4793.1788     -4830.6188      37.440004      3371.8103      287.63503      7881.712       1.275298       0.63662701   
     44900  -4793.6289     -4830.7541      37.125252      9662.5572      285.21693      7903.0432      1.2718559      0.63662701   
     45000  -4793.9009     -4832.3394      38.438487      3526.0585      295.30594      7940.4783      1.2658597      0.66964364   
     45100  -4794.9892     -4831.939       36.949832      4196.937       283.86926      7978.9197      1.259761       0.66964364   
     45200  -4794.9915     -4831.5485      36.557039      2385.7673      280.8516       8010.6703      1.2547679      0.66964364   
     45300  -4794.303      -4830.8549      36.551851      3855.5824      280.81175      8032.9747      1.2512839      0.66964364   
     45400  -4793.7493     -4832.3799      38.630604      6601.4537      296.78189      8040.555       1.2501042      0.66964364   
     45500  -4792.7768     -4830.2299      37.453035      2003.2277      287.73514      8030.0711      1.2517363      0.66964364   
     45600  -4792.0459     -4830.2311      38.185177      3022.1983      293.35987      8004.5289      1.2557306      0.66964364   
     45700  -4792.5249     -4829.9767      37.451798      4689.7239      287.72564      7971.189       1.2609827      0.66964364   
     45800  -4793.0222     -4831.0319      38.009655      2889.1386      292.01141      7938.7863      1.2661295      0.66964364   
     45900  -4792.235      -4829.7797      37.544708      6323.2284      288.43942      7909.4521      1.2708253      0.66964364   
     46000  -4794.0284     -4831.5904      37.562066      2657.7219      288.57278      7891.3827      1.2737352      0.69024376   
     46100  -4794.4349     -4830.3232      35.888275      7662.1612      275.71378      7889.5998      1.274023       0.69024376   
     46200  -4794.1343     -4831.3795      37.245176      8197.2317      286.13825      7902.8565      1.2718859      0.69024376   
     46300  -4793.1731     -4831.3107      38.1376        5427.9883      292.99435      7925.696       1.2682207      0.69024376   
     46400  -4791.8135     -4830.4414      38.627849      5734.8101      296.76072      7955.5567      1.2634605      0.69024376   
     46500  -4791.2668     -4830.5162      39.249348      3907.8226      301.53542      7985.501       1.2587227      0.69024376   
     46600  -4791.5971     -4829.6395      38.042442      2317.174       292.2633       8005.6622      1.2555528      0.69024376   
     46700  -4791.0762     -4828.7291      37.65284       5583.8101      289.27016      8011.5711      1.2546268      0.69024376   
     46800  -4790.4182     -4829.0349      38.616623      3156.5286      296.67447      8003.3084      1.2559221      0.69024376   
     46900  -4789.872      -4830.0856      40.213616      5266.4943      308.94347      7989.4775      1.2580963      0.69024376   
     47000  -4790.7991     -4829.5495      38.750422      4822.1063      297.70239      7979.0593      1.2597389      0.65408291   
     47100  -4791.488      -4829.1042      37.616194      6099.2937      288.98862      7971.7878      1.260888       0.65408291   
     47200  -4792.7453     -4829.8086      37.063363      936.86859      284.74146      7966.2322      1.2617673      0.65408291   
     47300  -4793.1537     -4831.0787      37.925022      2571.7548      291.36121      7956.067       1.2633795      0.65408291   
     47400  -4792.5156     -4829.2686      36.752959      5740.2569      282.35677      7944.8653      1.2651607      0.65408291   
     47500  -4792.0823     -4830.9381      38.855808      3981.0209      298.51203      7938.0679      1.2662441      0.65408291   
     47600  -4791.6727     -4829.7789      38.106271      5467.3064      292.75367      7937.7755      1.2662907      0.65408291   
     47700  -4792.7275     -4830.59        37.862525      8992.6866      290.88107      7947.598       1.2647257      0.65408291   
     47800  -4792.7652     -4831.2523      38.487055      8155.996       295.67906      7961.6658      1.262491       0.65408291   
     47900  -4793.5022     -4829.9347      36.432459      3092.3211      279.89451      7971.8089      1.2608847      0.65408291   
     48000  -4792.3816     -4830.0242      37.642675      5573.1432      289.19206      7978.3893      1.2598447      0.68290984   
     48100  -4791.4239     -4829.1081      37.684216      6534.0468      289.5112       7978.7202      1.2597925      0.68290984   
     48200  -4790.8439     -4829.709       38.865175      9085.3825      298.58399      7975.5137      1.260299       0.68290984   
     48300  -4791.0563     -4828.6192      37.562881      6457.355       288.57904      7974.9931      1.2603812      0.68290984   
     48400  -4792.4216     -4829.8805      37.458922      5168.3919      287.78037      7978.2737      1.259863       0.68290984   
     48500  -4792.7819     -4830.5494      37.767518      5732.4777      290.15118      7980.0289      1.2595859      0.68290984   
     48600  -4792.9909     -4831.0882      38.097221      7802.0061      292.68414      7981.0903      1.2594184      0.68290984   
     48700  -4792.3801     -4829.552       37.171863      7027.1846      285.57502      7982.4362      1.259206       0.68290984   
     48800  -4792.1038     -4829.8915      37.787695      4482.7207      290.30619      7983.0997      1.2591014      0.68290984   
     48900  -4792.9822     -4830.4977      37.515453      8748.2084      288.21467      7979.3916      1.2596865      0.68290984   
     49000  -4793.1992     -4831.184       37.984828      4542.4483      291.82067      7978.0933      1.2598915      0.63177217   
     49100  -4794.149      -4831.5388      37.389856      5790.1531      287.24977      7972.0147      1.2608521      0.63177217   
     49200  -4795.1704     -4833.6154      38.444934      7247.8324      295.35546      7962.1096      1.2624207      0.63177217   
     49300  -4796.3096     -4831.219       34.909465      7785.2395      268.19401      7947.3554      1.2647643      0.63177217   
     49400  -4794.5908     -4830.6232      36.032374      5335.4211      276.82083      7933.1465      1.2670296      0.63177217   
     49500  -4794.6089     -4830.9411      36.332156      4541.1511      279.12392      7920.7222      1.2690171      0.63177217   
     49600  -4794.0182     -4829.995       35.976748      3376.1137      276.39348      7914.2397      1.2700565      0.63177217   
     49700  -4793.128      -4830.3222      37.194158      3400.1668      285.74631      7913.2338      1.270218       0.63177217   
     49800  -4792.5499     -4830.5521      38.002176      7778.7081      291.95395      7918.8458      1.2693178      0.63177217   
     49900  -4793.4138     -4830.6562      37.242457      5981.5026      286.11737      7932.7388      1.2670947      0.63177217   
     50000  -4792.7781     -4829.1689      36.3908        7116.68        279.57446      7954.5676      1.2636176      0.68708096   
     50100  -4792.2895     -4829.8131      37.523663      6359.7975      288.27774      7981.9222      1.2592871      0.68708096   
     50200  -4792.3513     -4830.8144      38.463154      7258.4919      295.49544      8004.4798      1.2557383      0.68708096   
     50300  -4792.0235     -4830.3192      38.295771      4712.7085      294.20951      8016.0065      1.2539326      0.68708096   
     50400  -4793.014      -4831.2033      38.189302      4838.3298      293.39156      8013.9898      1.2542481      0.68708096   
     50500  -4792.2791     -4830.5635      38.284427      5269.1091      294.12236      8003.5698      1.2558811      0.68708096   
     50600  -4792.2326     -4829.2205      36.987924      2496.2613      284.1619       7987.8473      1.258353       0.68708096   
     50700  -4792.0499     -4829.2759      37.226022      3724.9848      285.9911       7970.3093      1.2611219      0.68708096   
     50800  -4791.6623     -4828.6686      37.006336      5548.0966      284.30335      7949.3348      1.2644494      0.68708096   
     50900  -4791.3627     -4829.3615      37.998816      5151.6405      291.92814      7931.8381      1.2672386      0.68708096   
     51000  -4792.4792     -4829.536       37.056842      3313.974       284.69136      7921.6049      1.2688757      0.6876217    
     51100  -4793.4805     -4830.485       37.004512      5693.1716      284.28934      7918.5087      1.2693718      0.6876217    
     51200  -4793.2414     -4830.4417      37.200356      6286.1047      285.79392      7921.7275      1.268856       0.6876217    
     51300  -4793.0135     -4830.8127      37.799194      5048.6417      290.39453      7930.9251      1.2673845      0.6876217    
     51400  -4792.7877     -4831.5207      38.733033      8542.9437      297.56881      7944.6631      1.2651929      0.6876217    
     51500  -4792.7283     -4830.5602      37.831883      7681.2972      290.64566      7958.3189      1.263022       0.6876217    
     51600  -4793.9079     -4831.1178      37.209925      3845.2358      285.86744      7970.3311      1.2611185      0.6876217    
     51700  -4793.755      -4831.6481      37.893026      4300.0295      291.1154       7979.4133      1.2596831      0.6876217    
     51800  -4793.916      -4830.8965      36.980562      5244.9804      284.10534      7981.6038      1.2593373      0.6876217    
     51900  -4793.6791     -4830.3093      36.630204      4542.3137      281.4137       7976.4716      1.2601476      0.6876217    
     52000  -4795.0655     -4832.4508      37.385333      4170.4956      287.21502      7966.1506      1.2617803      0.66286083   
     52100  -4794.4684     -4831.1242      36.655787      6855.6487      281.61024      7946.8846      1.2648393      0.66286083   
     52200  -4793.0636     -4830.1187      37.055138      6765.4625      284.67827      7926.4168      1.2681054      0.66286083   
     52300  -4794.0994     -4831.5335      37.434131      6675.1719      287.58991      7914.0313      1.27009        0.66286083   
     52400  -4793.6774     -4831.698       38.020602      7962.0453      292.09551      7903.2337      1.2718252      0.66286083   
     52500  -4793.224      -4830.732       37.508065      7135.9508      288.15791      7903.5817      1.2717692      0.66286083   
     52600  -4794.0494     -4830.728       36.678602      3920.4258      281.78551      7920.0137      1.2691306      0.66286083   
     52700  -4792.7142     -4830.4848      37.770563      7022.8629      290.17457      7942.9999      1.2654579      0.66286083   
     52800  -4792.9361     -4830.727       37.790975      4105.8279      290.33139      7968.5929      1.2613936      0.66286083   
     52900  -4792.6069     -4830.687       38.080165      5322.6948      292.55311      7991.6156      1.2577596      0.66286083   
     53000  -4792.5165     -4830.1056      37.589056      4827.4808      288.78013      8012.0936      1.254545       0.69168195   
     53100  -4792.307      -4830.4216      38.114535      4295.5587      292.81715      8017.7104      1.2536661      0.69168195   
     53200  -4793.7333     -4831.1212      37.387889      482.42164      287.23465      8003.9715      1.255818       0.69168195   
     53300  -4792.1682     -4829.5612      37.392967      907.54645      287.27366      7976.945       1.2600728      0.69168195   
     53400  -4792.1824     -4828.2287      36.04632       3835.2338      276.92797      7944.3886      1.2652367      0.69168195   
     53500  -4793.0895     -4831.0897      38.00015       2266.926       291.93839      7911.9554      1.2704232      0.69168195   
     53600  -4792.7185     -4830.0127      37.294171      8448.813       286.51466      7885.4533      1.2746929      0.69168195   
     53700  -4793.2276     -4830.5063      37.278652      5016.9466      286.39543      7870.7933      1.2770672      0.69168195   
     53800  -4794.4263     -4830.0175      35.59121       3806.5536      273.43156      7871.0416      1.2770269      0.69168195   
     53900  -4793.1484     -4831.8381      38.689635      4872.1152      297.2354       7884.5417      1.2748403      0.69168195   
     54000  -4794.4036     -4832.0515      37.647841      5053.8058      289.23175      7905.5438      1.2714535      0.71057629   
     54100  -4793.953      -4830.7668      36.813711      8905.0231      282.8235       7929.2415      1.2676536      0.71057629   
     54200  -4794.2784     -4831.1639      36.885493      5492.3705      283.37497      7951.7154      1.2640709      0.71057629   
     54300  -4792.9507     -4829.4779      36.527235      3607.3908      280.62263      7969.746       1.2612111      0.71057629   
     54400  -4793.6749     -4830.8289      37.153985      6160.4313      285.43767      7983.7213      1.2590033      0.71057629   
     54500  -4793.2146     -4831.2319      38.017364      4798.1236      292.07063      7991.2205      1.2578218      0.71057629   
     54600  -4792.1738     -4829.5852      37.411362      4099.2166      287.41499      7987.8512      1.2583524      0.71057629   
     54700  -4791.2023     -4828.2645      37.062216      4355.0262      284.73265      7979.9683      1.2595954      0.71057629   
     54800  -4791.1195     -4830.7853      39.66577       2457.0975      304.73461      7973.2903      1.2606504      0.71057629   
     54900  -4790.2145     -4829.8584      39.643857      5737.2859      304.56626      7967.39        1.261584       0.71057629   
     55000  -4790.661      -4829.47        38.808968      7142.2913      298.15218      7961.9498      1.262446       0.7062351    
     55100  -4791.1405     -4829.6424      38.501932      6309.311       295.79336      7957.697       1.2631207      0.7062351    
     55200  -4791.1304     -4829.5818      38.451453      3179.7734      295.40555      7960.1101      1.2627378      0.7062351    
     55300  -4790.9651     -4829.9982      39.033123      4638.6813      299.87426      7965.9433      1.2618131      0.7062351    
     55400  -4792.6058     -4828.9616      36.355779      4160.613       279.30541      7970.016       1.2611683      0.7062351    
     55500  -4791.387      -4830.3867      38.999735      4157.0122      299.61775      7974.1918      1.2605079      0.7062351    
     55600  -4792.8219     -4830.2755      37.453645      4452.9749      287.73983      7976.3018      1.2601744      0.7062351    
[...]
    386200  -4791.8095     -4828.8366      37.027135      3792.5703      284.46314      7992.2186      1.2576648      0.78805763   
    386300  -4791.6479     -4830.7886      39.140616      4401.3174      300.70008      7978.1169      1.2598877      0.78805763   
    386400  -4791.5426     -4828.7981      37.255496      7428.6264      286.21753      7959.0299      1.2629091      0.78805763   
    386500  -4791.8054     -4830.5407      38.735342      4950.967       297.58654      7945.6267      1.2650395      0.78805763   
    386600  -4791.6006     -4831.1746      39.574024      4854.2855      304.02976      7936.8104      1.2664447      0.78805763   
    386700  -4791.1005     -4828.8852      37.784751      8179.2257      290.28357      7934.4549      1.2668207      0.78805763   
    386800  -4792.3763     -4828.3797      36.003349      8180.0456      276.59784      7942.6297      1.2655169      0.78805763   
    386900  -4791.9559     -4831.9452      39.989297      5386.5192      307.22012      7959.5846      1.2628211      0.78805763   
    387000  -4792.1474     -4831.2598      39.112384      2637.6472      300.48319      7975.2424      1.2603418      0.66952212   
    387100  -4791.7485     -4829.669       37.920424      6926.7905      291.32589      7988.4512      1.2582579      0.66952212   
    387200  -4790.3032     -4828.6406      38.337408      4791.8555      294.52939      7997.0876      1.256899       0.66952212   
    387300  -4789.9131     -4828.3207      38.407576      3783.5519      295.06846      7998.9175      1.2566115      0.66952212   
    387400  -4789.2033     -4827.7183      38.515008      3478.0717      295.89381      7996.3078      1.2570216      0.66952212   
    387500  -4789.4889     -4828.1069      38.61793       1192.3163      296.68452      7991.4557      1.2577848      0.66952212   
    387600  -4792.411      -4830.4093      37.998275      5591.661       291.92398      7980.1236      1.2595709      0.66952212   
    387700  -4792.6923     -4830.2739      37.581619      3846.2854      288.72299      7957.8988      1.2630887      0.66952212   
    387800  -4792.5854     -4830.3635      37.778073      5983.4132      290.23227      7932.8429      1.2670781      0.66952212   
    387900  -4792.5294     -4829.4946      36.965214      6455.7625      283.98743      7914.8829      1.2699533      0.66952212   
    388000  -4794.062      -4829.4596      35.397602      5822.132       271.94416      7903.7778      1.2717376      0.71797673   
    388100  -4793.5208     -4831.1603      37.639469      5648.8381      289.16743      7902.3653      1.2719649      0.71797673   
    388200  -4794.1429     -4832.8207      38.677864      6190.399       297.14496      7905.3343      1.2714872      0.71797673   
    388300  -4793.502      -4831.1948      37.692746      4980.1597      289.57673      7914.4993      1.2700149      0.71797673   
    388400  -4793.9648     -4830.7163      36.75154       5103.0655      282.34586      7928.8788      1.2677116      0.71797673   
    388500  -4791.9027     -4829.1256      37.222937      7985.1548      285.9674       7942.033       1.2656119      0.71797673   
    388600  -4793.2867     -4831.4361      38.149346      1949.1659      293.08459      7955.9679      1.2633952      0.71797673   
    388700  -4794.1999     -4831.3668      37.166831      2709.9292      285.53636      7962.9063      1.2622944      0.71797673   
    388800  -4792.9866     -4829.6435      36.656814      5707.6178      281.61813      7961.8592      1.2624604      0.71797673   
    388900  -4792.7164     -4830.2243      37.507862      8364.9199      288.15635      7952.3485      1.2639702      0.71797673   
    389000  -4793.9852     -4831.0618      37.076532      8888.2158      284.84264      7934.7693      1.2667705      0.71747404   
    389100  -4792.841      -4831.4452      38.604193      6743.8008      296.57898      7915.8424      1.2697994      0.71747404   
    389200  -4792.5304     -4830.8067      38.276302      9536.892       294.05994      7902.5465      1.2719358      0.71747404   
    389300  -4792.507      -4831.0357      38.528682      8808.6456      295.99886      7899.299       1.2724587      0.71747404   
    389400  -4792.2518     -4830.5045      38.252703      5385.5051      293.87864      7904.1649      1.2716753      0.71747404   
    389500  -4791.6321     -4829.8326      38.200489      5771.8223      293.4775       7917.1167      1.269595       0.71747404   
    389600  -4792.2346     -4830.5118      38.277192      3340.9393      294.06677      7938.9117      1.2661095      0.71747404   
    389700  -4792.3616     -4831.6463      39.284655      6148.3859      301.80667      7961.5274      1.262513       0.71747404   
    389800  -4793.4855     -4830.986       37.500471      4820.916       288.09957      7976.2643      1.2601804      0.71747404   
    389900  -4793.5211     -4831.681       38.15996       2555.6393      293.16614      7981.0653      1.2594223      0.71747404   
    390000  -4793.1617     -4829.7904      36.628729      2541.5712      281.40237      7973.1639      1.2606704      0.63988724   
    390100  -4794.3068     -4831.0909      36.784076      6865.5848      282.59583      7956.0216      1.2633867      0.63988724   
    390200  -4794.3144     -4830.5934      36.278971      5393.6934      278.71533      7935.5406      1.2666474      0.63988724   
    390300  -4793.9109     -4830.7218      36.810979      5345.7129      282.80251      7911.1238      1.2705567      0.63988724   
    390400  -4793.8269     -4830.9204      37.093518      5309.4765      284.97313      7881.6287      1.2753115      0.63988724   
    390500  -4794.3425     -4833.3116      38.969025      6783.6511      299.38183      7857.6636      1.2792011      0.63988724   
    390600  -4793.232      -4830.5769      37.344873      5312.7922      286.90418      7846.6439      1.2809976      0.63988724   
    390700  -4791.6666     -4829.2639      37.597339      6355.8031      288.84377      7855.8906      1.2794898      0.63988724   
    390800  -4792.1569     -4829.0122      36.85524       10179.148      283.14255      7886.465       1.2745294      0.63988724   
    390900  -4791.874      -4829.8626      37.988536      3222.9661      291.84916      7930.2245      1.2674965      0.63988724   
    391000  -4792.4265     -4830.6338      38.207322      6401.4575      293.52999      7970.7775      1.2610478      0.62329277   
    391100  -4791.5998     -4829.6335      38.033654      4826.824       292.19578      8002.9434      1.2559794      0.62329277   
    391200  -4791.7216     -4830.5656      38.843924     -1257.1132      298.42073      8025.4111      1.2524632      0.62329277   
    391300  -4791.7208     -4830.4228      38.701973      3541.6524      297.33018      8030.1083      1.2517305      0.62329277   
    391400  -4791.4574     -4830.7657      39.30826       4302.5267      301.98802      8015.4074      1.2540263      0.62329277   
    391500  -4790.9822     -4829.2603      38.27805       9100.0511      294.07337      7986.5305      1.2585605      0.62329277   
    391600  -4789.5457     -4828.5988      39.053176      2779.6755      300.02832      7953.4052      1.2638023      0.62329277   
    391700  -4789.5658     -4829.458       39.892252      6172.1913      306.47457      7926.1182      1.2681531      0.62329277   
    391800  -4789.7726     -4829.6126      39.84          4230.8325      306.07314      7911.5573      1.2704871      0.62329277   
    391900  -4789.19       -4827.1339      37.943888      4944.4477      291.50615      7909.0515      1.2708896      0.62329277   
    392000  -4790.8201     -4829.295       38.474969      8883.8378      295.58621      7920.9951      1.2689734      0.67253548   
    392100  -4791.8471     -4830.1708      38.323748      8636.1392      294.42445      7938.3764      1.2661949      0.67253548   
    392200  -4791.9011     -4830.2621      38.361017      8843.8544      294.71077      7958.1212      1.2630534      0.67253548   
    392300  -4793.144      -4830.6989      37.554922      1473.1785      288.51789      7974.6273      1.2604391      0.67253548   
    392400  -4794.3202     -4830.9331      36.61296       3318.4801      281.28121      7985.9389      1.2586537      0.67253548   
    392500  -4793.5983     -4830.7496      37.151348      2753.0125      285.41741      7987.2324      1.2584499      0.67253548   
    392600  -4794.5971     -4831.3017      36.704539      5237.5169      281.98478      7976.8791      1.2600832      0.67253548   
    392700  -4793.6201     -4831.1114      37.491333      7255.8627      288.02937      7955.6458      1.2634464      0.67253548   
    392800  -4794.1988     -4830.4638      36.264966      5993.1096      278.60773      7929.2428      1.2676534      0.67253548   
    392900  -4795.1476     -4830.4709      35.323328      3783.3871      271.37355      7906.399       1.271316       0.67253548   
    393000  -4794.3688     -4831.4383      37.069555      6809.9371      284.78903      7887.8445      1.2743065      0.66192005   
    393100  -4794.558      -4831.5872      37.02917       8654.0042      284.47878      7874.3083      1.2764971      0.66192005   
    393200  -4795.3214     -4831.7402      36.418827      6034.3895      279.78978      7874.0819      1.2765338      0.66192005   
    393300  -4795.4008     -4830.9727      35.571855      6860.6813      273.28287      7887.9295      1.2742928      0.66192005   
    393400  -4795.2034     -4831.2228      36.019476      4117.213       276.72174      7912.4161      1.2703492      0.66192005   
    393500  -4794.1556     -4831.0663      36.910741      4748.3689      283.56894      7939.5913      1.2660012      0.66192005   
    393600  -4795.0048     -4832.4838      37.478983      6390.4579      287.93449      7967.4803      1.2615697      0.66192005   
    393700  -4794.4218     -4831.2055      36.783776      3181.4789      282.59352      7988.6621      1.2582247      0.66192005   
    393800  -4794.3333     -4831.7         37.366726      5179.6177      287.07207      7996.6306      1.2569709      0.66192005   
    393900  -4793.9501     -4831.4698      37.519775      4736.8927      288.24788      7994.1492      1.257361       0.66192005   
    394000  -4794.9939     -4830.5738      35.57994       659.61745      273.34498      7979.5571      1.2596604      0.68004041   
    394100  -4794.1801     -4830.9715      36.79137       1851.7424      282.65186      7955.0778      1.2635366      0.68004041   
    394200  -4793.6642     -4831.8901      38.225904      5788.6419      293.67276      7929.0432      1.2676853      0.68004041   
    394300  -4793.5456     -4831.5625      38.016893      8458.3099      292.06701      7906.9427      1.2712286      0.68004041   
    394400  -4794.4561     -4832.478       38.021907      8929.5736      292.10554      7895.0394      1.2731452      0.68004041   
    394500  -4793.933      -4831.2536      37.32066       7547.226       286.71816      7892.9615      1.2734804      0.68004041   
    394600  -4793.6972     -4831.3875      37.690276      3960.8195      289.55776      7904.2744      1.2716577      0.68004041   
    394700  -4793.3919     -4829.753       36.361097      4531.704       279.34626      7924.1341      1.2684707      0.68004041   
    394800  -4794.7882     -4830.8599      36.071639      6640.6687      277.12249      7944.6267      1.2651987      0.68004041   
    394900  -4794.5017     -4831.3181      36.816356      6717.8814      282.84382      7965.3744      1.2619032      0.68004041   
    395000  -4794.6841     -4833.1149      38.430762      5087.2999      295.24659      7980.9324      1.2594433      0.72357943   
    395100  -4794.079      -4831.6129      37.533831      5132.2163      288.35586      7986.367       1.2585863      0.72357943   
    395200  -4794.9989     -4830.8325      35.833538      3389.4636      275.29326      7984.1779      1.2589313      0.72357943   
    395300  -4792.8127     -4830.4411      37.628394     -119.89389      289.08235      7974.1844      1.2605091      0.72357943   
    395400  -4791.7034     -4828.9343      37.230839      8164.5926      286.02811      7959.106       1.2628971      0.72357943   
    395500  -4791.7554     -4829.6038      37.848412      4932.6645      290.77265      7947.6577      1.2647162      0.72357943   
    395600  -4790.0314     -4829.9873      39.955905      4317.2429      306.96359      7940.6213      1.2658369      0.72357943   
    395700  -4792.369      -4830.6288      38.259788      6685.5877      293.93307      7940.6333      1.265835       0.72357943   
    395800  -4793.4373     -4832.2665      38.829213      2357.6652      298.30771      7945.0723      1.2651278      0.72357943   
    395900  -4793.4986     -4831.0804      37.581777      1441.2032      288.72421      7948.8586      1.2645252      0.72357943   
    396000  -4793.1308     -4830.95        37.819197      1161.9235      290.5482       7950.3119      1.264294       0.69514706   
    396100  -4792.8393     -4828.7626      35.923275      5416.7958      275.98267      7949.718       1.2643885      0.69514706   
    396200  -4794.1358     -4831.7547      37.618927      4507.7357      289.00961      7948.6396      1.26456        0.69514706   
    396300  -4793.9463     -4831.5847      37.638352      7325.662       289.15885      7944.2901      1.2652523      0.69514706   
    396400  -4794.3175     -4831.178       36.86049       6188.1333      283.18288      7938.6048      1.2661585      0.69514706   
    396500  -4793.0452     -4831.0474      38.002219      8349.4621      291.95428      7932.5076      1.2671317      0.69514706   
    396600  -4792.3661     -4832.3984      40.032334      4303.364       307.55076      7926.5507      1.268084       0.69514706   
    396700  -4792.2282     -4829.6839      37.455662      454.66639      287.75533      7921.8916      1.2688297      0.69514706   
    396800  -4791.5428     -4828.2525      36.709658      2111.0983      282.0241       7922.1368      1.2687905      0.69514706   
    396900  -4791.3731     -4830.447       39.073851      3167.9946      300.18716      7926.3351      1.2681184      0.69514706   
    397000  -4789.9019     -4830.145       40.243054      7428.5013      309.16963      7939.2289      1.2660589      0.80538717   
    397100  -4790.214      -4830.2055      39.991542      5089.1476      307.23737      7959.716       1.2628003      0.80538717   
    397200  -4790.1915     -4829.595       39.403579      6048.0376      302.72031      7980.8655      1.2594538      0.80538717   
    397300  -4790.7693     -4829.5952      38.825892      3393.0277      298.2822       7998.406       1.2566919      0.80538717   
    397400  -4791.422      -4828.8968      37.474792      3135.5716      287.90229      8005.7174      1.2555442      0.80538717   
    397500  -4791.8913     -4829.6425      37.751217      4384.1626      290.02594      8002.6331      1.2560281      0.80538717   
    397600  -4791.4922     -4830.3348      38.842609      3174.1632      298.41063      7984.5757      1.2588686      0.80538717   
    397700  -4791.4905     -4829.8149      38.324349      7988.2351      294.42907      7957.3811      1.2631708      0.80538717   
    397800  -4791.9285     -4829.6558      37.7273        4557.429       289.8422       7931.6024      1.2672763      0.80538717   
    397900  -4790.9325     -4829.0937      38.161248      6843.1215      293.17603      7914.6112      1.2699969      0.80538717   
    398000  -4792.7868     -4830.2898      37.502941      8065.7338      288.11854      7910.0742      1.2707253      0.71396494   
    398100  -4792.9209     -4831.0828      38.161878      6460.6216      293.18087      7914.0647      1.2700846      0.71396494   
    398200  -4793.9244     -4830.9827      37.058341      4562.5543      284.70288      7922.088       1.2687983      0.71396494   
    398300  -4795.0556     -4832.2186      37.163081      6355.3568      285.50755      7934.1333      1.2668721      0.71396494   
    398400  -4796.1935     -4832.0649      35.871424      4160.4942      275.58433      7940.7842      1.265811       0.71396494   
    398500  -4795.458      -4832.5298      37.071841      5273.8287      284.8066       7944.8607      1.2651615      0.71396494   
    398600  -4795.1544     -4831.8194      36.665013      6263.3209      281.68112      7948.4673      1.2645874      0.71396494   
    398700  -4795.9788     -4832.2353      36.256548      5352.0925      278.54306      7950.5881      1.2642501      0.71396494   
    398800  -4794.5238     -4830.8362      36.312369      1428.7135      278.97191      7951.1494      1.2641608      0.71396494   
    398900  -4795.8362     -4832.3286      36.492357      4606.5059      280.35468      7947.0588      1.2648115      0.71396494   
    399000  -4794.8295     -4832.1854      37.35597       4094.9011      286.98944      7943.4882      1.2653801      0.6315685    
    399100  -4795.4905     -4831.7055      36.214986      473.42304      278.22375      7937.652       1.2663104      0.6315685    
    399200  -4795.2262     -4831.949       36.72276       6057.9059      282.12477      7929.67        1.2675851      0.6315685    
    399300  -4792.8936     -4831.3023      38.408707      9377.8952      295.07715      7926.7415      1.2680534      0.6315685    
    399400  -4792.0197     -4829.9742      37.9545        4895.0459      291.58768      7936.3243      1.2665223      0.6315685    
    399500  -4791.5762     -4829.692       38.11581       6800.235       292.82695      7955.2721      1.2635057      0.6315685    
    399600  -4792.7967     -4831.7217      38.924988      5114.5657      299.04351      7976.6191      1.2601243      0.6315685    
    399700  -4792.1359     -4829.2635      37.127666      5947.9729      285.23547      7991.7098      1.2577448      0.6315685    
    399800  -4790.9554     -4829.6801      38.724739      3545.329       297.50509      7998.7028      1.2566452      0.6315685    
    399900  -4792.045      -4829.7863      37.741361      5392.6551      289.95022      7998.655       1.2566527      0.6315685    
    400000  -4791.733      -4830.8558      39.12284       3012.039       300.56352      7992.3826      1.257639       0.6648769    
    400100  -4791.124      -4828.8803      37.756283      1519.4839      290.06486      7980.5087      1.2595102      0.6648769    
    400200  -4792.1749     -4830.0647      37.889828      7383.0116      291.09083      7970.9375      1.2610225      0.6648769    
    400297  -4791.8565     -4829.163       37.306506      1120.4276      286.60942      7962.9806      1.2622826      0.6648769    
Loop time of 483.315 on 4 procs for 200000 steps with 1008 atoms

Performance: 17.877 ns/day, 1.343 hours/ns, 413.809 timesteps/s, 417.119 katom-step/s
99.7% CPU use with 4 MPI tasks x 1 OpenMP threads

MPI task timing breakdown:
Section |  min time  |  avg time  |  max time  |%varavg| %total
---------------------------------------------------------------
Pair    | 213        | 214.65     | 216.85     |   9.5 | 44.41
Neigh   | 7.6469     | 7.7256     | 7.8153     |   2.7 |  1.60
Comm    | 63.99      | 67.449     | 69.697     |  28.7 | 13.96
Output  | 0.27644    | 0.28159    | 0.28852    |   0.8 |  0.06
Modify  | 188.86     | 190.81     | 192.08     |   9.7 | 39.48
Other   |            | 2.399      |            |       |  0.50

Nlocal:            252 ave         258 max         246 min
Histogram: 1 0 0 1 0 0 1 0 0 1
Nghost:        1983.75 ave        2000 max        1974 min
Histogram: 1 1 0 1 0 0 0 0 0 1
Neighs:              0 ave           0 max           0 min
Histogram: 4 0 0 0 0 0 0 0 0 0
FullNghs:        37000 ave       37968 max       36172 min
Histogram: 1 0 1 0 0 1 0 0 0 1

Total # of neighbors = 148000
Ave neighs/atom = 146.8254
Neighbor list builds = 19967
Dangerous builds = 19802

unfix		3
unfix		4
Total wall time: 0:16:09
