LAMMPS (27 Jun 2024)
KOKKOS mode with Kokkos version 4.3.1 is enabled (src/KOKKOS/kokkos.cpp:72)
  will use up to 1 GPU(s) per node
WARNING: When using a single thread, the Kokkos Serial backend (i.e. Makefile.kokkos_mpi_only) gives better performance than the OpenMP backend (src/KOKKOS/kokkos.cpp:202)
  using 1 OpenMP thread(s) per MPI task
Reading data file ...
  orthogonal box = (0 0 0) to (20.13213 20.132272 35.107669)
  1 by 1 by 1 MPI processor grid
  reading atoms ...
  2160 atoms
  read_data CPU = 0.013 seconds
ACE/AL version: 2023.11.25
Loading /pc2/users/a/acepdw01/work/phase_diagram/pot_dir/interim_potential_ladder_step_1.yaml
Total number of basis functions
	H: 23 (r=1) 664 (r>1)
	O: 23 (r=1) 664 (r>1)
Mapping LAMMPS atom type #1(H) -> ACE species type #0
Mapping LAMMPS atom type #2(O) -> ACE species type #1
Loading ASI /pc2/users/a/acepdw01/work/phase_diagram/pot_dir/interim_potential_ladder_step_1.asi
LINEAR ASI is loaded

CITE-CITE-CITE-CITE-CITE-CITE-CITE-CITE-CITE-CITE-CITE-CITE-CITE

Your simulation uses code contributions which should be cited:
- Type Label Framework: https://doi.org/10.1021/acs.jpcb.3c08419
The log file lists these citations in BibTeX format.

CITE-CITE-CITE-CITE-CITE-CITE-CITE-CITE-CITE-CITE-CITE-CITE-CITE

Switching to 'neigh_modify every 1 delay 0 check yes' setting during minimization
Neighbor list info ...
  update: every = 1 steps, delay = 0 steps, check = yes
  max neighbors/atom: 2000, page size: 100000
  master list distance cutoff = 6.5
  ghost atom cutoff = 6.5
  binsize = 6.5, bins = 4 4 6
  1 neighbor lists, perpetual/occasional/extra = 1 0 0
  (1) pair pace/extrapolation/kk, perpetual
      attributes: full, newton on, kokkos_device
      pair build: full/bin/kk/device
      stencil: full/bin/3d
      bin: kk/device
Setting up cg/kk style minimization ...
  Unit style    : metal
  Current step  : 0
WARNING: Fix with atom-based arrays not compatible with sending data in Kokkos communication, switching to classic exchange/border communication (src/KOKKOS/comm_kokkos.cpp:754)
WARNING: Fix with atom-based arrays not compatible with Kokkos sorting on device, switching to classic host sorting (src/KOKKOS/atom_kokkos.cpp:216)
Per MPI rank memory allocation (min/avg/max) = 1808 | 1808 | 1808 Mbytes
   Step         TotEng         PotEng         KinEng         Press           Temp          Volume        Density     c_max_pace_gamma
         0  -10394.812     -10394.812      0              10356.492      0              14229.332      1.513704       0.94301683   
       100  -10405.399     -10405.399      0              6153.7788      0              14229.332      1.513704       0.94301683   
       200  -10407.585     -10407.585      0              6517.8061      0              14229.332      1.513704       0.94301683   
       300  -10408.546     -10408.546      0              6308.0684      0              14229.332      1.513704       0.94301683   
       400  -10408.808     -10408.808      0              6401.0482      0              14229.332      1.513704       0.94301683   
       500  -10408.847     -10408.847      0              6350.2263      0              14229.332      1.513704       0.94301683   
       600  -10408.847     -10408.847      0              6348.1747      0              14229.332      1.513704       0.94301683   
       700  -10408.848     -10408.848      0              6349.5447      0              14229.332      1.513704       0.94301683   
       800  -10408.849     -10408.849      0              6350.6162      0              14229.332      1.513704       0.94301683   
       900  -10408.849     -10408.849      0              6350.9463      0              14229.332      1.513704       0.94301683   
       920  -10408.849     -10408.849      0              6350.9068      0              14229.332      1.513704       0.94301683   
Loop time of 8.92798 on 1 procs for 920 steps with 2160 atoms

99.8% CPU use with 1 MPI tasks x 1 OpenMP threads

Minimization stats:
  Stopping criterion = force tolerance
  Energy initial, next-to-last, final = 
     -10394.8116753497  -10408.8486802881  -10408.8486802936
  Force two-norm initial, final = 17.431636 0.00048377944
  Force max component initial, final = 3.1552255 0.00017940047
  Final line search alpha, max atom move = 1 0.00017940047
  Iterations, force evaluations = 920 1836

MPI task timing breakdown:
Section |  min time  |  avg time  |  max time  |%varavg| %total
---------------------------------------------------------------
Pair    | 8.2239     | 8.2239     | 8.2239     |   0.0 | 92.11
Neigh   | 0.022667   | 0.022667   | 0.022667   |   0.0 |  0.25
Comm    | 0.05793    | 0.05793    | 0.05793    |   0.0 |  0.65
Output  | 0.001256   | 0.001256   | 0.001256   |   0.0 |  0.01
Modify  | 0.38116    | 0.38116    | 0.38116    |   0.0 |  4.27
Other   |            | 0.2411     |            |       |  2.70

Nlocal:           2160 ave        2160 max        2160 min
Histogram: 1 0 0 0 0 0 0 0 0 0
Nghost:           5973 ave        5973 max        5973 min
Histogram: 1 0 0 0 0 0 0 0 0 0
Neighs:              0 ave           0 max           0 min
Histogram: 1 0 0 0 0 0 0 0 0 0
FullNghs:       373378 ave      373378 max      373378 min
Histogram: 1 0 0 0 0 0 0 0 0 0

Total # of neighbors = 373378
Ave neighs/atom = 172.86019
Neighbor list builds = 51
Dangerous builds = 0
Setting up Verlet run ...
  Unit style    : metal
  Current step  : 920
  Time step     : 0.0005
WARNING: Fix with atom-based arrays not compatible with Kokkos sorting on device, switching to classic host sorting (src/KOKKOS/atom_kokkos.cpp:216)
Per MPI rank memory allocation (min/avg/max) = 1810 | 1810 | 1810 Mbytes
   Step         TotEng         PotEng         KinEng         Press           Temp          Volume        Density     c_max_pace_gamma
       920  -10252.568     -10408.849      156.28069      18082.038      560            14229.332      1.513704       0.94301683   
      1000  -10223.98      -10309.275      85.295173      42009.681      305.63788      14200.754      1.5167502      0.73911191   
      1100  -10192.873     -10297.484      104.61113      34981.659      374.85266      14151.669      1.5220111      0.73911191   
      1200  -10171.078     -10285.006      113.92778      31130.88       408.237        14111.049      1.5263922      0.73911191   
      1300  -10149.619     -10278.061      128.44206      34911.126      460.24595      14097.544      1.5278546      0.73911191   
      1400  -10134.442     -10264.528      130.08583      35290.485      466.13608      14128.609      1.5244952      0.73911191   
      1500  -10122.944     -10258.253      135.30924      38805.418      484.85311      14215.459      1.5151812      0.73911191   
      1600  -10118.515     -10255.507      136.99265      39223.482      490.88526      14353.302      1.5006301      0.73911191   
      1700  -10112.285     -10253.269      140.98402      31950.97       505.18751      14519.34       1.4834694      0.73911191   
      1800  -10111.709     -10249.592      137.88297      30214.172      494.07554      14676.96       1.467538       0.73911191   
      1900  -10105.116     -10250.447      145.33057      27836.081      520.76248      14802.285      1.455113       0.73911191   
      2000  -10097.403     -10247.435      150.03256      29165.721      537.61113      14887.56       1.4467781      0.94233346   
      2100  -10093.918     -10244.727      150.80878      27542.499      540.39256      14936.948      1.4419944      0.94233346   
      2200  -10089.408     -10238.395      148.98733      28080.991      533.86574      14961.235      1.4396537      0.94233346   
      2300  -10090.722     -10240.943      150.22134      28754.669      538.28759      14971.823      1.4386355      0.94233346   
      2400  -10088.42      -10238.372      149.95179      30116.894      537.32169      14967.222      1.4390777      0.94233346   
      2500  -10086.349     -10238.272      151.92373      29933.894      544.38772      14951.693      1.4405724      0.94233346   
      2600  -10089.178     -10239.546      150.36795      30429.626      538.81293      14930.596      1.442608       0.94233346   
      2700  -10086.42      -10236.993      150.57272      32317.43       539.54666      14907.626      1.4448307      0.94233346   
      2800  -10086.784     -10237.136      150.35231      28114.215      538.75688      14890.816      1.4464618      0.94233346   
      2900  -10078.304     -10228.242      149.93797      27927.913      537.27216      14888.259      1.4467102      0.94233346   
      3000  -10073.38      -10223.399      150.01943      29336.983      537.56408      14907.344      1.4448581      0.92892408   
      3100  -10073.352     -10223.902      150.54969      30239.679      539.46414      14952.894      1.4404567      0.92892408   
      3200  -10070.877     -10222.316      151.43905      35367.966      542.65099      15023.609      1.4336766      0.92892408   
      3300  -10068.965     -10220.429      151.46453      27761.582      542.74228      15114.581      1.4250475      0.92892408   
      3400  -10070.344     -10224.43       154.08615      27892.461      552.13633      15210.129      1.4160956      0.92892408   
      3500  -10068.911     -10221.374      152.46269      32282.744      546.319        15292.191      1.4084964      0.92892408   
      3600  -10071.323     -10219.005      147.68122      27441.451      529.18556      15357.739      1.4024849      0.92892408   
      3700  -10067.866     -10218.497      150.63117      27407.149      539.75613      15405.097      1.3981734      0.92892408   
      3800  -10066.813     -10223.093      156.28019      25718.587      559.99824      15430.92       1.3958336      0.92892408   
      3900  -10063.226     -10215.663      152.43719      27001.454      546.22761      15435.952      1.3953786      0.92892408   
      4000  -10062.271     -10216.431      154.15993      28976.378      552.4007       15431.175      1.3958105      0.71446744   
      4100  -10063.374     -10214.951      151.57718      29912.115      543.14594      15421.907      1.3966493      0.71446744   
      4200  -10061.071     -10214.706      153.63486      32436.628      550.51923      15411.822      1.3975633      0.71446744   
      4300  -10060.94      -10213.482      152.54183      28231.878      546.60256      15413.555      1.3974062      0.71446744   
      4400  -10062.037     -10215.008      152.97094      30983.267      548.14021      15428.039      1.3960943      0.71446744   
      4500  -10059.401     -10211.798      152.39732      34314.174      546.08475      15458.749      1.3933208      0.71446744   
      4600  -10059.089     -10213.402      154.31354      31208.344      552.95113      15504.625      1.3891982      0.71446744   
      4700  -10055.997     -10210.384      154.38711      30242.343      553.21477      15554.154      1.3847745      0.71446744   
      4800  -10057.284     -10209.679      152.39504      34463.351      546.07659      15606.102      1.380165       0.71446744   
      4900  -10060.683     -10212.97       152.28714      28144.397      545.68994      15654.566      1.3758923      0.71446744   
      5000  -10061.774     -10209.35       147.5754       27418.989      528.80638      15693.228      1.3725026      0.76373356   
      5100  -10058.367     -10211.433      153.06627      28907.451      548.4818       15721.059      1.3700729      0.76373356   
      5200  -10059.536     -10208.209      148.67314      30542.32       532.73991      15736.754      1.3687064      0.76373356   
      5300  -10059.045     -10213.008      153.9631       32108.879      551.69539      15742.368      1.3682183      0.76373356   
      5400  -10057.564     -10209.992      152.42892      30626.219      546.19799      15739.943      1.3684292      0.76373356   
      5500  -10058.118     -10208.425      150.3071       33659.856      538.59489      15732.146      1.3691074      0.76373356   
      5600  -10054.825     -10208.739      153.91399      31218.086      551.51943      15725.156      1.3697159      0.76373356   
      5700  -10052.635     -10208.262      155.62631      26170.337      557.65516      15729.584      1.3693303      0.76373356   
      5800  -10053.126     -10205.703      152.5774       30703.336      546.73003      15743.89       1.368086       0.76373356   
      5900  -10048.62      -10203.719      155.09889      25053.643      555.76527      15769.087      1.3659         0.76373356   
      6000  -10051.209     -10201.148      149.93867      31509.075      537.27467      15804.174      1.3628676      1.0430558    
      6100  -10050.681     -10202.803      152.12201      31759.359      545.09822      15848.39       1.3590653      1.0430558    
      6200  -10050.544     -10203.199      152.65494      30213.614      547.00786      15898.541      1.3547782      1.0430558    
      6300  -10046.1       -10199.868      153.76725      31061.193      550.99362      15950.917      1.3503297      1.0430558    
      6400  -10046.89      -10204.915      158.02498      28575.577      566.25031      16003.965      1.3458537      1.0430558    
      6500  -10049.402     -10207.268      157.8661       27188.238      565.68101      16046.098      1.3423199      1.0430558    
      6600  -10050.532     -10204.95       154.41763      26658.688      553.32412      16067.976      1.3404922      1.0430558    
      6700  -10053.803     -10207.931      154.12759      29559.005      552.28483      16072.929      1.3400791      1.0430558    
      6800  -10052.225     -10205.087      152.86183      31563.945      547.74922      16063.579      1.3408591      1.0430558    
      6900  -10049.203     -10204.491      155.28811      29810.73       556.44332      16038.377      1.3429661      1.0430558    
      7000  -10047.849     -10201.677      153.82895      29539.877      551.2147       16006.509      1.3456399      0.68122568   
      7100  -10048.954     -10202.672      153.71739      27234.748      550.81496      15983.91       1.3475424      0.68122568   
      7200  -10045.049     -10199.866      154.81708      31422.706      554.75548      15979.337      1.3479281      0.68122568   
      7300  -10044.396     -10198.24       153.84411      30905.546      551.26903      15996.792      1.3464572      0.68122568   
      7400  -10046.215     -10201.854      155.63874      31122.844      557.69973      16031.324      1.3435569      0.68122568   
      7500  -10044.366     -10197.13       152.76343      30803.412      547.39664      16080.704      1.3394312      0.68122568   
      7600  -10042.361     -10199.447      157.08567      29428.835      562.88451      16140.946      1.3344321      0.68122568   
      7700  -10041.491     -10199.245      157.75379      28650.078      565.27855      16206.524      1.3290324      0.68122568   
      7800  -10046.623     -10200.691      154.06778      25560.725      552.0705       16277.122      1.3232681      0.68122568   
      7900  -10049.426     -10202.726      153.30033      28629.177      549.3205       16340.496      1.3181361      0.68122568   
      8000  -10046.837     -10200.387      153.54968      25801.019      550.21399      16384.703      1.3145796      0.8122136    
      8100  -10047.321     -10197.307      149.98562      26665.04       537.44293      16401.213      1.3132563      0.8122136    
      8200  -10049.226     -10202.722      153.49577      29025.771      550.02081      16394.601      1.313786       0.8122136    
      8300  -10048.873     -10201.146      152.27339      24803.048      545.64067      16358.55       1.3166812      0.8122136    
      8400  -10042.156     -10194.952      152.79533      29539.848      547.51095      16300.795      1.3213464      0.8122136    
      8500  -10040.228     -10198.394      158.16543      29212.794      566.75361      16235.664      1.3266471      0.8122136    
      8600  -10039.965     -10195.037      155.07243      32159.241      555.67045      16178.047      1.3313719      0.8122136    
      8700  -10037.674     -10196.143      158.46934      33302.411      567.84258      16141.867      1.3343559      0.8122136    
      8800  -10041.384     -10200.11       158.72589      34353.798      568.76189      16131.379      1.3352235      0.8122136    
      8900  -10040.416     -10195.493      155.07678      31260.12       555.68606      16151.755      1.3335391      0.8122136    
      9000  -10042.121     -10197.455      155.33389      32602.868      556.60735      16198.321      1.3297055      0.91623442   
      9100  -10039.245     -10192.59       153.3455       30379.273      549.48234      16263.152      1.3244048      0.91623442   
      9200  -10041.012     -10195.472      154.46044      30855.947      553.47751      16337.752      1.3183574      0.91623442   
      9300  -10046.005     -10198.994      152.98928      28495.22       548.20591      16399.931      1.3133589      0.91623442   
      9400  -10043.867     -10202.91       159.04353      27264.883      569.9001       16436.659      1.3104243      0.91623442   
      9500  -10043.934     -10198.866      154.93161      25932.3        555.16584      16449.942      1.3093661      0.91623442   
      9600  -10043.447     -10196.359      152.91245      26254.893      547.93063      16447.512      1.3095595      0.91623442   
      9700  -10041.188     -10196.04       154.85218      30430.461      554.88123      16433.21       1.3106993      0.91623442   
      9800  -10040.415     -10197.972      157.55639      32212.633      564.57122      16401.499      1.3132334      0.91623442   
      9900  -10039.71      -10199.203      159.49295      26612.447      571.51051      16355.072      1.3169613      0.91623442   
     10000  -10039.647     -10197.812      158.16444      30972.538      566.75005      16302.344      1.3212208      0.73374066   
     10100  -10040.034     -10197.468      157.43365      31054.733      564.13142      16252.952      1.3252359      0.73374066   
     10200  -10035.385     -10192.048      156.66269      32938.342      561.36883      16214.592      1.3283712      0.73374066   
     10300  -10036.472     -10196.848      160.3764       30310.987      574.67614      16197.271      1.3297917      0.73374066   
     10400  -10038.464     -10192.044      153.58014      33112.878      550.32315      16199.45       1.3296129      0.73374066   
     10500  -10036.889     -10194.581      157.6913       33982.082      565.05465      16222.376      1.3277337      0.73374066   
     10600  -10037.438     -10189.841      152.40352      32973.736      546.10695      16261.687      1.3245241      0.73374066   
     10700  -10038.858     -10197.729      158.87157      31599.033      569.2839       16312.776      1.3203759      0.73374066   
     10800  -10037.096     -10196.622      159.52558      33333.087      571.62743      16366.389      1.3160506      0.73374066   
     10900  -10039.628     -10193.718      154.09022      31416.291      552.15093      16416.202      1.3120572      0.73374066   
     11000  -10038.137     -10194.652      156.51471      31373.128      560.83858      16460.277      1.308544       0.73406167   
     11100  -10043.491     -10202.129      158.63812      23101.407      568.4474       16487.667      1.3063702      0.73406167   
     11200  -10044.152     -10195.803      151.65101      28224.952      543.4105       16483.766      1.3066793      0.73406167   
     11300  -10041.522     -10196.371      154.84901      24947.275      554.86988      16462.247      1.3083874      0.73406167   
     11400  -10039.392     -10196.145      156.75272      29185.917      561.69145      16432.072      1.31079        0.73406167   
     11500  -10034.643     -10194.04       159.39708      29369.519      571.16696      16393.616      1.3138649      0.73406167   
     11600  -10035.037     -10194.194      159.15738      27431.628      570.30806      16350.449      1.3173337      0.73406167   
     11700  -10033.204     -10191.902      158.69792      28959.125      568.66167      16304.793      1.3210224      0.73406167   
     11800  -10037.762     -10195.739      157.97694      29661.1        566.0782       16263.508      1.3243758      0.73406167   
     11900  -10038.93      -10194.388      155.45772      32435.996      557.05108      16232.679      1.3268911      0.73406167   
     12000  -10041.307     -10198.53       157.22285      30815.568      563.37604      16217.145      1.3281621      0.69753087   
     12100  -10042.046     -10197.844      155.79832      29282.001      558.27153      16213.059      1.3284967      0.69753087   
     12200  -10041.058     -10195.234      154.17602      31589.881      552.45834      16218.27       1.3280699      0.69753087   
     12300  -10038.83      -10196.953      158.12382      27414.585      566.60451      16237.751      1.3264766      0.69753087   
     12400  -10036.733     -10193.733      156.99932      27882.702      562.57508      16267.898      1.3240184      0.69753087   
     12500  -10042.499     -10194.019      151.51993      33423.405      542.9408       16302.8        1.3211839      0.69753087   
     12600  -10043.348     -10200.405      157.05699      28425.063      562.78172      16336.635      1.3184475      0.69753087   
     12700  -10048.017     -10197.769      149.75212      29503.394      536.60623      16366.981      1.316003       0.69753087   
     12800  -10053.581     -10202.565      148.98381      28208.237      533.85315      16387.55       1.3143512      0.69753087   
     12900  -10054.829     -10207.579      152.74976      29641.49       547.34766      16393.428      1.31388        0.69753087   
     13000  -10053.252     -10205.199      151.94701      29194.646      544.47116      16385.375      1.3145257      0.69864009   
     13100  -10056.368     -10205.253      148.88501      28025.857      533.49909      16364.602      1.3161943      0.69864009   
     13200  -10051.387     -10202.394      151.00693      29668.666      541.10257      16328.814      1.319079       0.69864009   
     13300  -10048.504     -10202.944      154.44081      29347.435      553.40719      16282.617      1.3228215      0.69864009   
     13400  -10048.127     -10200.214      152.08631      29960.768      544.97029      16235.604      1.326652       0.69864009   
     13500  -10045.16      -10196.276      151.11614      33364.709      541.4939       16202.968      1.3293241      0.69864009   
     13600  -10047.665     -10202.756      155.0907       32998.084      555.73594      16195.814      1.3299113      0.69864009   
     13700  -10047.994     -10201.288      153.29419      31058.878      549.29851      16211.334      1.3286381      0.69864009   
     13800  -10045.897     -10203.417      157.51945      34390.886      564.43886      16252.765      1.3252512      0.69864009   
     13900  -10042.637     -10203.305      160.66751      32997.605      575.71928      16315.633      1.3201447      0.69864009   
     14000  -10043.662     -10197.839      154.17709      29471.426      552.46221      16390.987      1.3140756      0.85457635   
     14100  -10040.486     -10196.189      155.70289      29788.631      557.9296       16469.216      1.3078338      0.85457635   
     14200  -10039.977     -10196.217      156.23991      27533.816      559.85389      16532.949      1.3027922      0.85457635   
     14300  -10038.044     -10197.874      159.8301       27235.265      572.71859      16574.364      1.2995368      0.85457635   
     14400  -10041.171     -10196.706      155.53452      29229.788      557.32628      16594.931      1.2979263      0.85457635   
     14500  -10042.194     -10200.377      158.18339      28794.025      566.81795      16594.91       1.2979279      0.85457635   
     14600  -10042.252     -10195.292      153.03998      28312.936      548.38759      16571.971      1.2997245      0.85457635   
     14700  -10040.138     -10197.888      157.75012      30835.658      565.26543      16533.395      1.302757       0.85457635   
     14800  -10045.253     -10202.825      157.57236      29323.32       564.62844      16479.418      1.3070241      0.85457635   
     14900  -10043.338     -10196.952      153.61348      26655.463      550.44261      16411.396      1.3124414      0.85457635   
     15000  -10042.554     -10199.845      157.29146      27742.502      563.6219       16338.717      1.3182796      0.81274853   
     15100  -10037.302     -10195.162      157.85976      30608.128      565.65828      16272.813      1.3236185      0.81274853   
     15200  -10041.018     -10199.316      158.29817      31130.37       567.22924      16227.969      1.3272762      0.81274853   
     15300  -10038.195     -10196.808      158.61285      36008.987      568.35682      16199.902      1.3295757      0.81274853   
     15400  -10034.072     -10194.326      160.25417      34344.202      574.23816      16199.017      1.3296484      0.81274853   
     15500  -10034.843     -10197.029      162.18677      32414.436      581.16324      16226.879      1.3273653      0.81274853   
     15600  -10038.344     -10196.363      158.01883      31414.915      566.2283       16278.742      1.3231365      0.81274853   
     15700  -10039.543     -10199.231      159.68773      29764.499      572.20846      16343.245      1.3179143      0.81274853   
     15800  -10043.837     -10204.812      160.97551      29368.636      576.82296      16409.826      1.312567       0.81274853   
     15900  -10041.331     -10196.398      155.06732      29661.701      555.65215      16458.938      1.3086505      0.81274853   
     16000  -10039.644     -10195.055      155.41093      27300.057      556.88339      16491.844      1.3060393      0.87130047   
     16100  -10039.096     -10199.845      160.74836      26242.267      576.00901      16506.45       1.3048837      0.87130047   
     16200  -10040.827     -10201.294      160.46672      27040.932      574.9998       16491.015      1.306105       0.87130047   
     16300  -10041.551     -10195.183      153.63185      30390.046      550.50845      16453.092      1.3091154      0.87130047   
     16400  -10039.157     -10198.858      159.70059      30153.638      572.25455      16405.755      1.3128927      0.87130047   
     16500  -10038.263     -10198.917      160.65372      31034.752      575.66987      16357.66       1.3167529      0.87130047   
     16600  -10035.235     -10195.98       160.74533      30589.202      575.99815      16313.523      1.3203155      0.87130047   
     16700  -10032.692     -10193.509      160.81694      31918.847      576.25474      16278.499      1.3231562      0.87130047   
     16800  -10033.769     -10196.147      162.37821      30931.434      581.84925      16258.554      1.3247794      0.87130047   
     16900  -10038.87      -10195.688      156.81788      31776.707      561.92492      16257.878      1.3248344      0.87130047   
     17000  -10035.537     -10193.503      157.96657      30412.115      566.04103      16278.072      1.3231909      0.70604036   
     17100  -10034.744     -10189.956      155.21117      30164.427      556.16761      16314.128      1.3202665      0.70604036   
     17200  -10035.269     -10191.275      156.00616      31004.051      559.0163       16359.777      1.3165825      0.70604036   
     17300  -10039.067     -10200.806      161.73862      32352.072      579.55741      16409.577      1.312587       0.70604036   
     17400  -10042.948     -10196.984      154.03626      29195.316      551.95757      16454.277      1.3090212      0.70604036   
     17500  -10049.026     -10198.777      149.75113      27824.656      536.60266      16489.622      1.3062153      0.70604036   
     17600  -10046.051     -10198.601      152.55013      29394.84       546.63233      16498.821      1.305487       0.70604036   
     17700  -10043.32      -10200.971      157.65059      27525.848      564.90877      16482.548      1.3067759      0.70604036   
     17800  -10044.281     -10200.16       155.87882      27550.091      558.56001      16444.598      1.3097916      0.70604036   
     17900  -10041.047     -10197.004      155.95622      29615.775      558.83736      16388.776      1.3142529      0.70604036   
     18000  -10037.552     -10195.945      158.39279      31404.531      567.5683       16326.926      1.3192316      0.80431893   
     18100  -10042.798     -10196.049      153.25112      33547.947      549.14418      16272.629      1.3236334      0.80431893   
     18200  -10041.358     -10198.389      157.03035      28525.553      562.68628      16231.278      1.3270056      0.80431893   
     18300  -10038.545     -10196.612      158.06711      30546.038      566.40128      16208.467      1.3288731      0.80431893   
     18400  -10039.63      -10198.612      158.98221      30687.847      569.68035      16216.97       1.3281764      0.80431893   
     18500  -10041.801     -10195.124      153.32301      31995.726      549.40175      16253.928      1.3251564      0.80431893   
     18600  -10043.105     -10197.334      154.2291       31487.74       552.64856      16310.53       1.3205577      0.80431893   
     18700  -10045.027     -10199.275      154.24796      27360.271      552.71613      16373.996      1.3154392      0.80431893   
     18800  -10044.505     -10200.98       156.47494      28606.524      560.69607      16427.463      1.3111578      0.80431893   
     18900  -10039.739     -10199.206      159.46704      29541.061      571.41764      16462.669      1.3083539      0.80431893   
     19000  -10043.769     -10202.339      158.56953      29162.231      568.20161      16480.397      1.3069464      0.9930083    
     19100  -10043.456     -10197.386      153.92966      27689.975      551.57558      16475.482      1.3073364      0.9930083    
     19200  -10043.981     -10194.257      150.27656      27667.924      538.48544      16449.322      1.3094154      0.9930083    
     19300  -10046.845     -10200.049      153.20339      27629.364      548.97314      16408.381      1.3126826      0.9930083    
     19400  -10042.275     -10194.097      151.82201      31643.986      544.02323      16357.799      1.3167418      0.9930083    
     19500  -10037.667     -10195.504      157.83737      31661.588      565.57807      16311.199      1.3205035      0.9930083    
     19600  -10040.9       -10196.905      156.00483      30383.537      559.01152      16286.369      1.3225168      0.9930083    
     19700  -10042.626     -10197.197      154.57124      32386.232      553.87456      16277.759      1.3232164      0.9930083    
     19800  -10039.17      -10195.958      156.78761      30543.126      561.81645      16284.113      1.3227         0.9930083    
     19900  -10039.169     -10193.778      154.60901      28227.81       554.0099       16310.833      1.3205332      0.9930083    
     20000  -10042.807     -10197.965      155.15793      32811.173      555.97682      16354.68       1.3169929      0.74639436   
     20100  -10044.81      -10196.197      151.38717      31354.466      542.46508      16408.775      1.3126511      0.74639436   
     20200  -10045.255     -10200.869      155.61395      26476.045      557.61089      16465.42       1.3081353      0.74639436   
     20300  -10042.677     -10196.447      153.7702       25237.769      551.0042       16513.054      1.3043618      0.74639436   
     20400  -10041.649     -10196.241      154.59195      30881.428      553.94876      16548.425      1.3015738      0.74639436   
     20500  -10041.545     -10200.943      159.39767      28699.622      571.16908      16568.367      1.3000072      0.74639436   
     20600  -10043.229     -10198.625      155.39534      29707.727      556.82754      16567.543      1.3000719      0.74639436   
     20700  -10042.586     -10197.667      155.08111      30991.237      555.70157      16544.731      1.3018644      0.74639436   
     20800  -10035.078     -10194.426      159.34855      32277.448      570.99307      16498.022      1.3055502      0.74639436   
     20900  -10033.483     -10191.253      157.77052      28459.317      565.33851      16437.869      1.3103278      0.74639436   
     21000  -10034.205     -10195.514      161.30975      30867.563      578.02061      16374.869      1.3153691      0.84874377   
     21100  -10036.417     -10196.672      160.25588      29549.696      574.24431      16315.224      1.3201778      0.84874377   
     21200  -10036.368     -10193.337      156.96969      30370.977      562.46891      16272.379      1.3236538      0.84874377   
     21300  -10036.079     -10197.761      161.68214      31160.38       579.35502      16245.105      1.3258761      0.84874377   
     21400  -10030.973     -10190.312      159.33958      35761.026      570.96092      16235.685      1.3266454      0.84874377   
     21500  -10033.16      -10191.002      157.84166      32014.1        565.59342      16253.268      1.3252102      0.84874377   
     21600  -10037.262     -10198.698      161.43639      34692.341      578.47442      16299.768      1.3214296      0.84874377   
     21700  -10039.401     -10197.252      157.85123      29081.27       565.62773      16360.294      1.3165409      0.84874377   
     21800  -10038.347     -10195.461      157.11415      30223.843      562.98655      16422.343      1.3115666      0.84874377   
     21900  -10040.531     -10196.197      155.66566      25931.699      557.79618      16478.855      1.3070688      0.84874377   
     22000  -10043.644     -10196.484      152.83998      27734.299      547.67093      16514.568      1.3042422      0.81092011   
     22100  -10044.225     -10199.318      155.09308      27285.786      555.74444      16520.013      1.3038124      0.81092011   
     22200  -10042.89      -10199.68       156.79004      28721.726      561.82517      16495.978      1.305712       0.81092011   
     22300  -10041.897     -10197.236      155.33922      26579.651      556.62645      16450.648      1.3093099      0.81092011   
     22400  -10039.204     -10197.673      158.46981      29560.246      567.84428      16399.81       1.3133687      0.81092011   
     22500  -10038.689     -10196.183      157.49354      31249.656      564.346        16356.075      1.3168805      0.81092011   
     22600  -10039.319     -10193.641      154.32237      32014.553      552.98279      16325.786      1.3193237      0.81092011   
     22700  -10036.886     -10196.508      159.62166      30913.381      571.97171      16316.396      1.320083       0.81092011   
     22800  -10039.338     -10193.904      154.56555      34375.672      553.85416      16322.758      1.3195684      0.81092011   
     22900  -10039.67      -10198.492      158.82224      28718.16       569.10714      16338.692      1.3182816      0.81092011   
     23000  -10035.485     -10196.582      161.09628      29534.914      577.25569      16354.957      1.3169705      0.79669199   
     23100  -10034.706     -10195.02       160.3137       29722.301      574.45149      16376.707      1.3152215      0.79669199   
     23200  -10032.054     -10191.067      159.01386      31160.547      569.79377      16400.69       1.3132982      0.79669199   
     23300  -10034.811     -10192.067      157.25551      26599.369      563.49308      16419.894      1.3117623      0.79669199   
     23400  -10036.82      -10195.106      158.28604      29278.187      567.18576      16431.216      1.3108583      0.79669199   
     23500  -10036.613     -10195.629      159.01587      29438.973      569.80096      16433.407      1.3106835      0.79669199   
     23600  -10033.486     -10193.827      160.34058      28688.451      574.54779      16431.269      1.3108541      0.79669199   
     23700  -10034.521     -10192.115      157.59356      25628.362      564.70443      16423.843      1.3114468      0.79669199   
     23800  -10035.345     -10192.77       157.42545      31224.347      564.10203      16411.173      1.3124593      0.79669199   
     23900  -10033.316     -10194.027      160.7107       32804.649      575.87404      16395.214      1.3137368      0.79669199   
     24000  -10034.724     -10195.542      160.81844      30499.314      576.26011      16376.871      1.3152083      0.74215893   
     24100  -10035.595     -10196.785      161.19026      31777.472      577.59247      16365.23       1.3161439      0.74215893   
     24200  -10035.104     -10192.149      157.04439      30155.632      562.73657      16357.41       1.316773       0.74215893   
     24300  -10034.437     -10196.526      162.089        28896.069      580.8129       16353.731      1.3170693      0.74215893   
     24400  -10037.984     -10192.123      154.13985      30021.56       552.32875      16354.964      1.31697        0.74215893   
     24500  -10042.646     -10200.076      157.4306       28777.266      564.12048      16357.347      1.3167781      0.74215893   
     24600  -10041.424     -10196.374      154.95004      29906.256      555.2319       16359.718      1.3165872      0.74215893   
     24700  -10046.666     -10198.457      151.79069      30276.283      543.91103      16368.886      1.3158499      0.74215893   
     24800  -10046.162     -10197.541      151.37915      28241.543      542.43636      16380.206      1.3149405      0.74215893   
     24900  -10046.232     -10202.853      156.62037      28322.526      561.21718      16383.896      1.3146444      0.74215893   
     25000  -10044.471     -10201.675      157.20443      30930.847      563.31006      16375.36       1.3153296      0.71321028   
     25100  -10043.141     -10198.383      155.24161      29360.589      556.27669      16363.952      1.3162466      0.71321028   
     25200  -10039.712     -10201.921      162.20937      35695.825      581.24425      16356.678      1.316832       0.71321028   
     25300  -10038.659     -10198.564      159.90511      30947.818      572.98738      16353.623      1.317078       0.71321028   
     25400  -10039.354     -10198.402      159.04803      33501.073      569.91622      16353.341      1.3171007      0.71321028   
     25500  -10042.622     -10197.924      155.30215      28368.647      556.4936       16357.768      1.3167443      0.71321028   
     25600  -10044.704     -10199.205      154.50112      26955.257      553.62328      16368.541      1.3158776      0.71321028   
     25700  -10046.832     -10203.112      156.27977      28716.727      559.99671      16381.631      1.3148262      0.71321028   
     25800  -10044.12      -10201.519      157.3989       29320.8        564.0069       16398.01       1.3135128      0.71321028   
     25900  -10046.202     -10201.132      154.93028      29339.002      555.16111      16417.257      1.3119729      0.71321028   
     26000  -10047.36      -10204.029      156.66977      28271.368      561.3942       16434.73       1.310578       0.74079509   
     26100  -10050.098     -10198.237      148.13885      30659.733      530.82541      16444.727      1.3097814      0.74079509   
     26200  -10047.44      -10203.02       155.58024      30812.767      557.4901       16446.028      1.3096777      0.74079509   
     26300  -10044.211     -10200.051      155.84017      28254.944      558.42149      16434.518      1.3105949      0.74079509   
     26400  -10043.561     -10198.17       154.60878      29674.549      554.00908      16411.888      1.3124021      0.74079509   
     26500  -10043.558     -10202.813      159.25538      28576.549      570.6592       16379.604      1.3149888      0.74079509   
     26600  -10045.381     -10201.99       156.60874      32383.907      561.17552      16336.657      1.3184458      0.74079509   
     26700  -10046.595     -10203.648      157.05302      32108.543      562.76749      16293.795      1.3219141      0.74079509   
     26800  -10043.94      -10200.281      156.34084      31015.463      560.21554      16259.464      1.3247052      0.74079509   
     26900  -10040.285     -10198.151      157.8656       33080.023      565.67923      16236.616      1.3265693      0.74079509   
     27000  -10039.957     -10197.887      157.93027      30461.004      565.91095      16237.021      1.3265363      0.72603334   
     27100  -10039.808     -10198.025      158.21638      30465.203      566.93618      16260.796      1.3245967      0.72603334   
     27200  -10046.566     -10197.429      150.86325      30145.504      540.58772      16295.966      1.3217379      0.72603334   
     27300  -10045.15      -10200.637      155.48681      28193.434      557.15529      16332.003      1.3188215      0.72603334   
     27400  -10048.18      -10203.108      154.92782      31020.564      555.15228      16362.476      1.3163654      0.72603334   
     27500  -10051.849     -10205.387      153.53773      26391.039      550.17118      16386.729      1.3144171      0.72603334   
     27600  -10048.936     -10201.319      152.38336      27316.005      546.03472      16401.341      1.313246       0.72603334   
     27700  -10046.818     -10201.119      154.3002       27842.041      552.90334      16399.839      1.3133663      0.72603334   
     27800  -10044.938     -10201.981      157.0426       30672.791      562.73015      16384.466      1.3145986      0.72603334   
     27900  -10037.934     -10191.729      153.79465      30157.934      551.09181      16361.322      1.3164582      0.72603334   
     28000  -10039.202     -10195.962      156.75979      28617.308      561.71678      16344.564      1.317808       0.80752027   
     28100  -10041.722     -10197.612      155.88952      30262.763      558.59834      16331.546      1.3188584      0.80752027   
     28200  -10040.91      -10197.917      157.00652      29623.901      562.6009       16318.639      1.3199015      0.80752027   
     28300  -10042.174     -10196.905      154.73099      33086.593      554.44698      16307.76       1.320782       0.80752027   
     28400  -10041.978     -10198.009      156.0306       32670.144      559.10387      16304.403      1.321054       0.80752027   
     28500  -10040.144     -10200.099      159.95537      30607.23       573.16748      16307.7        1.3207869      0.80752027   
     28600  -10039.305     -10201.051      161.74616      27799.821      579.58441      16317.398      1.3200019      0.80752027   
     28700  -10043.169     -10195.765      152.59626      29651.787      546.79761      16333.557      1.318696       0.80752027   
     28800  -10042.704     -10201.732      159.02782      29085.377      569.84378      16358.403      1.3166931      0.80752027   
     28900  -10038.435     -10195.994      157.55861      29359.478      564.57917      16390.607      1.3141061      0.80752027   
     29000  -10038.728     -10191.755      153.02666      29592.715      548.33985      16425.827      1.3112884      0.79626897   
     29100  -10037.122     -10193.126      156.00449      30181.862      559.0103       16461.624      1.3084369      0.79626897   
     29200  -10035.361     -10196.921      161.55961      28953.418      578.91595      16491.083      1.3060995      0.79626897   
     29300  -10030.889     -10187.917      157.028        28944.431      562.67785      16508.308      1.3047368      0.79626897   
     29400  -10034.764     -10192.953      158.18846      29532.395      566.83611      16514.108      1.3042785      0.79626897   
     29500  -10034.158     -10191.615      157.45723      29085.129      564.2159       16505.085      1.3049916      0.79626897   
     29600  -10042.016     -10195.679      153.66232      28888.649      550.6176       16482.419      1.3067861      0.79626897   
     29700  -10039.658     -10193.709      154.05175      27999.61       552.01307      16449.584      1.3093946      0.79626897   
     29800  -10040.368     -10196.334      155.96604      30627.741      558.87252      16413.911      1.3122404      0.79626897   
     29900  -10040.355     -10198.467      158.11211      30055.799      566.56253      16379.118      1.3150278      0.79626897   
     30000  -10039.342     -10196.384      157.04128      29300.747      562.72544      16343.687      1.3178787      0.72598145   
     30100  -10038.215     -10195.602      157.38664      29970.563      563.96294      16310.081      1.3205941      0.72598145   
     30200  -10036.278     -10194.844      158.56624      31136.199      568.18982      16283.239      1.322771       0.72598145   
     30300  -10037.762     -10191.506      153.74438      30901.119      550.91165      16266.412      1.3241394      0.72598145   
     30400  -10033.926     -10191.295      157.36926      33925.692      563.90069      16269.127      1.3239184      0.72598145   
     30500  -10038.851     -10194.027      155.17671      28505.253      556.04413      16290.628      1.322171       0.72598145   
     30600  -10039.105     -10195.121      156.01606      30243.545      559.05176      16324.762      1.3194065      0.72598145   
     30700  -10041.071     -10199.86       158.78914      27644.584      568.98852      16358.999      1.3166451      0.72598145   
     30800  -10040.655     -10199.128      158.47287      32364.498      567.85525      16384.161      1.3146231      0.72598145   
     30900  -10041.876     -10196.236      154.35966      32650.851      553.11639      16404.433      1.3129985      0.72598145   
     31000  -10044.708     -10202.204      157.49572      27950.982      564.35383      16427.928      1.3111207      0.72037191   
     31100  -10043.604     -10204.283      160.67812      26114.09       575.75732      16441.447      1.3100426      0.72037191   
     31200  -10043.308     -10197.961      154.65247      28929.993      554.16561      16440.328      1.3101318      0.72037191   
     31300  -10044.716     -10198.696      153.97957      27867.327      551.75443      16428.188      1.3111         0.72037191   
     31400  -10043.71      -10198.093      154.38325      30659.126      553.20092      16399.238      1.3134145      0.72037191   
     31500  -10046.442     -10202.462      156.01969      32287.587      559.06478      16358.751      1.3166651      0.72037191   
     31600  -10047.351     -10200.5        153.14893      32140.665      548.77798      16313.141      1.3203464      0.72037191   
     31700  -10047.405     -10204.925      157.51997      30461.17       564.44074      16269.387      1.3238972      0.72037191   
     31800  -10045.645     -10199.763      154.11894      29632.493      552.25383      16229.623      1.3271409      0.72037191   
     31900  -10043.932     -10199.976      156.04368      30771.683      559.15073      16206.256      1.3290544      0.72037191   
     32000  -10044.962     -10200.003      155.04164      33796.245      555.56012      16201.36       1.3294561      0.74051768   
     32100  -10044.126     -10198.963      154.83773      30247.146      554.82947      16218.268      1.3280701      0.74051768   
     32200  -10042.95      -10197.823      154.87309      28352.919      554.95616      16258.139      1.3248131      0.74051768   
     32300  -10041.021     -10200.525      159.50412      33444.497      571.5505       16310.6        1.320552       0.74051768   
     32400  -10037.289     -10196.795      159.50593      27045.71       571.55701      16365.405      1.3161298      0.74051768   
     32500  -10043.446     -10199.123      155.67688      27231.963      557.8364       16413.827      1.3122471      0.74051768   
     32600  -10045.225     -10198.077      152.85175      27396.454      547.71311      16449.623      1.3093915      0.74051768   
     32700  -10045.49      -10200.142      154.65204      25930.013      554.16409      16466.487      1.3080505      0.74051768   
     32800  -10044.425     -10199.357      154.93142      30483.045      555.16518      16461.264      1.3084655      0.74051768   
     32900  -10043.363     -10202.006      158.64317      28548.957      568.4655       16436.153      1.3104646      0.74051768   
     33000  -10043.873     -10198.571      154.69842      27668.418      554.33026      16393.385      1.3138834      0.84656454   
     33100  -10044.307     -10200.037      155.73038      29595.735      558.02811      16340.032      1.3181734      0.84656454   
     33200  -10042.923     -10199.996      157.07302      29119.963      562.83916      16284.16       1.3226962      0.84656454   
     33300  -10044.631     -10197.132      152.50139      32937.235      546.45765      16237.367      1.326508       0.84656454   
     33400  -10045.435     -10198.705      153.27017      33158.635      549.21245      16213.509      1.3284599      0.84656454   
     33500  -10042.779     -10197.769      154.98983      34355.173      555.37447      16215.887      1.3282651      0.84656454   
     33600  -10039.4       -10198.103      158.70264      33986.561      568.67859      16243.767      1.3259853      0.84656454   
     33700  -10045.34      -10202.121      156.78104      30756.601      561.79292      16291.858      1.3220712      0.84656454   
     33800  -10049.545     -10204.36       154.81527      30461.708      554.749        16350.067      1.3173644      0.84656454   
     33900  -10051.589     -10202.04       150.45098      30090.808      539.11044      16407.492      1.3127538      0.84656454   
     34000  -10044.717     -10202.86       158.1425       27381.813      566.67143      16452.696      1.3091469      0.71945454   
     34100  -10046.321     -10205.459      159.13748      25232.135      570.23675      16473.164      1.3075203      0.71945454   
     34200  -10048.03      -10199.14       151.10948      28563.611      541.47005      16464.01       1.3082473      0.71945454   
     34300  -10043.96      -10196.149      152.18932      27834.653      545.33941      16430.21       1.3109386      0.71945454   
     34400  -10042.085     -10195.722      153.6366       28060.315      550.52546      16379.822      1.3149713      0.71945454   
     34500  -10042.766     -10196.729      153.96327      31431.759      551.69603      16328.087      1.3191378      0.71945454   
     34600  -10038.917     -10197.544      158.6276       30593.598      568.40967      16285.062      1.322623       0.71945454   
     34700  -10036.686     -10191.009      154.32251      29904.472      552.98326      16260.275      1.3246391      0.71945454   
     34800  -10032.666     -10189.395      156.72865      29284.427      561.60519      16260.629      1.3246103      0.71945454   
     34900  -10031.751     -10187.683      155.93247      30170.158      558.75223      16283.626      1.3227396      0.71945454   
     35000  -10033.629     -10195.494      161.86432      28546.599      580.0078       16320.104      1.319783       0.74571897   
     35100  -10034.075     -10190.788      156.71315      29102.471      561.54964      16359.425      1.3166109      0.74571897   
     35200  -10037.049     -10195.078      158.02897      28873.473      566.2646       16399.401      1.3134015      0.74571897   
     35300  -10042.158     -10197.633      155.47508      30457.089      557.11326      16433.444      1.3106806      0.74571897   
     35400  -10038.244     -10194.876      156.63271      29197.27       561.2614       16452.61       1.3091538      0.74571897   
     35500  -10034.649     -10196.534      161.88506      30258.04       580.08212      16463.358      1.3082991      0.74571897   
     35600  -10040.518     -10198.775      158.25657      23814.274      567.08018      16462.974      1.3083296      0.74571897   
     35700  -10037.112     -10199.069      161.95689      31693.036      580.33952      16451.683      1.3092275      0.74571897   
     35800  -10036.165     -10192.537      156.37182      30382.617      560.32657      16429.711      1.3109784      0.74571897   
     35900  -10031.309     -10190.131      158.82191      29639.107      569.10595      16407.847      1.3127254      0.74571897   
     36000  -10031.874     -10192.212      160.33852      31067.902      574.54041      16394.441      1.3137988      0.70103097   
     36100  -10037.197     -10192.871      155.67452      28455.295      557.82794      16385.219      1.3145382      0.70103097   
     36200  -10035.086     -10194.055      158.96878      35058.771      569.63225      16383.08       1.3147098      0.70103097   
     36300  -10037.56      -10197.459      159.89849      29613.654      572.96365      16389.047      1.3142312      0.70103097   
     36400  -10041.313     -10198.598      157.2852       31952.241      563.59947      16402.272      1.3131715      0.70103097   
     36500  -10042.863     -10196.486      153.62283      28494.817      550.4761       16416.247      1.3120536      0.70103097   
     36600  -10042.125     -10194.767      152.64255      32136.104      546.96348      16423.025      1.3115121      0.70103097   
     36700  -10034.741     -10196.402      161.66041      31436.921      579.27716      16427.837      1.3111279      0.70103097   
     36800  -10038.69      -10194.553      155.86322      27421.945      558.50411      16425.298      1.3113306      0.70103097   
     36900  -10039.018     -10200.557      161.5384       30659.291      578.83996      16416.833      1.3120068      0.70103097   
     37000  -10041.323     -10196.451      155.12794      34526.787      555.86936      16401.861      1.3132044      0.79547559   
     37100  -10042.171     -10198.235      156.06469      29644.852      559.22604      16387.143      1.3143839      0.79547559   
     37200  -10041.351     -10195.819      154.46883      29592.838      553.50758      16379.228      1.315019       0.79547559   
     37300  -10042.611     -10198.581      155.97052      28784.158      558.88859      16387.829      1.3143289      0.79547559   
     37400  -10046.843     -10198.644      151.80077      29204.805      543.94714      16398.688      1.3134585      0.79547559   
     37500  -10041.442     -10199.702      158.26021      29373.908      567.0932       16405.11       1.3129443      0.79547559   
     37600  -10043.12      -10194.456      151.3352       28817.816      542.27887      16406.948      1.3127973      0.79547559   
     37700  -10046.326     -10199.097      152.77113      27888.153      547.42421      16401.498      1.3132335      0.79547559   
     37800  -10045.211     -10197.165      151.95409      27538.257      544.49651      16382.231      1.314778       0.79547559   
     37900  -10044.615     -10195.955      151.33974      29315.842      542.29512      16350.516      1.3173283      0.79547559   
     38000  -10041.425     -10197.642      156.21732      32683.809      559.77294      16317.399      1.3200018      0.75262761   
     38100  -10041.767     -10199.913      158.14616      31923.967      566.68455      16285.756      1.3225665      0.75262761   
     38200  -10042.573     -10197.049      154.47581      29579.763      553.53261      16263.128      1.3244068      0.75262761   
     38300  -10042.175     -10196.056      153.88102      29612.971      551.4013       16255.014      1.3250679      0.75262761   
     38400  -10042.247     -10196.214      153.9676       32988.78       551.71152      16257.3        1.3248815      0.75262761   
     38500  -10044.649     -10198.987      154.33751      28530.909      553.03701      16266.159      1.32416        0.75262761   
     38600  -10047.472     -10197.289      149.81787      32489.452      536.84182      16281.505      1.3229119      0.75262761   
     38700  -10046.005     -10199.665      153.66         27843.512      550.60931      16303.674      1.3211131      0.75262761   
     38800  -10046.409     -10200.9        154.49109      27550.661      553.58735      16324.204      1.3194516      0.75262761   
     38900  -10044.142     -10198.388      154.24626      29913.983      552.71006      16340.2        1.3181599      0.75262761   
     39000  -10044.082     -10200.354      156.27179      30369.947      559.96813      16356.575      1.3168402      0.86349875   
     39100  -10043.817     -10198.868      155.05074      25929.752      555.59273      16371.193      1.3156645      0.86349875   
     39200  -10040.31      -10198.17       157.85982      28909.165      565.6585       16380.541      1.3149136      0.86349875   
     39300  -10040.925     -10196.054      155.12904      31832.906      555.87331      16395.891      1.3136826      0.86349875   
     39400  -10044.848     -10197.526      152.67758      31290.569      547.08902      16411.222      1.3124554      0.86349875   
     39500  -10042.015     -10198.487      156.47152      27895.755      560.68383      16417.339      1.3119663      0.86349875   
     39600  -10042.192     -10194.614      152.42211      29320.865      546.17359      16411.632      1.3124226      0.86349875   
     39700  -10045.191     -10199.573      154.3824       32202.14       553.1979       16396.665      1.3136206      0.86349875   
     39800  -10045.032     -10199.583      154.55037      27876.182      553.79978      16365.062      1.3161573      0.86349875   
     39900  -10043.931     -10201.973      158.04157      28601.574      566.30976      16321.7        1.319654       0.86349875   
     40000  -10043.131     -10194.575      151.4442       33048.997      542.66945      16270.345      1.3238193      0.85889766   
     40100  -10044.116     -10197.166      153.04938      30241.079      548.42128      16222.162      1.3277513      0.85889766   
     40200  -10040.997     -10198.363      157.36577      33920.49       563.88817      16182.662      1.3309921      0.85889766   
     40300  -10040.319     -10198.861      158.54221      31089.146      568.10372      16156.989      1.3331071      0.85889766   
     40400  -10039.552     -10192.81       153.25807      31781.562      549.16905      16146.023      1.3340125      0.85889766   
     40500  -10041.706     -10195.139      153.43319      30531.013      549.7966       16159.573      1.3328939      0.85889766   
     40600  -10037.918     -10193.876      155.95825      29557.986      558.84463      16198.247      1.3297116      0.85889766   
     40700  -10039.171     -10193.069      153.89766      31169.335      551.46091      16257.379      1.3248751      0.85889766   
     40800  -10041.516     -10196.417      154.90128      26155.491      555.05718      16322.39       1.3195982      0.85889766   
     40900  -10040.815     -10198.343      157.52779      27979.053      564.46875      16386.459      1.3144387      0.85889766   
     41000  -10038.309     -10198.68       160.3708       28537.675      574.65608      16441.732      1.3100199      0.71445852   
     41100  -10040.362     -10195.106      154.74317      30411.058      554.49062      16477.096      1.3072083      0.71445852   
     41200  -10035.772     -10197.361      161.58915      29779.861      579.02179      16491.887      1.3060359      0.71445852   
     41300  -10045.212     -10197.74       152.52789      29511.217      546.55263      16485.317      1.3065564      0.71445852   
     41400  -10043.56      -10197.424      153.86402      30696.815      551.34036      16463.271      1.308306       0.71445852   
     41500  -10044.311     -10198.063      153.75156      29453.43       550.93741      16430.768      1.3108941      0.71445852   
     41600  -10042.306     -10197.707      155.40166      31394.553      556.85019      16390.74       1.3140954      0.71445852   
     41700  -10037.256     -10193.455      156.19866      30828.902      559.70606      16354.778      1.3169849      0.71445852   
     41800  -10035.234     -10194.186      158.95207      30479.79       569.57234      16330.438      1.3189479      0.71445852   
     41900  -10037.075     -10191.294      154.21818      33276.12       552.60945      16318.171      1.3199394      0.71445852   
     42000  -10043.103     -10198.115      155.01257      30620.121      555.45598      16317.916      1.31996        0.72700097   
     42100  -10041.077     -10196.512      155.4357       31162.273      556.97216      16323.44       1.3195133      0.72700097   
     42200  -10039.924     -10196.369      156.44487      29376.367      560.5883       16332.887      1.3187501      0.72700097   
     42300  -10037.473     -10195.928      158.45475      30874.131      567.79031      16343.876      1.3178634      0.72700097   
     42400  -10039.589     -10196.172      156.5837       29440.447      561.08579      16358.18       1.3167111      0.72700097   
     42500  -10039.243     -10194.143      154.89975      29684.414      555.0517       16372.529      1.3155571      0.72700097   
     42600  -10040.073     -10199.679      159.60616      28454.714      571.91618      16388.555      1.3142706      0.72700097   
     42700  -10038.959     -10198.301      159.34162      26923.614      570.96825      16395.887      1.3136829      0.72700097   
     42800  -10036.638     -10193.844      157.20556      30876.663      563.31411      16389.338      1.3142078      0.72700097   
     42900  -10041.774     -10195.336      153.56238      32755.168      550.2595       16377.551      1.3151537      0.72700097   
     43000  -10042.962     -10199.445      156.48342      30377.079      560.72646      16366.465      1.3160445      0.75844579   
     43100  -10041.598     -10195.701      154.10309      30285.295      552.19702      16352.45       1.3171724      0.75844579   
     43200  -10039.486     -10196.85       157.36377      31485.093      563.88101      16339.893      1.3181847      0.75844579   
     43300  -10037.566     -10198.102      160.53567      30566.443      575.24687      16334.374      1.3186301      0.75844579   
     43400  -10041.043     -10198.591      157.54848      29467.757      564.5429       16335.762      1.318518       0.75844579   
     43500  -10041.786     -10200.532      158.74555      28901.082      568.83235      16341.789      1.3180317      0.75844579   
     43600  -10039.931     -10194.993      155.06212      29601.2        555.63351      16351.591      1.3172416      0.75844579   
     43700  -10039.911     -10195.712      155.80114      28764.887      558.28165      16363.651      1.3162709      0.75844579   
     43800  -10039.6       -10193.786      154.18602      29005.772      552.4942       16371.235      1.3156611      0.75844579   
     43900  -10037.773     -10194.337      156.5638       33052.373      561.01447      16372.164      1.3155864      0.75844579   
     44000  -10038.268     -10194.262      155.99448      34299.293      558.97444      16373.818      1.3154535      0.79760429   
     44100  -10039.307     -10194.963      155.65646      29637.26       557.76321      16384.566      1.3145906      0.79760429   
     44200  -10038.748     -10196.903      158.15533      29839.62       566.71739      16397.273      1.3135719      0.79760429   
     44300  -10041.683     -10198.885      157.20186      31742.813      563.30083      16403.54       1.31307        0.79760429   
     44400  -10042.751     -10197.713      154.96239      27827.92       555.27617      16403.126      1.3131031      0.79760429   
     44500  -10041.842     -10197.695      155.85303      32128.051      558.46757      16397.016      1.3135924      0.79760429   
     44600  -10036.89      -10198.083      161.19276      28039.976      577.60143      16391.773      1.3140126      0.79760429   
     44700  -10043.875     -10199.726      155.851        31035.507      558.46032      16390.72       1.314097       0.79760429   
     44800  -10045.546     -10196.871      151.32487      27288.701      542.24184      16390.063      1.3141497      0.79760429   
     44900  -10046.516     -10198.149      151.63274      27476.163      543.34504      16388.293      1.3142916      0.79760429   
     45000  -10045.205     -10202.314      157.10911      30921.563      562.9685       16384.497      1.3145962      0.72437728   
     45100  -10048.779     -10200.293      151.5141       30273.369      542.91993      16374.739      1.3153795      0.72437728   
     45200  -10043.271     -10197.8        154.52919      28506.812      553.72385      16358.235      1.3167066      0.72437728   
     45300  -10040.486     -10197          156.51401      29638.485      560.83606      16338.634      1.3182863      0.72437728   
     45400  -10041.301     -10198.432      157.13007      28761.692      563.04361      16324.797      1.3194036      0.72437728   
     45500  -10044.458     -10200.771      156.31305      29519.567      560.11595      16321.083      1.3197038      0.72437728   
     45600  -10045.521     -10199.277      153.7557       30174.284      550.95223      16322.541      1.319586       0.72437728   
     45700  -10044.674     -10195.92       151.24663      26179.308      541.96147      16332.833      1.3187544      0.72437728   
     45800  -10048.269     -10201.965      153.69698      31940.228      550.74183      16348.342      1.3175034      0.72437728   
     45900  -10043.977     -10201.775      157.79821      31027.796      565.43775      16370.811      1.3156951      0.72437728   
     46000  -10040.797     -10197.353      156.55612      29254.803      560.98697      16390.498      1.3141148      0.75929329   
     46100  -10041.902     -10200.635      158.7331       28587.012      568.78773      16407.807      1.3127286      0.75929329   
     46200  -10040.069     -10197.018      156.94938      29914.733      562.39614      16419.765      1.3117725      0.75929329   
     46300  -10035.73      -10195.541      159.81084      32910.299      572.64958      16426.606      1.3112262      0.75929329   
     46400  -10035.794     -10195.841      160.04743      28520.901      573.49734      16427.775      1.3111329      0.75929329   
     46500  -10037.119     -10193.75       156.63187      29554.494      561.2584       16429.015      1.311034       0.75929329   
     46600  -10035.64      -10194.628      158.98807      29644.283      569.70134      16428.687      1.3110601      0.75929329   
     46700  -10032.268     -10194.435      162.16702      30691.639      581.09248      16424.86       1.3113656      0.75929329   
     46800  -10033.647     -10194.094      160.44704      28656.66       574.92926      16415.281      1.3121309      0.75929329   
     46900  -10033.559     -10198.424      164.86566      30011.653      590.7625       16407.886      1.3127222      0.75929329   
     47000  -10039.149     -10196.501      157.35224      30532.605      563.83969      16393.465      1.313877       0.77742185   
     47100  -10040.343     -10201.439      161.09654      30770.159      577.25662      16375.77       1.3152967      0.77742185   
     47200  -10039.66      -10197.273      157.61359      30660.045      564.7762       16354.929      1.3169728      0.77742185   
     47300  -10041.189     -10194.881      153.69161      27494.884      550.72258      16336.497      1.3184587      0.77742185   
     47400  -10038.701     -10197.151      158.44992      29494.066      567.773        16322.8        1.319565       0.77742185   
     47500  -10037.152     -10200.237      163.08527      32617.496      584.38285      16313.022      1.320356       0.77742185   
     47600  -10032.082     -10194.315      162.23304      33480.514      581.32903      16311.258      1.3204988      0.77742185   
     47700  -10032.828     -10197.614      164.78628      34760.616      590.47807      16331.311      1.3188774      0.77742185   
     47800  -10037.707     -10192.739      155.03116      32059.876      555.52257      16373.637      1.315468       0.77742185   
     47900  -10043.273     -10200.562      157.28889      27746.855      563.61268      16426.838      1.3112077      0.77742185   
     48000  -10048.803     -10198.793      149.99026      28593.718      537.45953      16476.451      1.3072594      0.73975135   
     48100  -10049.378     -10199.405      150.02665      27202.305      537.58994      16515.991      1.3041298      0.73975135   
     48200  -10047.74      -10202.658      154.91884      27880.165      555.12009      16531.659      1.3028938      0.73975135   
     48300  -10048.035     -10202.32       154.2847       29623.637      552.84779      16516.259      1.3041087      0.73975135   
     48400  -10046.114     -10198.246      152.13167      30084.249      545.13285      16475.309      1.3073501      0.73975135   
     48500  -10042.074     -10197.166      155.09189      28823.909      555.74021      16419.439      1.3117985      0.73975135   
     48600  -10043.733     -10201.048      157.31595      29138.224      563.70965      16358.608      1.3166766      0.73975135   
     48700  -10040.551     -10199.447      158.89595      28758.61       569.37127      16300.973      1.321332       0.73975135   
     48800  -10042.177     -10198.488      156.31146      32110.525      560.11027      16256.035      1.3249846      0.73975135   
     48900  -10040.294     -10195.314      155.02039      32465.76       555.48398      16229.111      1.3271828      0.73975135   
     49000  -10037.819     -10196.339      158.51965      29769.481      568.02288      16230.015      1.3271089      0.84048725   
     49100  -10037.755     -10194.183      156.42868      34151.042      560.53032      16255.369      1.3250389      0.84048725   
     49200  -10040.789     -10197.192      156.40359      31866.469      560.44039      16301.325      1.3213035      0.84048725   
     49300  -10038.551     -10193.902      155.35139      30730.493      556.67005      16357.523      1.3167639      0.84048725   
     49400  -10036.189     -10192.353      156.16356      27677.67       559.58029      16421.645      1.3116223      0.84048725   
     49500  -10038.83      -10193.923      155.0933       32234.387      555.74524      16485.781      1.3065196      0.84048725   
     49600  -10035.198     -10195.018      159.81952      28909.308      572.68069      16539.042      1.3023122      0.84048725   
     49700  -10036.223     -10195.927      159.70378      27101.149      572.26595      16570.267      1.2998581      0.84048725   
     49800  -10036.71      -10192.546      155.83595      28302.709      558.40636      16574.88       1.2994963      0.84048725   
     49900  -10038.069     -10194.783      156.71361      26474.027      561.55129      16558.765      1.300761       0.84048725   
     50000  -10032.716     -10195.666      162.95043      28974.534      583.89968      16532.88       1.3027976      0.8866598    
     50100  -10036.276     -10192.909      156.63377      31515.401      561.2652       16506.703      1.3048636      0.8866598    
     50200  -10033.133     -10189.989      156.85567      29328.247      562.06033      16480.609      1.3069296      0.8866598    
     50300  -10035.808     -10191.932      156.12392      29843.905      559.43827      16458.714      1.3086683      0.8866598    
     50400  -10036.013     -10194.959      158.94574      28854.143      569.54967      16437.678      1.310343       0.8866598    
     50500  -10033.189     -10197.359      164.17078      23428.283      588.27253      16414.2        1.3122173      0.8866598    
     50600  -10035.24      -10190.919      155.67871      24803.685      557.84296      16390.42       1.3141211      0.8866598    
     50700  -10031.305     -10189.277      157.97266      31767.341      566.06286      16381.002      1.3148767      0.8866598    
     50800  -10034.581     -10193.603      159.02224      30904.132      569.8238       16390.981      1.3140761      0.8866598    
     50900  -10038.674     -10195.923      157.24943      28919.895      563.47129      16409.971      1.3125555      0.8866598    
     51000  -10039.644     -10199.359      159.71477      29779.058      572.30534      16435.777      1.3104946      0.83618247   
     51100  -10039.546     -10198.411      158.865        29437.261      569.26037      16467.187      1.3079949      0.83618247   
     51200  -10042.308     -10193.77       151.46146      28365.817      542.73128      16502.889      1.3051652      0.83618247   
     51300  -10045.132     -10199.389      154.25782      27849.282      552.75147      16533.505      1.3027483      0.83618247   
     51400  -10047.287     -10202.415      155.12789      25954.242      555.86919      16543.815      1.3019365      0.83618247   
     51500  -10050.021     -10201.435      151.41354      32147.907      542.55956      16530.698      1.3029695      0.83618247   
     51600  -10051.691     -10204.449      152.75787      30428.5        547.37672      16498.918      1.3054793      0.83618247   
     51700  -10051.958     -10203.44       151.4822       28331.473      542.80562      16449.997      1.3093617      0.83618247   
     51800  -10048.956     -10200.036      151.08046      27922.043      541.36607      16387.708      1.3143385      0.83618247   
     51900  -10046.175     -10198.045      151.86904      34492.449      544.19178      16325.473      1.319349       0.83618247   
     52000  -10043.267     -10197.81       154.5424       34078.548      553.77119      16277.197      1.323262       0.75831554   
     52100  -10040.751     -10197.724      156.97274      28196.652      562.47982      16253.214      1.3252146      0.75831554   
     52200  -10037.538     -10196.376      158.83824      29571.623      569.16447      16257.035      1.3249031      0.75831554   
     52300  -10043.141     -10196.607      153.46602      36007.753      549.91421      16295.64       1.3217644      0.75831554   
     52400  -10044.198     -10194.695      150.49647      29612.661      539.27343      16364.515      1.3162014      0.75831554   
     52500  -10046.475     -10198.807      152.33156      30981.668      545.84913      16441.545      1.3100348      0.75831554   
     52600  -10049.68      -10197.479      147.79926      28352.484      529.60855      16510.684      1.304549       0.75831554   
     52700  -10048.119     -10201.643      153.52344      28943.805      550.11999      16559.356      1.3007146      0.75831554   
     52800  -10048.057     -10199.207      151.14994      28952.246      541.61502      16585.725      1.2986466      0.75831554   
     52900  -10046.937     -10201.035      154.09767      29442.43       552.17762      16589.613      1.2983423      0.75831554   
     53000  -10048.75      -10196.568      147.81808      26154.019      529.67599      16562.336      1.3004806      0.75345098   
     53100  -10044.806     -10202.881      158.07492      26580.697      566.42927      16511.289      1.3045012      0.75345098   
     53200  -10044.196     -10197.933      153.73705      29381.666      550.8854       16442.461      1.3099618      0.75345098   
     53300  -10043.796     -10201.723      157.92675      30896.456      565.89834      16369.69       1.3157852      0.75345098   
     53400  -10041.386     -10199.845      158.45892      32225.677      567.80528      16306.302      1.3209002      0.75345098   
     53500  -10039.903     -10197.509      157.60597      30270.119      564.74888      16259.627      1.3246919      0.75345098   
     53600  -10040.299     -10195.436      155.13719      30327.608      555.90252      16237.058      1.3265332      0.75345098   
     53700  -10038.543     -10199.844      161.30175      31611.958      577.99196      16238.625      1.3264052      0.75345098   
     53800  -10040.512     -10196.294      155.7818       31224.857      558.21234      16256.7        1.3249304      0.75345098   
     53900  -10039.367     -10195.351      155.98404      29101.513      558.93704      16287.394      1.3224336      0.75345098   
     54000  -10039.956     -10195.14       155.18446      30331.3        556.07191      16331.412      1.3188692      0.8288032    
     54100  -10040.371     -10197.884      157.51326      28122.044      564.41666      16384.224      1.314618       0.8288032    
     54200  -10041.648     -10196.269      154.62143      27173.316      554.0544       16440.312      1.3101331      0.8288032    
     54300  -10042.953     -10197.83       154.87671      28102.148      554.96915      16491.881      1.3060364      0.8288032    
     54400  -10041.221     -10197.781      156.56052      28958.037      561.00272      16521.157      1.3037221      0.8288032    
     54500  -10040.262     -10196.45       156.18755      30338.653      559.66627      16525.469      1.3033819      0.8288032    
     54600  -10046.01      -10196.804      150.79411      25186.842      540.33999      16509.333      1.3046558      0.8288032    
     54700  -10045.625     -10196.788      151.16359      27297.034      541.66393      16470.545      1.3077282      0.8288032    
     54800  -10040.887     -10199.183      158.29571      24998.406      567.22042      16421.128      1.3116636      0.8288032    
     54900  -10042.454     -10199.129      156.67521      28484.876      561.41371      16368.548      1.3158771      0.8288032    
     55000  -10037.14      -10196.959      159.81928      29191.722      572.67983      16315.367      1.3201663      0.82059223   
     55100  -10035.371     -10194.39       159.0194       28996.265      569.81362      16275.386      1.3234092      0.82059223   
     55200  -10036.783     -10195.814      159.03097      33263.556      569.85509      16258.303      1.3247998      0.82059223   
     55300  -10036.008     -10192.993      156.98532      31012.167      562.52492      16265.712      1.3241964      0.82059223   
     55400  -10032.425     -10187.704      155.27835      32114.564      556.40835      16297.007      1.3216535      0.82059223   
     55500  -10036.613     -10192.83       156.21751      31396.139      559.77362      16347.488      1.3175722      0.82059223   
     55600  -10035.313     -10195.135      159.82147      30963.54       572.68766      16411.695      1.3124175      0.82059223   
     55700  -10036.492     -10194.499      158.00712      31487.25       566.18632      16475.786      1.3073122      0.82059223   
     55800  -10036.734     -10196.029      159.29526      30753.286      570.80212      16522.338      1.3036289      0.82059223   
     55900  -10035.415     -10194.361      158.94534      32092.661      569.54825      16543.06       1.3019959      0.82059223   
     56000  -10032.627     -10187.264      154.63657      27242.88       554.10866      16550.823      1.3013853      0.70840751   
     56100  -10030.285     -10194.613      164.32872      29943.735      588.83849      16554.797      1.3010728      0.70840751   
     56200  -10032.494     -10194.434      161.94064      30510.131      580.2813       16552.77       1.3012321      0.70840751   
     56300  -10035.562     -10194.023      158.461        30165.775      567.81273      16536.918      1.3024795      0.70840751   
     56400  -10036.446     -10190.736      154.29009      29479.287      552.86712      16507.025      1.3048381      0.70840751   
     56500  -10037.564     -10193.912      156.3478       29096.838      560.24048      16464.594      1.3082009      0.70840751   
     56600  -10036.165     -10191.7        155.5346       29107.782      557.32654      16416.129      1.3120631      0.70840751   
     56700  -10039.095     -10196.047      156.95208      32079.658      562.40581      16371.026      1.3156779      0.70840751   
     56800  -10035.164     -10190.859      155.69506      30685.29       557.90152      16325.431      1.3193524      0.70840751   
     56900  -10034.452     -10196.162      161.70916      31890.051      579.45183      16288.341      1.3223566      0.70840751   
[...]
   2186900  -10039.55      -10199.84       160.29001      26317.816      574.36659      16414.618      1.3121838      0.75624368   
   2187000  -10041.781     -10197.837      156.05559      30246.451      559.19343      16369.799      1.3157765      0.78642703   
   2187100  -10041.18      -10195.618      154.43849      31431.375      553.39886      16336.063      1.3184937      0.78642703   
   2187200  -10044.073     -10198.639      154.56548      32843.482      553.8539       16312.957      1.3203612      0.78642703   
   2187300  -10043.346     -10201.47       158.12393      31355.587      566.60488      16292.209      1.3220427      0.78642703   
   2187400  -10044.398     -10200.398      155.99914      29349.992      558.99112      16275.107      1.3234319      0.78642703   
   2187500  -10042.863     -10195.52       152.65713      33692.971      547.01572      16267.285      1.3240683      0.78642703   
   2187600  -10049.042     -10201.195      152.15307      30771.575      545.20952      16272.502      1.3236438      0.78642703   
   2187700  -10048.56      -10197.844      149.28433      29908.343      534.92998      16285.347      1.3225998      0.78642703   
   2187800  -10051.658     -10199.366      147.7078       29280.296      529.28082      16308.025      1.3207606      0.78642703   
   2187900  -10047.474     -10200.678      153.20391      28128.553      548.97499      16332.9        1.318749       0.78642703   
   2188000  -10047.479     -10203.123      155.64354      27178.328      557.71693      16357.419      1.3167723      0.77857925   
   2188100  -10046.263     -10199.956      153.69281      27387.535      550.72686      16377.262      1.3151769      0.77857925   
   2188200  -10048.528     -10200.576      152.04762      28763.643      544.83167      16392.94       1.313919       0.77857925   
   2188300  -10048.502     -10202.614      154.11284      32170.623      552.23198      16404.019      1.3130316      0.77857925   
   2188400  -10046.468     -10199.09       152.62188      26270.26       546.88942      16414.022      1.3122315      0.77857925   
   2188500  -10047.236     -10199.332      152.09582      27741.845      545.00438      16419.433      1.311799       0.77857925   
   2188600  -10046.918     -10199.036      152.11844      27406.299      545.08543      16418.142      1.3119022      0.77857925   
   2188700  -10043.4       -10199.423      156.02265      29336.479      559.07539      16409.887      1.3125621      0.77857925   
   2188800  -10038.525     -10195.55       157.02484      27868.929      562.66653      16397.651      1.3135416      0.77857925   
   2188900  -10042.664     -10197.323      154.65885      29879.686      554.18847      16380.744      1.3148973      0.77857925   
   2189000  -10043.789     -10199.391      155.60245      30335.432      557.56968      16358.709      1.3166685      0.79627968   
   2189100  -10042.373     -10198.076      155.70342      27935.975      557.93149      16333.66       1.3186877      0.79627968   
   2189200  -10040.798     -10197.141      156.34311      32174.095      560.22367      16312.607      1.3203896      0.79627968   
   2189300  -10038.344     -10198.866      160.52172      31175.837      575.19689      16302.25       1.3212285      0.79627968   
   2189400  -10039.138     -10198.448      159.30975      27544.555      570.85404      16303.947      1.3210909      0.79627968   
   2189500  -10041.85      -10200.709      158.85915      29546.932      569.23942      16315.954      1.3201187      0.79627968   
   2189600  -10040.157     -10199.334      159.17711      31920.046      570.37876      16337.84       1.3183503      0.79627968   
   2189700  -10044.439     -10196.493      152.05393      30018.7        544.85427      16367.472      1.3159635      0.79627968   
   2189800  -10043.893     -10201.2        157.30716      29618.028      563.67817      16398.739      1.3134545      0.79627968   
   2189900  -10039.45      -10195.758      156.30795      28292.642      560.0977       16426.948      1.3111989      0.79627968   
   2190000  -10037.258     -10196.753      159.49544      28135.215      571.51943      16451.854      1.3092139      0.78965082   
   2190100  -10040.831     -10197.456      156.62557      28591.175      561.23581      16470.056      1.3077671      0.78965082   
   2190200  -10043.021     -10203.315      160.29425      29880.77       574.38177      16477.063      1.3072109      0.78965082   
   2190300  -10039.331     -10194          154.66922      28579.32       554.22565      16466.556      1.308045       0.78965082   
   2190400  -10041.063     -10196.681      155.61837      29101.385      557.62673      16448.482      1.3094823      0.78965082   
   2190500  -10039.733     -10196.937      157.20471      30713.292      563.31104      16424.375      1.3114043      0.78965082   
   2190600  -10040.757     -10191.038      150.28154      27764.987      538.50327      16395.548      1.3137101      0.78965082   
   2190700  -10039.12      -10196.686      157.56643      30661.731      564.60721      16359.969      1.3165671      0.78965082   
   2190800  -10038.703     -10195.026      156.32333      31900.895      560.15282      16320.921      1.319717       0.78965082   
   2190900  -10041.492     -10194.257      152.76467      27600.042      547.40109      16285.451      1.3225913      0.78965082   
   2191000  -10041.551     -10193.309      151.75817      32743.367      543.79449      16260.523      1.3246189      0.86063992   
   2191100  -10041.051     -10196.25       155.19958      33428.458      556.12607      16257.106      1.3248973      0.86063992   
   2191200  -10040.288     -10195.595      155.30692      28721.661      556.5107       16271.721      1.3237074      0.86063992   
   2191300  -10038.455     -10195.851      157.39684      30099.435      563.9995       16303.667      1.3211137      0.86063992   
   2191400  -10039.035     -10200.348      161.3131       28951.865      578.03265      16347.683      1.3175565      0.86063992   
   2191500  -10039.592     -10195.907      156.31455      27941.996      560.12135      16394.527      1.3137919      0.86063992   
   2191600  -10040.48      -10197.904      157.42429      28540.959      564.09789      16440.105      1.3101496      0.86063992   
   2191700  -10042.867     -10197.793      154.92671      28791.715      555.14832      16474.663      1.3074013      0.86063992   
   2191800  -10042.648     -10197.476      154.82787      31138.142      554.79414      16486.144      1.3064909      0.86063992   
   2191900  -10039.922     -10197.755      157.83291      27667.865      565.56208      16476.808      1.3072312      0.86063992   
   2192000  -10037.138     -10196.884      159.74609      29416.871      572.41756      16449.326      1.3094152      0.7312449    
   2192100  -10038.012     -10193.445      155.4333       31633.665      556.96357      16412.49       1.312354       0.7312449    
   2192200  -10036.242     -10194.083      157.84082      28790.891      565.59042      16378.41       1.3150847      0.7312449    
   2192300  -10032.164     -10193.076      160.91179      28167.598      576.59463      16352.117      1.3171992      0.7312449    
   2192400  -10034.441     -10192.782      158.34103      31306.954      567.38282      16337.473      1.3183799      0.7312449    
   2192500  -10035.562     -10196.707      161.14513      32037.854      577.43074      16337.702      1.3183615      0.7312449    
   2192600  -10035.434     -10194.546      159.11185      27090.937      570.14489      16342.639      1.3179632      0.7312449    
   2192700  -10032.933     -10192.488      159.55518      28981.866      571.73347      16355.603      1.3169185      0.7312449    
   2192800  -10036.301     -10190.651      154.35002      29941.516      553.08185      16376.325      1.3152522      0.7312449    
   2192900  -10038.195     -10195.144      156.94946      30730.907      562.39642      16393.963      1.3138371      0.7312449    
   2193000  -10037.323     -10195.07       157.74649      30215.936      565.25243      16407.411      1.3127602      0.73132265   
   2193100  -10039.24      -10194.231      154.99046      27987.827      555.37673      16413.857      1.3122447      0.73132265   
   2193200  -10041.013     -10196.176      155.16254      29140.882      555.99336      16414.96       1.3121565      0.73132265   
   2193300  -10037.831     -10191.394      153.56328      27082.336      550.26274      16404.355      1.3130048      0.73132265   
   2193400  -10036.936     -10194.031      157.09521      27956.331      562.91869      16385.631      1.3145051      0.73132265   
   2193500  -10037.907     -10194.097      156.19013      33824.048      559.67551      16360.146      1.3165528      0.73132265   
   2193600  -10039.305     -10195.02       155.71494      30672.935      557.97276      16336.028      1.3184965      0.73132265   
   2193700  -10033.136     -10193.661      160.52485      32654.968      575.2081       16314.43       1.3202421      0.73132265   
   2193800  -10036.27      -10196.454      160.18451      29955.054      573.98855      16303.282      1.3211448      0.73132265   
   2193900  -10039.946     -10198.413      158.46636      30171.089      567.83194      16303.811      1.3211019      0.73132265   
   2194000  -10044.202     -10198.323      154.12067      32083.609      552.26003      16316.604      1.3200662      0.81692464   
   2194100  -10041.837     -10198.536      156.6985       29013.683      561.49715      16336.318      1.3184731      0.81692464   
   2194200  -10044.776     -10198.537      153.76087      29521.209      550.97074      16357.681      1.3167512      0.81692464   
   2194300  -10044.236     -10198.356      154.11939      26997.821      552.25543      16381.821      1.3148109      0.81692464   
   2194400  -10040.381     -10197.354      156.97332      24587.244      562.4819       16402.119      1.3131838      0.81692464   
   2194500  -10040.73      -10196.951      156.22103      29143.514      559.78624      16416.461      1.3120366      0.81692464   
   2194600  -10039.998     -10193.278      153.27938      28640.616      549.24543      16426.468      1.3112372      0.81692464   
   2194700  -10038.419     -10195.983      157.5639       30225.848      564.59815      16434.012      1.3106353      0.81692464   
   2194800  -10040.669     -10199.082      158.41298      27504.383      567.64065      16434.603      1.3105882      0.81692464   
   2194900  -10043.317     -10194.63       151.31257      32835.65       542.19775      16428.912      1.3110422      0.81692464   
   2195000  -10042.902     -10199.862      156.95988      31329.633      562.43374      16419.734      1.311775       0.75583358   
   2195100  -10046.22      -10199.491      153.27076      31443.881      549.21454      16403.371      1.3130836      0.75583358   
   2195200  -10045.047     -10196.585      151.53775      27256.993      543.00465      16380.726      1.3148987      0.75583358   
   2195300  -10043.983     -10198.527      154.54391      30399.101      553.77661      16353.984      1.3170489      0.75583358   
   2195400  -10041.541     -10202.134      160.59274      33419.696      575.45138      16333.513      1.3186996      0.75583358   
   2195500  -10044.378     -10198.783      154.40453      29280.498      553.27719      16316.851      1.3200462      0.75583358   
   2195600  -10044.629     -10197.597      152.96829      28960.757      548.13069      16297.343      1.3216263      0.75583358   
   2195700  -10045.05      -10197.441      152.39127      32255.959      546.06307      16277.024      1.3232761      0.75583358   
   2195800  -10043.699     -10196.309      152.60934      30630.458      546.84447      16265.83       1.3241868      0.75583358   
   2195900  -10047.95      -10199.245      151.295        30994.964      542.1348       16272.819      1.323618       0.75583358   
   2196000  -10044.338     -10198.77       154.43175      27724.663      553.37472      16286.461      1.3225093      0.79236756   
   2196100  -10042.303     -10197.631      155.32746      30686.62       556.58432      16299.508      1.3214507      0.79236756   
   2196200  -10038.387     -10192.078      153.69154      31048.452      550.72234      16313.126      1.3203476      0.79236756   
   2196300  -10038.267     -10201.763      163.49581      28074.47       585.85394      16327.261      1.3192045      0.79236756   
   2196400  -10040.591     -10195.487      154.89624      27312.74       555.03913      16337.359      1.3183892      0.79236756   
   2196500  -10041.255     -10195.348      154.09261      30672.693      552.15949      16341.709      1.3180382      0.79236756   
   2196600  -10041.77      -10199.589      157.81895      30878.304      565.51206      16346.498      1.317652       0.79236756   
   2196700  -10039.731     -10192.979      153.24794      28856.719      549.13278      16350.033      1.3173672      0.79236756   
   2196800  -10044.776     -10198.214      153.43778      30752.878      549.81303      16352.407      1.3171759      0.79236756   
   2196900  -10043.932     -10198.289      154.35675      28375.317      553.10595      16345.063      1.3177677      0.79236756   
   2197000  -10038.59      -10198.454      159.86375      29713.517      572.83917      16324.939      1.3193922      0.8511401    
   2197100  -10035.512     -10190.894      155.38163      33925.905      556.77843      16302.937      1.3211728      0.8511401    
   2197200  -10037.827     -10194.459      156.63204      29531.869      561.25902      16288.614      1.3223345      0.8511401    
   2197300  -10033.673     -10195.117      161.44363      30813.798      578.50034      16287.38       1.3224347      0.8511401    
   2197400  -10036.114     -10195.308      159.19401      31972.618      570.43929      16303.884      1.321096       0.8511401    
   2197500  -10040.663     -10197.524      156.86111      27809.638      562.07982      16335.613      1.3185301      0.8511401    
   2197600  -10036.482     -10194.216      157.73453      27330.11       565.20957      16376.144      1.3152667      0.8511401    
   2197700  -10038.023     -10195.164      157.1412       31747.529      563.08348      16423.182      1.3114996      0.8511401    
   2197800  -10041.361     -10198.598      157.2374       27066.097      563.42821      16458.991      1.3086462      0.8511401    
   2197900  -10042.384     -10196.698      154.31461      29352.319      552.95495      16466.777      1.3080274      0.8511401    
   2198000  -10044.653     -10202.71       158.05704      28128.369      566.36522      16442.373      1.3099688      0.74673468   
   2198100  -10041.622     -10195.702      154.0796       27391.115      552.11286      16391.615      1.3140253      0.74673468   
   2198200  -10042.13      -10195.127      152.99771      31799.009      548.23612      16332.093      1.3188142      0.74673468   
   2198300  -10038.687     -10197.872      159.18515      29542.339      570.40756      16278.948      1.3231197      0.74673468   
   2198400  -10036.571     -10196.378      159.80672      31654.55       572.63483      16239.651      1.3263214      0.74673468   
   2198500  -10034.144     -10192.189      158.04538      30817.309      566.32342      16218.463      1.3280541      0.74673468   
   2198600  -10040.24      -10198.126      157.88629      30730.562      565.75337      16223.797      1.3276175      0.74673468   
   2198700  -10040.529     -10197.391      156.8615       27580.506      562.08123      16247.108      1.3257126      0.74673468   
   2198800  -10041.46      -10193.696      152.23534      36102.632      545.50433      16284.338      1.3226817      0.74673468   
   2198900  -10039.407     -10193.735      154.32779      29330.136      553.00218      16345.643      1.317721       0.74673468   
   2199000  -10037.099     -10198.993      161.89397      28166.061      580.11406      16414.296      1.3122096      0.76257611   
   2199100  -10038.059     -10197.409      159.35039      30164.54       570.99966      16473.722      1.307476       0.76257611   
   2199200  -10041.133     -10195.318      154.18428      29373.213      552.48797      16512.662      1.3043927      0.76257611   
   2199300  -10038.905     -10196.728      157.82254      29739.146      565.52493      16530.557      1.3029807      0.76257611   
   2199400  -10042.022     -10196.424      154.4025       27756.627      553.2699       16527.093      1.3032538      0.76257611   
   2199500  -10041.589     -10196.156      154.56765      29351.147      553.86167      16500.337      1.3053671      0.76257611   
   2199600  -10039.392     -10194.859      155.46714      31210.888      557.08483      16452.001      1.3092023      0.76257611   
   2199700  -10036.224     -10194.544      158.31953      32472.391      567.30579      16401.367      1.313244       0.76257611   
   2199800  -10032.495     -10190.81       158.31443      30584.858      567.28752      16362.126      1.3163935      0.76257611   
   2199900  -10039.045     -10194.535      155.48989      32829.753      557.16633      16343.103      1.3179258      0.76257611   
   2200000  -10037.531     -10195.789      158.25736      30633.236      567.08301      16340.127      1.3181658      0.85225763   
   2200100  -10036.295     -10194.895      158.59934      33072.845      568.30841      16351.754      1.3172285      0.85225763   
   2200200  -10034.95      -10191.97       157.02028      32211.416      562.65019      16374.393      1.3154074      0.85225763   
   2200300  -10039.247     -10196.644      157.39709      31022.345      564.00039      16403.504      1.3130729      0.85225763   
   2200400  -10038.454     -10195.698      157.24408      28688.893      563.45212      16427.296      1.3111711      0.85225763   
   2200500  -10035.46      -10193.588      158.12781      27590.098      566.6188       16446.552      1.309636       0.85225763   
   2200600  -10037.388     -10196.793      159.40486      27878.713      571.19486      16458.221      1.3087074      0.85225763   
   2200700  -10036.146     -10196.995      160.84925      30557.337      576.37053      16460.086      1.3085592      0.85225763   
   2200800  -10034.869     -10192.433      157.56375      30595.161      564.5976       16450.706      1.3093053      0.85225763   
   2200900  -10039.878     -10193.797      153.91931      27926.144      551.5385       16435.189      1.3105414      0.85225763   
   2200920  -10039.26      -10196.91       157.65077      28248.143      564.90943      16430.813      1.3108905      0.85225763   
Loop time of 10890.9 on 1 procs for 2000000 steps with 2160 atoms

Performance: 7.933 ns/day, 3.025 hours/ns, 183.640 timesteps/s, 396.662 katom-step/s
99.8% CPU use with 1 MPI tasks x 1 OpenMP threads

MPI task timing breakdown:
Section |  min time  |  avg time  |  max time  |%varavg| %total
---------------------------------------------------------------
Pair    | 8830.7     | 8830.7     | 8830.7     |   0.0 | 81.08
Neigh   | 93.043     | 93.043     | 93.043     |   0.0 |  0.85
Comm    | 94.636     | 94.636     | 94.636     |   0.0 |  0.87
Output  | 7.4652     | 7.4652     | 7.4652     |   0.0 |  0.07
Modify  | 1819.2     | 1819.2     | 1819.2     |   0.0 | 16.70
Other   |            | 45.78      |            |       |  0.42

Nlocal:           2160 ave        2160 max        2160 min
Histogram: 1 0 0 0 0 0 0 0 0 0
Nghost:           5341 ave        5341 max        5341 min
Histogram: 1 0 0 0 0 0 0 0 0 0
Neighs:              0 ave           0 max           0 min
Histogram: 1 0 0 0 0 0 0 0 0 0
FullNghs:       327532 ave      327532 max      327532 min
Histogram: 1 0 0 0 0 0 0 0 0 0

Total # of neighbors = 327532
Ave neighs/atom = 151.63519
Neighbor list builds = 200000
Dangerous builds = 200000
Total wall time: 3:19:50
