LAMMPS (7 Feb 2024 - Update 1)
KOKKOS mode with Kokkos version 4.2.0 is enabled (src/KOKKOS/kokkos.cpp:72)
  will use up to 2 GPU(s) per node
  using 1 OpenMP thread(s) per MPI task
Reading data file ...
  orthogonal box = (0 0 0) to (18.207572 23.629178 22.213196)
  1 by 2 by 1 MPI processor grid
  reading atoms ...
  864 atoms
  read_data CPU = 0.008 seconds
ACE/AL version: 2023.11.25
Loading /home/cicn/cicn607503/pd/pot_dir/interim_potential_ladder_step_5.yaml
Total number of basis functions
	H: 24 (r=1) 863 (r>1)
	O: 24 (r=1) 863 (r>1)
Mapping LAMMPS atom type #1(H) -> ACE species type #0
Mapping LAMMPS atom type #2(O) -> ACE species type #1
Loading ASI /home/cicn/cicn607503/pd/pot_dir/interim_potential_ladder_step_5.asi
LINEAR ASI is loaded
Switching to 'neigh_modify every 1 delay 0 check yes' setting during minimization
Neighbor list info ...
  update: every = 1 steps, delay = 0 steps, check = yes
  max neighbors/atom: 2000, page size: 100000
  master list distance cutoff = 6.5
  ghost atom cutoff = 6.5
  binsize = 6.5, bins = 3 4 4
  1 neighbor lists, perpetual/occasional/extra = 1 0 0
  (1) pair pace/extrapolation/kk, perpetual
      attributes: full, newton on, kokkos_device
      pair build: full/bin/kk/device
      stencil: full/bin/3d
      bin: kk/device
Setting up cg/kk style minimization ...
  Unit style    : metal
  Current step  : 0
WARNING: Fix with atom-based arrays not compatible with sending data in Kokkos communication, switching to classic exchange/border communication (src/KOKKOS/comm_kokkos.cpp:666)
WARNING: Fix with atom-based arrays not compatible with Kokkos sorting on device, switching to classic host sorting (src/KOKKOS/atom_kokkos.cpp:218)
Per MPI rank memory allocation (min/avg/max) = 449.3 | 453 | 456.7 Mbytes
   Step         TotEng         PotEng         KinEng         Press           Temp          Volume        Density     c_max_pace_gamma
         0  -4180.7249     -4180.7249      0              931.57303      0              9556.7825      0.90151666     0.51848273   
       100  -4182.8568     -4182.8568      0             -5818.1351      0              9556.7825      0.90151666     0.51848273   
       191  -4182.8571     -4182.8571      0             -5809.5218      0              9556.7825      0.90151666     0.51848273   
Loop time of 0.669148 on 2 procs for 191 steps with 864 atoms

99.6% CPU use with 2 MPI tasks x 1 OpenMP threads

Minimization stats:
  Stopping criterion = force tolerance
  Energy initial, next-to-last, final = 
      -4180.7249004513  -4182.85708343912  -4182.85708344366
  Force two-norm initial, final = 6.5563152 0.00040677855
  Force max component initial, final = 0.28078875 3.6224289e-05
  Final line search alpha, max atom move = 1 3.6224289e-05
  Iterations, force evaluations = 191 382

MPI task timing breakdown:
Section |  min time  |  avg time  |  max time  |%varavg| %total
---------------------------------------------------------------
Pair    | 0.46247    | 0.46352    | 0.46457    |   0.2 | 69.27
Neigh   | 0          | 0          | 0          |   0.0 |  0.00
Comm    | 0.066352   | 0.06802    | 0.069688   |   0.6 | 10.17
Output  | 0.00015243 | 0.00015308 | 0.00015374 |   0.0 |  0.02
Modify  | 0.089202   | 0.089925   | 0.090647   |   0.2 | 13.44
Other   |            | 0.04753    |            |       |  7.10

Nlocal:            432 ave         436 max         428 min
Histogram: 1 0 0 0 0 0 0 0 0 1
Nghost:           2169 ave        2174 max        2164 min
Histogram: 1 0 0 0 0 0 0 0 0 1
Neighs:              0 ave           0 max           0 min
Histogram: 2 0 0 0 0 0 0 0 0 0
FullNghs:        45636 ave       46083 max       45189 min
Histogram: 1 0 0 0 0 0 0 0 0 1

Total # of neighbors = 91272
Ave neighs/atom = 105.63889
Neighbor list builds = 0
Dangerous builds = 0
Setting up Verlet run ...
  Unit style    : metal
  Current step  : 191
  Time step     : 0.0005
WARNING: Fix with atom-based arrays not compatible with sending data in Kokkos communication, switching to classic exchange/border communication (src/KOKKOS/comm_kokkos.cpp:666)
WARNING: Fix with atom-based arrays not compatible with Kokkos sorting on device, switching to classic host sorting (src/KOKKOS/atom_kokkos.cpp:218)
Per MPI rank memory allocation (min/avg/max) = 453.3 | 454.9 | 456.4 Mbytes
   Step         TotEng         PotEng         KinEng         Press           Temp          Volume        Density     c_max_pace_gamma
       191  -4149.9494     -4182.8571      32.907694     -2131.5801      295            9556.7825      0.90151666     0.51848273   
       200  -4149.9946     -4172.4362      22.441597     -10296.857      201.177        9556.4964      0.90154365     0.51848273   
       300  -4143.3126     -4161.5936      18.281048     -2079.6612      163.87989      9528.332       0.90420848     0.51848273   
       400  -4137.7361     -4158.642       20.905858     -2721.9277      187.40992      9470.5516      0.90972511     0.51848273   
       500  -4132.1896     -4157.1969      25.007296     -91.83222       224.17713      9390.9162      0.91743962     0.51848273   
       600  -4128.599      -4155.556       26.957005      2218.5224      241.65523      9315.0831      0.92490839     0.51848273   
       700  -4124.452      -4153.356       28.903963      5808.1221      259.10868      9269.8961      0.92941695     0.51848273   
       800  -4120.8325     -4149.5527      28.720241      597.30195      257.46171      9272.1264      0.92919339     0.51848273   
       900  -4120.3332     -4150.1401      29.806937      1648.8786      267.20336      9323.8614      0.92403761     0.51848273   
      1000  -4118.87       -4150.3094      31.439354     -1477.1938      281.83711      9412.4097      0.91534462     0.70689492   
      1100  -4117.7029     -4148.8274      31.124447      1107.2881      279.01413      9520.2363      0.90497739     0.70689492   
      1200  -4117.7204     -4148.2109      30.49046      -2677.0786      273.33078      9629.3935      0.89471872     0.70689492   
      1300  -4117.3079     -4148.1423      30.834417     -1537.7969      276.41417      9714.8299      0.88685018     0.70689492   
      1400  -4115.4957     -4148.4108      32.915077     -4974.7216      295.06618      9769.0957      0.88192386     0.70689492   
      1500  -4114.8966     -4146.5732      31.676622     -4273.0932      283.96409      9785.5123      0.88044431     0.70689492   
      1600  -4114.9092     -4146.8489      31.939635     -2347.4918      286.32186      9770.9044      0.88176061     0.70689492   
      1700  -4113.5353     -4146.209       32.673711     -1616.4376      292.90247      9730.7544      0.88539883     0.70689492   
      1800  -4114.2016     -4145.8715      31.66989      -951.85854      283.90375      9670.702       0.89089692     0.70689492   
      1900  -4112.8732     -4145.4537      32.580537      586.1335       292.06721      9603.8757      0.89709601     0.70689492   
      2000  -4112.6053     -4146.9519      34.346591      2609.9984      307.89895      9543.6638      0.90275588     0.77095478   
      2100  -4113.854      -4146.5993      32.745292     -1209.007       293.54415      9499.5488      0.90694819     0.77095478   
      2200  -4113.1561     -4145.2346      32.078566      1027.1007      287.56731      9472.4022      0.90954738     0.77095478   
      2300  -4113.3265     -4146.3886      33.062095      643.79819      296.38412      9463.1435      0.91043727     0.77095478   
      2400  -4113.6571     -4146.9418      33.284741      1000.2332      298.38003      9470.8674      0.90969477     0.77095478   
      2500  -4113.7331     -4148.0809      34.347842      1781.8086      307.91016      9496.4833      0.90724095     0.77095478   
      2600  -4114.4837     -4148.4449      33.961227      1026.4803      304.44437      9542.363       0.90287894     0.77095478   
      2700  -4114.9897     -4148.25        33.260318      194.80313      298.16109      9597.8223      0.89766182     0.77095478   
      2800  -4115.1414     -4147.0052      31.863813     -2312.6688      285.64216      9653.0114      0.89252962     0.77095478   
      2900  -4116.1599     -4147.6025      31.44257      -1074.3891      281.86594      9692.4514      0.88889779     0.77095478   
      3000  -4115.7792     -4148.1317      32.35244      -573.83399      290.02244      9710.0788      0.88728411     0.64117457   
      3100  -4115.4387     -4147.3259      31.887245     -2997.0763      285.85222      9700.0216      0.88820406     0.64117457   
      3200  -4115.6477     -4146.1295      30.48183      -100.79139      273.25342      9668.3476      0.89111387     0.64117457   
      3300  -4116.3385     -4147.0279      30.689331      517.88147      275.11355      9620.8637      0.89551197     0.64117457   
      3400  -4115.4292     -4147.2175      31.788285      185.88302      284.96509      9558.5887      0.9013463      0.64117457   
      3500  -4116.3608     -4147.5012      31.140404      2837.0322      279.15719      9501.3716      0.90677419     0.64117457   
      3600  -4116.2788     -4149.1391      32.860335      4467.862       294.57545      9457.6969      0.91096159     0.64117457   
      3700  -4115.6332     -4149.0156      33.382359      2767.4184      299.25512      9438.0965      0.91285341     0.64117457   
      3800  -4116.2558     -4147.1747      30.918855      2456.7409      277.17111      9447.3533      0.91195897     0.64117457   
      3900  -4116.1819     -4147.9877      31.805779      908.28728      285.12192      9485.3974      0.90830127     0.64117457   
      4000  -4116.273      -4148.2188      31.945734      139.07499      286.37654      9541.2406      0.90298515     0.77594318   
      4100  -4115.6807     -4148.5291      32.848347      2807.7368      294.46799      9603.8059      0.89710253     0.77594318   
      4200  -4116.4246     -4148.6685      32.243963     -1661.0452      289.05001      9664.4304      0.89147505     0.77594318   
      4300  -4116.7004     -4149.0771      32.376677      188.46282      290.23971      9710.8964      0.8872094      0.77594318   
      4400  -4116.8381     -4148.0212      31.183142     -2786.5385      279.54031      9733.9222      0.88511069     0.77594318   
      4500  -4115.064      -4146.2414      31.177384     -419.25851      279.48869      9730.3871      0.88543226     0.77594318   
      4600  -4113.874      -4146.7982      32.924207      1596.0595      295.14803      9707.9678      0.88747704     0.77594318   
      4700  -4114.5159     -4145.6361      31.120218     -474.25098      278.97622      9667.8317      0.89116141     0.77594318   
      4800  -4113.5707     -4146.7787      33.208026      1891.8295      297.69231      9613.7267      0.89617677     0.77594318   
      4900  -4112.7014     -4146.1506      33.449186     -1120.9951      299.85419      9556.4748      0.90154568     0.77594318   
      5000  -4113.3413     -4147.3655      34.024164      950.07612      305.00856      9509.5305      0.90599621     0.86780911   
      5100  -4113.2785     -4148.4863      35.20774       997.28785      315.61869      9490.9338      0.90777144     0.86780911   
      5200  -4113.7308     -4146.5577      32.826882      1139.6721      294.27556      9497.5691      0.90713724     0.86780911   
      5300  -4115.401      -4149.2887      33.887758      537.30911      303.78575      9528.1665      0.90422419     0.86780911   
      5400  -4115.3256     -4148.3245      32.998937     -562.07604      295.81794      9572.6878      0.90001876     0.86780911   
      5500  -4115.3921     -4146.7512      31.359109      1277.0551      281.11776      9624.5139      0.89517233     0.86780911   
      5600  -4115.7505     -4146.7528      31.002385     -679.40697      277.91991      9673.0869      0.89067727     0.86780911   
      5700  -4115.8828     -4147.5333      31.650512     -2305.0971      283.73003      9705.4099      0.88771094     0.86780911   
      5800  -4115.3775     -4147.1377      31.760151     -1980.5948      284.71289      9718.3526      0.88652871     0.86780911   
      5900  -4116.0463     -4148.339       32.292677     -740.72246      289.4867       9717.6758      0.88659045     0.86780911   
      6000  -4115.3282     -4146.5884      31.260206     -4362.8322      280.23115      9699.0503      0.88829301     0.73832109   
      6100  -4115.5821     -4147.7935      32.211385     -759.35861      288.75796      9662.5497      0.89164857     0.73832109   
      6200  -4115.9457     -4146.9187      30.972993     -998.28113      277.65643      9612.4885      0.89629221     0.73832109   
      6300  -4114.7155     -4148.201       33.485474     -153.22487      300.17949      9558.362       0.90136768     0.73832109   
      6400  -4114.654      -4148.4315      33.777455      504.77166      302.79695      9516.3651      0.90534552     0.73832109   
      6500  -4115.8217     -4148.6709      32.849242     -320.67678      294.47601      9492.5374      0.90761808     0.73832109   
      6600  -4115.5993     -4148.3707      32.771406      1135.0474      293.77825      9485.1676      0.90832328     0.73832109   
      6700  -4115.5809     -4149.2682      33.687325      1969.5153      301.98898      9496.4922      0.9072401      0.73832109   
      6800  -4115.3522     -4147.7455      32.393287     -165.3031       290.38862      9521.0082      0.90490402     0.73832109   
      6900  -4114.7906     -4146.7589      31.968297     -79.218308      286.5788       9558.1075      0.90139169     0.73832109   
      7000  -4114.1518     -4145.4292      31.277449     -1542.5753      280.38572      9607.1551      0.89678979     0.87443587   
      7100  -4114.0771     -4146.0865      32.009373     -2941.092       286.94703      9660.1885      0.89186651     0.87443587   
      7200  -4113.3331     -4145.3876      32.054487     -2674.7353      287.35145      9707.6268      0.88750822     0.87443587   
      7300  -4112.8729     -4145.829       32.956127     -93.771665      295.43417      9742.6514      0.88431765     0.87443587   
      7400  -4112.5763     -4145.9448      33.368493     -809.12071      299.13082      9760.441       0.88270587     0.87443587   
      7500  -4112.4048     -4146.4861      34.081271      1900.5527      305.52049      9754.2811      0.88326331     0.87443587   
      7600  -4112.5827     -4146.9605      34.377858      1936.6092      308.17924      9725.9388      0.88583722     0.87443587   
      7700  -4112.7137     -4147.1957      34.481949     -815.72736      309.11236      9680.7039      0.88997646     0.87443587   
      7800  -4113.3177     -4146.4857      33.167919      1466.8473      297.33278      9628.0988      0.89483903     0.87443587   
      7900  -4113.4106     -4145.5364      32.125805     -1505.9827      287.99078      9570.1467      0.90025774     0.87443587   
      8000  -4113.4593     -4145.2868      31.827482      651.19252      285.31648      9509.3761      0.90601092     0.69910711   
      8100  -4112.5113     -4146.6132      34.101932     -1905.8728      305.70571      9461.1657      0.91062759     0.69910711   
      8200  -4112.5096     -4146.4753      33.965699      2594.9705      304.48445      9439.5999      0.91270802     0.69910711   
      8300  -4112.6081     -4146.0022      33.394068      3560.8663      299.36008      9453.9195      0.91132557     0.69910711   
      8400  -4113.0787     -4146.0456      32.966883      920.90727      295.5306       9503.2863      0.9065915      0.69910711   
      8500  -4111.6723     -4146.7408      35.068528     -1596.9345      314.37073      9576.2692      0.89968217     0.69910711   
      8600  -4111.8675     -4144.1833      32.315826      676.81092      289.69422      9661.5034      0.89174513     0.69910711   
      8700  -4111.8301     -4145.0314      33.201302     -487.96911      297.63204      9747.2637      0.8838992      0.69910711   
      8800  -4112.898      -4146.7853      33.88732      -956.51001      303.78183      9819.6058      0.87738742     0.69910711   
      8900  -4112.585      -4146.4226      33.837691     -2845.818       303.33693      9864.2157      0.87341952     0.69910711   
      9000  -4112.9967     -4146.1608      33.164106     -3314.0014      297.2986       9871.7238      0.87275523     0.67203885   
      9100  -4112.5096     -4145.4898      32.98012      -212.15919      295.64926      9842.5168      0.87534507     0.67203885   
      9200  -4112.6523     -4144.3791      31.726862     -29.354998      284.41447      9786.6908      0.88033828     0.67203885   
      9300  -4113.8389     -4146.7314      32.892524      886.88712      294.86401      9712.5055      0.88706242     0.67203885   
      9400  -4114.2761     -4146.7294      32.453344     -2244.2572      290.92699      9628.2436      0.89482557     0.67203885   
      9500  -4113.0792     -4145.8138      32.734521      2710.4402      293.4476       9550.7151      0.90208937     0.67203885   
      9600  -4114.6633     -4147.0318      32.368449      454.30417      290.16596      9495.9297      0.90729385     0.67203885   
      9700  -4115.4748     -4146.7938      31.318931      4683.5711      280.75758      9471.6501      0.9096196      0.67203885   
      9800  -4115.4315     -4148.6278      33.196313      1546.7174      297.58731      9478.4872      0.90896346     0.67203885   
      9900  -4114.6583     -4148.3328      33.674557      2123.7553      301.87452      9510.2144      0.90593106     0.67203885   
     10000  -4115.1185     -4147.6276      32.50912      -874.45425      291.427        9563.2556      0.90090644     0.76458468   
     10100  -4114.7914     -4148.1034      33.311996     -2742.2228      298.62435      9624.6957      0.89515542     0.76458468   
     10200  -4115.2663     -4147.4236      32.15726      -2205.3937      288.27276      9678.5241      0.8901769      0.76458468   
     10300  -4114.2266     -4147.5475      33.320891     -288.67936      298.70409      9717.4991      0.88660657     0.76458468   
     10400  -4114.2165     -4147.3311      33.114653     -1788.2402      296.85527      9734.1521      0.88508978     0.76458468   
     10500  -4114.2906     -4146.3928      32.102206     -4091.0668      287.77923      9726.1347      0.88581938     0.76458468   
     10600  -4114.1557     -4147.4671      33.311441     -998.31186      298.61938      9698.4147      0.88835123     0.76458468   
     10700  -4113.9459     -4147.3265      33.380607     -899.56421      299.23941      9657.932       0.89207489     0.76458468   
     10800  -4114.9073     -4146.3841      31.476806      1717.6881      282.17285      9613.5626      0.89619207     0.76458468   
     10900  -4114.5321     -4146.2664      31.734325      432.67977      284.48137      9570.4536      0.90022887     0.76458468   
     11000  -4114.849      -4147.5659      32.716837      2759.2609      293.28907      9538.6941      0.90322621     0.72283685   
     11100  -4115.4497     -4149.1422      33.69249       1999.79        302.03528      9526.0135      0.90442856     0.72283685   
     11200  -4116.0961     -4147.9617      31.865614      1175.2868      285.65831      9526.9273      0.9043418      0.72283685   
     11300  -4115.1914     -4147.2132      32.021844      1185.7545      287.05882      9543.7846      0.90274445     0.72283685   
     11400  -4115.2533     -4146.5925      31.33919       843.31654      280.9392       9570.5739      0.90021755     0.72283685   
     11500  -4115.4108     -4147.8807      32.469942     -2287.2769      291.07578      9606.3695      0.89686313     0.72283685   
     11600  -4115.1054     -4147.8609      32.755461     -506.96465      293.63531      9641.1683      0.89362599     0.72283685   
     11700  -4115.1347     -4147.5159      32.381209     -2366.5873      290.28034      9668.4049      0.89110859     0.72283685   
     11800  -4114.4324     -4146.4567      32.024267     -1088.2028      287.08054      9685.2695      0.88955693     0.72283685   
     11900  -4113.3327     -4147.6131      34.280438     -858.37434      307.30592      9693.7197      0.88878149     0.72283685   
     12000  -4112.6815     -4145.7155      33.033931      1558.7266      296.13165      9693.0905      0.88883918     0.79079863   
     12100  -4112.7402     -4146.0148      33.274572     -2530.1811      298.28887      9688.6966      0.88924228     0.79079863   
     12200  -4112.0298     -4145.2032      33.173436      2808.4756      297.38223      9675.4934      0.89045574     0.79079863   
     12300  -4110.8477     -4145.2465      34.398796      1046.7991      308.36694      9659.1811      0.89195952     0.79079863   
     12400  -4111.4282     -4145.8961      34.467825      1588.1         308.98574      9640.9615      0.89364516     0.79079863   
     12500  -4111.7953     -4144.5554      32.760106      624.40209      293.67695      9623.2535      0.89528958     0.79079863   
     12600  -4113.0767     -4146.1849      33.108135     -320.70401      296.79685      9608.2504      0.89668756     0.79079863   
     12700  -4112.4094     -4145.0114      32.601968      1157.7877      292.25933      9594.8151      0.89794316     0.79079863   
     12800  -4113.0942     -4147.1455      34.051305      2223.4264      305.25186      9585.9301      0.89877545     0.79079863   
     12900  -4114.192      -4146.6611      32.469063      876.94004      291.06791      9585.5883      0.89880749     0.79079863   
     13000  -4114.6507     -4148.1048      33.45409       947.92337      299.89815      9591.6025      0.89824392     0.94231715   
     13100  -4114.7619     -4148.5472      33.785279     -648.75026      302.86708      9602.1103      0.89726094     0.94231715   
     13200  -4112.9656     -4146.5867      33.621102     -820.36047      301.39532      9615.9193      0.89597243     0.94231715   
     13300  -4113.7197     -4145.2497      31.530031     -2741.0157      282.64999      9634.0162      0.89428941     0.94231715   
     13400  -4113.0488     -4145.8007      32.751925     -2111.1077      293.60362      9651.6765      0.89265306     0.94231715   
     13500  -4112.4279     -4145.4479      33.019989      673.84939      296.00667      9662.4921      0.89165388     0.94231715   
     13600  -4111.1904     -4145.0216      33.83122      -1472.6673      303.27892      9668.7053      0.8910809      0.94231715   
     13700  -4112.0981     -4146.1635      34.065405     -2631.9757      305.37827      9673.878       0.89060443     0.94231715   
     13800  -4112.0765     -4146.0295      33.952955      290.0945       304.37021      9678.322       0.89019549     0.94231715   
     13900  -4112.9746     -4146.3337      33.359151      1965.1109      299.04708      9682.2067      0.88983833     0.94231715   
     14000  -4114.6212     -4146.5408      31.919521      737.44742      286.14155      9678.5974      0.89017016     0.69495551   
     14100  -4114.9352     -4147.2761      32.340921     -1121.6965      289.91918      9660.7806      0.89181185     0.69495551   
     14200  -4114.9964     -4147.077       32.080609      1428.397       287.58562      9633.9152      0.89429878     0.69495551   
     14300  -4115.1062     -4147.0601      31.953814      2827.7126      286.44897      9601.6577      0.89730325     0.69495551   
     14400  -4115.2547     -4148.5365      33.281826     -504.43531      298.35389      9572.5973      0.90002727     0.69495551   
     14500  -4115.4615     -4147.766       32.304542     -1078.3465      289.59307      9553.2858      0.90184663     0.69495551   
     14600  -4115.3162     -4146.4595      31.143348      611.38035      279.18358      9539.9399      0.90310826     0.69495551   
     14700  -4114.058      -4147.1377      33.079729      1861.263       296.5422       9534.8197      0.90359323     0.69495551   
     14800  -4113.6433     -4147.6359      33.992563      2336.8074      304.72527      9546.8782      0.90245192     0.69495551   
     14900  -4114.2031     -4146.7261      32.522966      215.13635      291.55112      9570.6325      0.90021204     0.69495551   
     15000  -4114.1944     -4146.7982      32.603754      50.672201      292.27534      9598.5446      0.89759427     0.73937749   
     15100  -4113.6085     -4146.7614      33.152932      1344.8879      297.19843      9629.5352      0.89470555     0.73937749   
     15200  -4113.8705     -4146.7348      32.86427      -248.5456       294.61073      9662.6736      0.89163713     0.73937749   
     15300  -4112.2106     -4145.3072      33.096606     -1244.4135      296.6935       9684.5934      0.88961903     0.73937749   
     15400  -4111.7495     -4145.7347      33.985178      158.69383      304.65907      9691.4706      0.88898774     0.73937749   
     15500  -4111.7688     -4143.9335      32.164652      145.12251      288.33903      9682.5635      0.88980554     0.73937749   
     15600  -4112.6413     -4145.5339      32.892607      1211.5962      294.86475      9664.7308      0.89144734     0.73937749   
     15700  -4112.8834     -4146.3338      33.450424      101.33072      299.86528      9644.4067      0.89332593     0.73937749   
     15800  -4113.1255     -4146.8593      33.733712      1167.9533      302.40481      9624.6055      0.89516382     0.73937749   
     15900  -4113.6016     -4147.3969      33.795326      1174.6704      302.95715      9607.0308      0.89680139     0.73937749   
     16000  -4114.5647     -4147.1134      32.5487        150.72391      291.78181      9594.7551      0.89794877     0.6575892    
     16100  -4114.4664     -4147.1607      32.694312     -229.46185      293.08714      9587.8996      0.89859083     0.6575892    
     16200  -4114.0134     -4146.3805      32.367145     -831.51572      290.15426      9582.6154      0.89908633     0.6575892    
     16300  -4114.6703     -4146.3815      31.711213      2110.8564      284.27418      9580.632       0.89927247     0.6575892    
     16400  -4113.144      -4146.7545      33.610439     -27.409176      301.29974      9586.6475      0.89870818     0.6575892    
     16500  -4114.8551     -4146.1131      31.257956     -392.9887       280.21097      9603.8682      0.89709671     0.6575892    
     16600  -4115.3637     -4148.0724      32.708704     -914.5762       293.21616      9625.6486      0.89506681     0.6575892    
     16700  -4113.9617     -4147.2582      33.296582      1072.9097      298.48618      9644.6684      0.89330169     0.6575892    
     16800  -4114.4077     -4146.1104      31.702648      1678.0557      284.1974       9663.4141      0.89156881     0.6575892    
     16900  -4115.0002     -4146.521       31.520817     -2085.4836      282.56739      9678.7075      0.89016003     0.6575892    
     17000  -4114.5986     -4146.7297      32.131159     -945.2843       288.03878      9689.3752      0.88918        0.77609312   
     17100  -4114.5465     -4146.5668      32.020299     -727.59555      287.04498      9694.2878      0.8887294      0.77609312   
     17200  -4114.86       -4147.2582      32.398173     -2180.015       290.43242      9692.5758      0.88888637     0.77609312   
     17300  -4114.7707     -4146.5288      31.758077      29.150645      284.69429      9682.7176      0.88979137     0.77609312   
     17400  -4115.7919     -4148.0383      32.24638      -103.77009      289.07167      9664.3562      0.89148189     0.77609312   
     17500  -4115.4408     -4147.3238      31.883008     -607.39728      285.81424      9637.125       0.89400092     0.77609312   
     17600  -4114.7793     -4148.5129      33.73359      -616.441        302.40372      9609.223       0.8965968      0.77609312   
     17700  -4115.1624     -4147.0776      31.915161      2341.9041      286.10247      9585.4262      0.8988227      0.77609312   
     17800  -4114.9436     -4146.8033      31.859686      2288.8154      285.60517      9567.9688      0.90046265     0.77609312   
     17900  -4115.6676     -4148.2938      32.62619      -2254.7998      292.47646      9561.4276      0.90107869     0.77609312   
     18000  -4115.1291     -4148.008       32.878898     -401.25378      294.74186      9564.5958      0.9007802      0.82497797   
     18100  -4115.6423     -4147.8723      32.229967     -1376.3632      288.92454      9579.556       0.89937348     0.82497797   
     18200  -4115.9772     -4148.2306      32.253328     -484.45354      289.13396      9602.0505      0.89726653     0.82497797   
     18300  -4116.2165     -4148.4707      32.254134     -770.18571      289.14118      9626.8041      0.89495938     0.82497797   
     18400  -4115.774      -4147.9646      32.190581     -2003.7044      288.57147      9651.603       0.89265987     0.82497797   
     18500  -4114.567      -4146.8153      32.248312     -478.23387      289.08899      9675.5334      0.89045205     0.82497797   
     18600  -4113.9225     -4146.8616      32.939159     -1394.7111      295.28207      9692.8231      0.8888637      0.82497797   
     18700  -4113.3851     -4145.3779      31.992834     -397.47829      286.79877      9695.4986      0.88861842     0.82497797   
     18800  -4113.3392     -4146.996       33.656797     -747.64374      301.71531      9686.2015      0.88947133     0.82497797   
     18900  -4111.9537     -4145.7507      33.797074      506.64922      302.97282      9672.0175      0.89077575     0.82497797   
     19000  -4112.2247     -4146.033       33.808279      2543.8724      303.07327      9654.1041      0.8924286      0.69174184   
     19100  -4111.666      -4144.8269      33.160935      1583.494       297.27017      9634.5635      0.8942386      0.69174184   
     19200  -4111.6356     -4146.7828      35.147163     -1599.9123      315.07565      9618.6539      0.8957177      0.69174184   
     19300  -4112.035      -4145.3657      33.330726     -2625.5156      298.79225      9608.0092      0.89671007     0.69174184   
     19400  -4113.0834     -4147.1841      34.100738     -1744.4789      305.695        9605.8137      0.89691502     0.69174184   
     19500  -4113.6179     -4146.2918      32.673875     -62.689193      292.90394      9607.2871      0.89677747     0.69174184   
     19600  -4114.0986     -4146.9226      32.824023      1401.942       294.24994      9613.8013      0.89616982     0.69174184   
     19700  -4114.6077     -4148.7115      34.103812      908.41101      305.72256      9622.0883      0.895398       0.69174184   
     19800  -4113.294      -4144.8349      31.540896      556.73222      282.74738      9627.0043      0.89494076     0.69174184   
     19900  -4113.4803     -4145.6519      32.171646      259.03873      288.40172      9626.8836      0.89495199     0.69174184   
     20000  -4114.2548     -4146.116       31.861224     -1521.6992      285.61895      9619.0722      0.89567875     0.76946225   
     20100  -4115.1233     -4148.9877      33.864443     -1016.9603      303.57675      9606.2802      0.89687147     0.76946225   
     20200  -4114.9613     -4148.3719      33.410548     -1987.8394      299.50782      9593.5947      0.89805739     0.76946225   
     20300  -4114.6849     -4147.8544      33.169526     -1854.6866      297.34719      9587.5122      0.89862713     0.76946225   
     20400  -4115.9114     -4147.2039      31.292525     -1315.0332      280.52086      9586.8703      0.8986873      0.76946225   
     20500  -4115.3645     -4146.8202      31.455732     -1092.4048      281.98393      9586.5963      0.89871299     0.76946225   
     20600  -4114.3822     -4147.2878      32.905607     -740.73485      294.98129      9586.7097      0.89870235     0.76946225   
     20700  -4111.9602     -4145.696       33.735813      112.71433      302.42365      9590.2491      0.89837068     0.76946225   
     20800  -4111.7876     -4146.1647      34.377165      1640.3041      308.17302      9603.1879      0.89716027     0.76946225   
     20900  -4111.7228     -4145.7629      34.04016       354.68456      305.15196      9624.9663      0.89513026     0.76946225   
     21000  -4113.469      -4146.5577      33.088738     -445.97718      296.62296      9649.4084      0.89286288     0.62217064   
     21100  -4112.7569     -4146.1834      33.426495     -2333.1791      299.65077      9671.5677      0.89081717     0.62217064   
     21200  -4113.7176     -4145.6318      31.914205      1517.2373      286.0939       9688.9662      0.88921753     0.62217064   
     21300  -4113.1134     -4145.5184      32.40498      -2977.7516      290.49343      9699.6579      0.88823737     0.62217064   
     21400  -4112.4097     -4145.8108      33.401095     -1921.6329      299.42308      9700.2133      0.88818651     0.62217064   
     21500  -4111.4006     -4145.7349      34.334241     -116.28388      307.78824      9692.9598      0.88885116     0.62217064   
     21600  -4111.2682     -4144.6708      33.402646     -1175.0946      299.43698      9681.4239      0.88991027     0.62217064   
     21700  -4112.0992     -4145.0058      32.906578     -1096.0974      294.99         9668.4948      0.8911003      0.62217064   
     21800  -4112.4239     -4145.6999      33.275965      1250.2599      298.30135      9652.0146      0.89262179     0.62217064   
     21900  -4112.6911     -4145.8161      33.125013     -1530.6694      296.94815      9635.831       0.89412097     0.62217064   
     22000  -4113.8055     -4144.5731      30.767634      1121.3805      275.8155       9623.4004      0.89527591     0.77896893   
     22100  -4113.9867     -4146.9427      32.956009      923.5978       295.43312      9617.419       0.89583272     0.77896893   
     22200  -4113.1771     -4146.6511      33.474056     -1690.7646      300.07714      9618.3076      0.89574995     0.77896893   
     22300  -4113.8105     -4146.074       32.263499      2026.4366      289.22514      9623.5273      0.8952641      0.77896893   
     22400  -4113.2362     -4147.1488      33.912628      512.242        304.0087       9634.8943      0.8942079      0.77896893   
     22500  -4113.1696     -4145.6971      32.527521      1219.3768      291.59195      9650.9468      0.89272056     0.77896893   
     22600  -4113.2885     -4147.0173      33.728842     -12.614158      302.36116      9668.0437      0.89114188     0.77896893   
     22700  -4114.5463     -4146.8145      32.268182      38.898168      289.26712      9680.0971      0.89003225     0.77896893   
     22800  -4112.2423     -4145.38        33.137695     -1793.88        297.06184      9680.67        0.88997958     0.77896893   
     22900  -4111.9182     -4146.2822      34.364059     -1111.4625      308.05554      9670.2809      0.89093571     0.77896893   
     23000  -4112.5352     -4146.8785      34.343317      1389.3384      307.8696       9650.1898      0.89279058     0.6888165    
     23100  -4113.4059     -4147.0295      33.623689     -158.81456      301.41851      9626.7945      0.89496026     0.6888165    
     23200  -4113.4362     -4146.8666      33.43041       1461.5804      299.68587      9602.919       0.89718538     0.6888165    
     23300  -4113.637      -4146.8447      33.20775      -1495.4318      297.68984      9580.3139      0.89930232     0.6888165    
     23400  -4112.6676     -4145.6119      32.94425       1153.8023      295.3277       9560.2981      0.90118514     0.6888165    
     23500  -4112.772      -4145.3339      32.561927     -3.6904685      291.90038      9549.5844      0.90219619     0.6888165    
     23600  -4112.444      -4146.4266      33.982575      653.45173      304.63573      9553.7974      0.90179833     0.6888165    
     23700  -4112.3176     -4146.6502      34.332594      1988.6519      307.77348      9574.3933      0.89985844     0.6888165    
     23800  -4113.27       -4146.6146      33.344553     -1712.4513      298.91621      9608.6855      0.89664696     0.6888165    
     23900  -4114.4988     -4145.9208      31.421958     -720.39282      281.68117      9650.1787      0.89279161     0.6888165    
     24000  -4115.1133     -4146.7818      31.668527      1137.8697      283.89152      9684.7865      0.88960129     0.65296993   
     24100  -4114.7297     -4147.3502      32.620482     -1933.501       292.4253       9701.4643      0.88807197     0.65296993   
     24200  -4114.3495     -4147.2396      32.890126      968.15454      294.84252      9699.8496      0.88821981     0.65296993   
     24300  -4113.779      -4146.2274      32.448433      2357.0435      290.88297      9680.359       0.89000817     0.65296993   
     24400  -4113.3642     -4146.3809      33.01669      -999.40761      295.97709      9644.592       0.89330877     0.65296993   
     24500  -4111.4195     -4145.026       33.606463     -258.48915      301.2641       9597.5062      0.89769138     0.65296993   
     24600  -4111.165      -4145.1535      33.98847       572.02106      304.68858      9551.9339      0.90197426     0.65296993   
     24700  -4111.8162     -4146.0077      34.191501      759.99435      306.50865      9521.0273      0.9049022      0.65296993   
     24800  -4111.8691     -4145.6335      33.764385      437.95113      302.67978      9516.8947      0.90529515     0.65296993   
     24900  -4112.7018     -4145.9901      33.288304     -382.77744      298.41196      9536.3324      0.9034499      0.65296993   
     25000  -4111.5091     -4145.2154      33.706304      1830.6246      302.15911      9571.0917      0.90016885     0.72233864   
     25100  -4112.796      -4145.5293      32.733338     -1962.069       293.43699      9617.3293      0.89584107     0.72233864   
     25200  -4114.1016     -4146.2062      32.104557     -2311.2663      287.8003       9658.4012      0.89203155     0.72233864   
     25300  -4113.1417     -4146.5396      33.39794       169.7983       299.39479      9689.6322      0.88915641     0.72233864   
     25400  -4113.0683     -4146.575       33.506686      1793.7984      300.36965      9708.2699      0.88744943     0.72233864   
     25500  -4111.7911     -4145.4129      33.62178      -457.25444      301.4014       9710.6444      0.88723243     0.72233864   
     25600  -4113.2416     -4146.8344      33.592867     -2523.0428      301.14221      9699.0107      0.88829664     0.72233864   
     25700  -4112.83       -4145.5945      32.764531     -4018.2866      293.71662      9675.84        0.89042384     0.72233864   
     25800  -4113.7546     -4146.8093      33.054659     -3374.8884      296.31747      9641.0617      0.89363587     0.72233864   
     25900  -4111.5369     -4146.1715      34.634534      1154.7647      310.4802       9600.5038      0.89741109     0.72233864   
     26000  -4111.0537     -4146.1557      35.102035      3239.3419      314.6711       9568.0785      0.90045233     0.71097131   
     26100  -4110.1523     -4144.7293      34.577009      1002.8175      309.96453      9550.3678      0.90212218     0.71097131   
     26200  -4111.461      -4145.8613      34.400293      578.12893      308.38036      9554.9344      0.90169103     0.71097131   
     26300  -4112.9496     -4146.8827      33.933094     -1327.869       304.19217      9578.3595      0.89948582     0.71097131   
     26400  -4112.876      -4146.5992      33.723268      1853.1801      302.31119      9611.0343      0.89642783     0.71097131   
     26500  -4114.9328     -4145.4972      30.564461      489.52762      273.99416      9646.1177      0.89316748     0.71097131   
     26600  -4115.0936     -4147.7351      32.641554     -1793.4709      292.61419      9675.5679      0.89044888     0.71097131   
     26700  -4114.8003     -4147.1499      32.349605      1191.0729      289.99703      9696.7297      0.88850559     0.71097131   
     26800  -4114.441      -4147.3676      32.926605     -1734.5729      295.16953      9708.093       0.8874656      0.71097131   
     26900  -4113.3513     -4146.394       33.042799     -1690.0358      296.21115      9702.85        0.88794515     0.71097131   
     27000  -4112.815      -4146.2123      33.397272     -250.09683      299.38881      9684.1724      0.8896577      0.91065294   
     27100  -4113.8648     -4146.1471      32.28226      -925.11471      289.39332      9654.9156      0.89235359     0.91065294   
     27200  -4113.1109     -4147.3466      34.235725      3194.9102      306.90509      9622.8969      0.89532275     0.91065294   
     27300  -4112.6223     -4146.5763      33.954058      270.3396       304.3801       9597.2789      0.89771264     0.91065294   
     27400  -4112.7999     -4146.4419      33.641974      285.73981      301.58243      9579.9921      0.89933254     0.91065294   
     27500  -4113.2908     -4145.8379      32.547105      947.03009      291.76751      9567.6465      0.90049299     0.91065294   
     27600  -4112.52       -4145.8474      33.327424      359.17243      298.76266      9562.1441      0.90101117     0.91065294   
     27700  -4112.6108     -4145.8385      33.227753      482.14432      297.86916      9566.4273      0.90060775     0.91065294   
     27800  -4112.8194     -4146.2231      33.403701     -731.16691      299.44644      9581.5729      0.89918416     0.91065294   
     27900  -4112.6043     -4146.6427      34.038383      115.9508       305.13602      9606.9213      0.89681161     0.91065294   
     28000  -4111.271      -4145.4879      34.216952      989.83688      306.7368       9637.3185      0.89398297     0.72450847   
     28100  -4111.9484     -4146.0489      34.100496     -2771.8832      305.69284      9668.3625      0.89111249     0.72450847   
     28200  -4110.4529     -4145.2285      34.775587      1049.6213      311.74467      9692.1285      0.8889274      0.72450847   
     28300  -4108.9458     -4143.122       34.176222     -123.56118      306.37168      9707.413       0.88752777     0.72450847   
     28400  -4110.8544     -4145.4974      34.643006     -14.912794      310.55615      9718.5246      0.88651302     0.72450847   
     28500  -4110.4706     -4145.9442      35.47361      -3137.0619      318.00207      9719.0865      0.88646177     0.72450847   
     28600  -4111.8882     -4145.0357      33.147431     -1552.5464      297.14911      9705.36        0.88771551     0.72450847   
     28700  -4112.5426     -4146.218       33.675394     -645.34821      301.88202      9681.4794      0.88990517     0.72450847   
     28800  -4112.7471     -4146.405       33.657864     -2594.3478      301.72487      9651.5429      0.89266542     0.72450847   
     28900  -4113.6309     -4146.5834      32.952505     -732.55449      295.40171      9617.7119      0.89580544     0.72450847   
     29000  -4113.6942     -4146.9185      33.224305      1232.1748      297.83825      9583.2797      0.89902402     0.65443407   
     29100  -4113.4168     -4146.7546      33.337788     -351.7458       298.85556      9552.2397      0.90194539     0.65443407   
     29200  -4114.9335     -4147.4101      32.47665       1143.6692      291.13592      9530.6487      0.90398869     0.65443407   
     29300  -4114.0428     -4147.6714      33.628601      932.24296      301.46255      9523.8853      0.90463065     0.65443407   
     29400  -4114.6519     -4148.1008      33.448936      1759.5017      299.85195      9539.2824      0.90317052     0.65443407   
     29500  -4114.2774     -4147.6468      33.369473      2419.7284      299.1396       9576.3106      0.89967827     0.65443407   
     29600  -4114.9212     -4146.456       31.534774      799.10268      282.6925       9626.0413      0.8950303      0.65443407   
     29700  -4115.6635     -4147.8938      32.230314     -608.4551       288.92765      9672.1725      0.89076147     0.65443407   
     29800  -4114.6548     -4147.2023      32.547539      694.26689      291.7714       9707.4152      0.88752757     0.65443407   
     29900  -4115.7201     -4146.9342      31.214117      1758.2587      279.81798      9728.6681      0.8855887      0.65443407   
     30000  -4113.6036     -4146.7739      33.170389      1375.549       297.35492      9728.4887      0.88560504     0.76909775   
     30100  -4113.5057     -4146.7038      33.198091     -2240.4633      297.60325      9704.0517      0.88783519     0.76909775   
     30200  -4113.9989     -4145.7614      31.762487     -1448.6015      284.73383      9660.618       0.89182686     0.76909775   
     30300  -4113.7847     -4145.9338      32.149093      2826.8499      288.19955      9602.1582      0.89725647     0.76909775   
     30400  -4114.1902     -4147.1659      32.975673      1355.1305      295.6094       9546.6057      0.90247768     0.76909775   
     30500  -4114.4722     -4146.7641      32.291898      1324.987       289.47972      9504.6505      0.90646138     0.76909775   
     30600  -4114.3871     -4146.0918      31.704738     -246.00481      284.21614      9481.4398      0.90868041     0.76909775   
     30700  -4114.1996     -4146.0634      31.863767     -400.6783       285.64175      9482.4696      0.90858173     0.76909775   
     30800  -4113.7142     -4145.9961      32.281955      2393.1508      289.39058      9509.6758      0.90598237     0.76909775   
     30900  -4114.1805     -4148.5034      34.322899     -136.91048      307.68656      9560.1575      0.9011984      0.76909775   
     31000  -4114.5635     -4147.0134      32.449951     -371.06024      290.89658      9619.2258      0.89566445     0.65482218   
     31100  -4112.4504     -4146.0893      33.638871     -1239.0499      301.55461      9672.2843      0.89075117     0.65482218   
     31200  -4112.2975     -4144.8699      32.572465      806.70774      291.99485      9713.127       0.88700565     0.65482218   
     31300  -4112.2144     -4145.6971      33.482704     -3253.9579      300.15466      9739.8193      0.88457479     0.65482218   
     31400  -4111.7168     -4144.4683      32.751502      215.60997      293.59982      9746.9995      0.88392316     0.65482218   
     31500  -4111.7112     -4145.0637      33.352449     -1044.9311      298.98699      9731.7862      0.88530496     0.65482218   
     31600  -4112.5565     -4145.8802      33.32368      -2161.4459      298.72909      9697.7369      0.88841332     0.65482218   
     31700  -4112.4597     -4146.1133      33.653596     -1776.9042      301.68662      9651.4028      0.89267838     0.65482218   
     31800  -4111.1662     -4146.2004      35.034175     -556.08827      314.06277      9602.9818      0.89717952     0.65482218   
     31900  -4110.9271     -4145.4482      34.521071      718.82441      309.46307      9567.0809      0.90054623     0.65482218   
     32000  -4111.7642     -4145.2327      33.468456     -458.77446      300.02694      9550.8288      0.90207863     0.7237418    
     32100  -4112.1257     -4145.5553      33.429648      4393.9057      299.67904      9549.8551      0.90217061     0.7237418    
     32200  -4112.6161     -4146.0942      33.478192      1201.534       300.11422      9567.1333      0.9005413      0.7237418    
     32300  -4112.9565     -4146.3991      33.442665     -1586.6235      299.79573      9599.1829      0.89753458     0.7237418    
     32400  -4113.3456     -4145.9259      32.580345     -788.26977      292.06549      9635.3797      0.89416285     0.7237418    
     32500  -4112.6689     -4146.0461      33.377242      114.45436      299.20924      9669.3913      0.89101768     0.7237418    
     32600  -4112.8123     -4145.5809      32.768635     -1779.6942      293.75341      9695.0343      0.88866097     0.7237418    
     32700  -4113.5232     -4147.07        33.546781     -1665.8446      300.72908      9711.763       0.88713024     0.7237418    
     32800  -4112.1964     -4144.6598      32.463471     -421.2309       291.01777      9715.0072      0.88683399     0.7237418    
     32900  -4112.8076     -4145.7573      32.949673      567.415        295.37632      9704.6835      0.88777739     0.7237418    
     33000  -4112.4186     -4145.6325      33.21392      -1741.6026      297.74515      9681.8464      0.88987143     0.78424922   
     33100  -4113.2722     -4146.8921      33.619823     -608.54607      301.38386      9652.1242      0.89261166     0.78424922   
     33200  -4114.0694     -4146.2402      32.170794     -226.93457      288.39408      9619.9184      0.89559997     0.78424922   
     33300  -4113.7207     -4147.2493      33.528651     -90.590184      300.56655      9589.6905      0.89842301     0.78424922   
     33400  -4113.2096     -4146.2574      33.047782      1553.9531      296.25581      9563.318       0.90090056     0.78424922   
     33500  -4113.612      -4147.0127      33.400648      2181.6058      299.41907      9548.2301      0.90232415     0.78424922   
     33600  -4114.4523     -4147.5425      33.090195      3092.6824      296.63602      9548.7167      0.90227816     0.78424922   
     33700  -4114.8677     -4146.9397      32.07201       266.53653      287.50853      9563.6498      0.90086931     0.78424922   
     33800  -4115.1945     -4147.5271      32.332628      762.31446      289.84484      9585.8811      0.89878004     0.78424922   
     33900  -4114.1831     -4146.2976      32.114503     -1831.9809      287.88946      9607.5844      0.89674971     0.78424922   
     34000  -4114.7177     -4146.5905      31.872836     -2704.6931      285.72305      9620.5207      0.8955439      0.74352555   
     34100  -4114.1436     -4146.6041      32.460519      341.29042      290.99131      9626.4896      0.89498862     0.74352555   
     34200  -4113.9469     -4146.7128      32.765845      3385.5337      293.7284       9628.2946      0.89482083     0.74352555   
     34300  -4114.3123     -4147.071       32.758608     -1000.8978      293.66352      9627.6551      0.89488027     0.74352555   
     34400  -4114.766      -4147.715       32.948969      219.45574      295.37001      9621.2288      0.89547799     0.74352555   
     34500  -4113.6937     -4147.673       33.979316     -484.12325      304.60652      9608.088       0.89670271     0.74352555   
     34600  -4114.1333     -4148.0259      33.892604      1688.6312      303.82919      9592.0852      0.89819871     0.74352555   
     34700  -4113.0423     -4146.7019      33.659638      1290.5948      301.74078      9575.4264      0.89976135     0.74352555   
     34800  -4111.5092     -4147.231       35.721765     -1398.7907      320.22666      9564.9356      0.9007482      0.74352555   
     34900  -4111.7157     -4145.4709      33.755161      3896.8004      302.59709      9566.1991      0.90062923     0.74352555   
     35000  -4112.5344     -4146.434       33.899579     -1212.2089      303.89172      9579.6265      0.89936685     0.72132642   
     35100  -4111.9251     -4146.2084      34.283361      2401.5089      307.33212      9601.8165      0.8972884      0.72132642   
     35200  -4111.8518     -4145.6194      33.767544     -531.09347      302.7081       9631.1096      0.8945593      0.72132642   
     35300  -4113.1152     -4146.2082      33.092998     -2184.6757      296.66115      9657.5885      0.89210662     0.72132642   
     35400  -4113.846      -4145.5507      31.70474       409.82444      284.21616      9673.6225      0.89062795     0.72132642   
     35500  -4115.2465     -4147.6496      32.403137     -3198.6042      290.47692      9674.5976      0.89053819     0.72132642   
     35600  -4114.1643     -4146.8928      32.72848      -654.52525      293.39344      9652.9621      0.89253418     0.72132642   
     35700  -4113.765      -4147.6293      33.864325     -226.7426       303.57569      9619.7621      0.89561452     0.72132642   
     35800  -4113.2387     -4146.4526      33.213972      96.804277      297.74562      9586.4665      0.89872515     0.72132642   
     35900  -4113.1142     -4147.0015      33.887276      2387.5706      303.78144      9562.8002      0.90094935     0.72132642   
     36000  -4111.477      -4146.7819      35.304911      2238.1816      316.48978      9552.542       0.90191685     0.78666907   
     36100  -4111.5463     -4145.1069      33.560592     -2339.3018      300.85289      9557.1005      0.90148666     0.78666907   
     36200  -4111.6246     -4145.421       33.796338      1177.0469      302.96622      9574.0423      0.89989143     0.78666907   
     36300  -4112.0862     -4144.9087      32.822468     -911.57078      294.236        9599.6311      0.89749268     0.78666907   
     36400  -4113.3806     -4146.8429      33.462212     -420.93307      299.97096      9632.9138      0.89439175     0.78666907   
     36500  -4112.995      -4145.7433      32.748259     -314.82285      293.57075      9664.8502      0.89143633     0.78666907   
     36600  -4112.3775     -4146.0058      33.628326      553.94512      301.46008      9688.8899      0.88922453     0.78666907   
     36700  -4112.8406     -4146.1351      33.294507     -2.2645351      298.46757      9700.2095      0.88818686     0.78666907   
     36800  -4115.6811     -4149.4368      33.755709     -3126.0545      302.602        9701.0108      0.88811349     0.78666907   
     36900  -4115.9962     -4147.9397      31.943551     -1001.9307      286.35697      9686.598       0.88943493     0.78666907   
     37000  -4115.7973     -4148.7327      32.935371     -623.58812      295.24811      9657.1352      0.89214849     0.75582293   
     37100  -4115.3458     -4147.3085      31.962759      745.76378      286.52916      9617.7679      0.89580021     0.75582293   
     37200  -4115.9871     -4148.4058      32.418702     -158.03924      290.61644      9579.936       0.8993378      0.75582293   
     37300  -4116.0594     -4148.3622      32.302831      2290.2223      289.57772      9549.2121      0.90223136     0.75582293   
     37400  -4115.7901     -4148.2655      32.475462      4094.051       291.12527      9531.3748      0.90391982     0.75582293   
     37500  -4115.6541     -4147.9918      32.337708      1298.2653      289.89038      9530.2237      0.904029       0.75582293   
     37600  -4115.0667     -4146.8872      31.820453      787.58117      285.25346      9539.3803      0.90316125     0.75582293   
     37700  -4114.576      -4146.4354      31.859436      1155.2967      285.60292      9558.469       0.90135759     0.75582293   
     37800  -4114.3593     -4146.5483      32.18894      -933.55227      288.55675      9584.1126      0.89894588     0.75582293   
     37900  -4114.293      -4145.3139      31.020851      700.97195      278.08545      9613.2038      0.89622552     0.75582293   
     38000  -4114.8672     -4147.0135      32.146264     -2105.4305      288.17418      9641.9526      0.8935533      0.75015826   
     38100  -4114.6672     -4147.1007      32.433427     -1871.6041      290.74845      9662.7779      0.89162751     0.75015826   
     38200  -4113.892      -4147.6611      33.769038     -1735.9935      302.72149      9674.9943      0.89050167     0.75015826   
     38300  -4115.2348     -4147.1735      31.938678     -721.15364      286.31329      9673.3051      0.89065717     0.75015826   
     38400  -4114.4631     -4147.0274      32.564255      2466.2161      291.92125      9659.2198      0.89195595     0.75015826   
     38500  -4114.0331     -4147.0429      33.009752     -1147.8277      295.91489      9640.2379      0.89371224     0.75015826   
     38600  -4114.8407     -4146.8863      32.045658      993.64383      287.27231      9617.3535      0.89583882     0.75015826   
     38700  -4113.3493     -4145.7334      32.384089     -1457.1579      290.30616      9596.9983      0.89773889     0.75015826   
     38800  -4114.2095     -4147.6806      33.47113      -1742.5342      300.05091      9586.3848      0.89873281     0.75015826   
     38900  -4113.8572     -4147.2691      33.411963      1072.5623      299.5205       9582.2372      0.89912182     0.75015826   
     39000  -4113.7226     -4146.1113      32.388651      1308.989       290.34705      9591.9963      0.89820704     0.69075131   
     39100  -4110.3635     -4144.9125      34.548991      692.95561      309.71336      9613.8103      0.89616898     0.69075131   
     39200  -4111.9211     -4145.1617      33.24057      -43.9782        297.98406      9640.6641      0.89367273     0.69075131   
     39300  -4113.3259     -4145.5402      32.214263      2336.4755      288.78376      9668.2354      0.8911242      0.69075131   
     39400  -4113.726      -4146.681       32.955052      1175.9134      295.42454      9687.7198      0.88933193     0.69075131   
     39500  -4112.878      -4146.2225      33.344534     -1802.0887      298.91604      9697.6841      0.88841815     0.69075131   
     39600  -4113.5369     -4147.4008      33.863874     -800.32156      303.57164      9703.1016      0.88792213     0.69075131   
     39700  -4112.7207     -4145.5975      32.876793     -1144.1913      294.72299      9697.9877      0.88839034     0.69075131   
     39800  -4112.9495     -4144.2196      31.270138      937.52612      280.32018      9680.8391      0.88996403     0.69075131   
     39900  -4113.8304     -4147.2788      33.448366      1170.0074      299.84683      9656.0114      0.89225232     0.69075131   
     40000  -4112.8415     -4146.2462      33.404721     -1177.9831      299.45559      9628.6533      0.8947875      0.68433838   
     40100  -4112.6229     -4144.906       32.28302       271.08928      289.40013      9601.2923      0.89733739     0.68433838   
     40200  -4112.7616     -4146.371       33.609348      1197.6892      301.28995      9578.9807      0.89942749     0.68433838   
     40300  -4113.3781     -4147.6745      34.296455      244.40965      307.44951      9562.887       0.90094116     0.68433838   
     40400  -4113.9991     -4146.5859      32.586783      3302.8797      292.1232       9559.3767      0.901272       0.68433838   
     40500  -4114.1308     -4146.8563      32.7255       -21.616812      293.36673      9571.9218      0.90009078     0.68433838   
     40600  -4113.1362     -4147.2798      34.143607      1559.3016      306.0793       9594.6111      0.89796225     0.68433838   
     40700  -4113.9076     -4146.9979      33.090374      849.5134       296.63763      9627.9499      0.89485287     0.68433838   
     40800  -4112.9192     -4146.2149      33.29564      -41.754038      298.47773      9663.7615      0.89153676     0.68433838   
     40900  -4112.5937     -4145.5449      32.951155      615.36108      295.3896       9693.0758      0.88884053     0.68433838   
     41000  -4111.7886     -4144.0425      32.253905     -1164.303       289.13913      9712.2306      0.88708753     0.68121012   
     41100  -4111.6904     -4145.8076      34.117165     -2018.5948      305.84227      9723.4717      0.88606198     0.68121012   
     41200  -4112.5896     -4146.4285      33.838907     -502.26587      303.34783      9724.9954      0.88592315     0.68121012   
     41300  -4112.4204     -4147.1854      34.764939     -3560.6158      311.64921      9710.4847      0.88724702     0.68121012   
     41400  -4113.209      -4145.7004      32.491496      215.46171      291.26901      9684.4214      0.88963483     0.68121012   
     41500  -4113.5085     -4146.3693      32.860822     -486.61882      294.57982      9649.5559      0.89284923     0.68121012   
     41600  -4116.1406     -4149.6275      33.486946     -1291.0484      300.19268      9611.0094      0.89643014     0.68121012   
     41700  -4115.4636     -4148.0652      32.601636      863.80413      292.25635      9567.9668      0.90046284     0.68121012   
     41800  -4116.0412     -4148.2209      32.179687      1389.3763      288.4738       9533.0807      0.90375807     0.68121012   
     41900  -4114.6554     -4146.9827      32.327307     -549.79145      289.79714      9510.0261      0.905949       0.68121012   
     42000  -4114.2991     -4147.6177      33.318605      673.59402      298.6836       9502.5395      0.90666275     0.80863812   
     42100  -4113.7939     -4146.401       32.607093      891.91729      292.30527      9515.9999      0.90538027     0.80863812   
     42200  -4113.5863     -4146.497       32.910699     -790.06474      295.02694      9550.1089      0.90214663     0.80863812   
     42300  -4113.8497     -4145.2987      31.448985      15.6832        281.92344      9594.6916      0.89795472     0.80863812   
     42400  -4113.4849     -4147.3745      33.889581     -1400.3435      303.80209      9641.9991      0.89354899     0.80863812   
     42500  -4112.876      -4146.3278      33.451885      1484.6355      299.87838      9685.8022      0.88950801     0.80863812   
     42600  -4112.6992     -4145.5663      32.867162     -1751.3151      294.63665      9718.5386      0.88651174     0.80863812   
     42700  -4112.0224     -4142.7394      30.716958     -3496.1042      275.36122      9731.2375      0.88535488     0.80863812   
     42800  -4111.3467     -4145.2946      33.947931     -2278.3114      304.32517      9723.4267      0.88606608     0.80863812   
     42900  -4111.3388     -4144.9179      33.579115      1040.5884      301.01893      9694.5112      0.88870892     0.80863812   
     43000  -4111.7881     -4147.2083      35.420163     -172.72397      317.52295      9651.3545      0.89268285     0.73295863   
     43100  -4112.0688     -4145.5346      33.465822      2363.6656      300.00332      9597.4997      0.89769198     0.73295863   
     43200  -4111.9689     -4147.0487      35.079838      1296.5791      314.47212      9541.3566      0.90297417     0.73295863   
     43300  -4112.5976     -4145.6075      33.009919     -632.58103      295.91639      9492.9296      0.90758059     0.73295863   
     43400  -4113.0503     -4145.1659      32.115597      2244.73        287.89927      9460.1516      0.91072521     0.73295863   
     43500  -4112.8493     -4146.7323      33.883012      512.32354      303.74321      9450.0764      0.91169619     0.73295863   
     43600  -4114.4048     -4146.9728      32.568047      2090.6136      291.95524      9464.6435      0.91029298     0.73295863   
     43700  -4113.737      -4146.8179      33.080929      61.993399      296.55296      9503.0076      0.90661809     0.73295863   
     43800  -4113.9081     -4146.7865      32.878418      2459.894       294.73756      9564.1044      0.90082649     0.73295863   
     43900  -4114.5772     -4147.2774      32.700192      621.0237       293.13985      9641.0674      0.89363535     0.73295863   
     44000  -4114.6065     -4146.1757      31.569151     -1016.5278      283.00067      9717.3073      0.88662407     0.72453211   
     44100  -4113.5848     -4146.0243      32.439451      421.92232      290.80245      9774.7882      0.88141026     0.72453211   
     44200  -4114.9264     -4146.3471      31.420662     -5081.8388      281.66955      9801.6624      0.87899361     0.72453211   
     44300  -4113.7047     -4146.4619      32.757235     -3006.9986      293.65121      9791.7076      0.87988724     0.72453211   
     44400  -4112.6793     -4145.5915      32.912197     -916.70936      295.04036      9748.9441      0.88374685     0.72453211   
     44500  -4112.0721     -4146.6298      34.557637     -1508.762       309.79086      9683.885       0.88968411     0.72453211   
     44600  -4111.9167     -4145.9263      34.009611      358.46652      304.8781       9611.2475      0.89640794     0.72453211   
     44700  -4112.3404     -4146.4406      34.10023      -988.84214      305.69045      9545.2769      0.90260332     0.72453211   
     44800  -4110.7745     -4145.2973      34.522767      2645.0966      309.47827      9494.4472      0.90743551     0.72453211   
     44900  -4111.9867     -4146.4903      34.50353       54.243026      309.30582      9468.835       0.90989003     0.72453211   
     45000  -4111.6409     -4145.6157      33.974728      1000.053       304.56539      9471.5518      0.90962904     0.63877483   
     45100  -4112.7444     -4145.5492      32.80487      -2.0211654      294.07824      9499.8419      0.90692021     0.63877483   
     45200  -4110.8024     -4144.7504      33.947959      1120.1218      304.32542      9544.741       0.902654       0.63877483   
     45300  -4112.2222     -4146.6954      34.473175     -1537.9834      309.03371      9601.5873      0.89730982     0.63877483   
     45400  -4113.0438     -4147.4424      34.398571      440.85905      308.36492      9657.3618      0.89212756     0.63877483   
     45500  -4112.9971     -4146.0205      33.023375      444.01001      296.03702      9703.1468      0.88791799     0.63877483   
     45600  -4113.1602     -4146.9312      33.771018      286.16729      302.73924      9731.5966      0.88532221     0.63877483   
     45700  -4112.8092     -4146.2832      33.47403       1725.021       300.0769       9736.6791      0.88486007     0.63877483   
     45800  -4112.3885     -4145.4083      33.019746      45.224218      296.00449      9722.4781      0.88615253     0.63877483   
     45900  -4111.2781     -4145.0651      33.78697      -1956.2039      302.88225      9698.504       0.88834305     0.63877483   
     46000  -4110.2541     -4145.4491      35.195043      1435.4786      315.50487      9672.4594      0.89073505     0.7294613    
     46100  -4111.3693     -4144.3925      33.023151     -1880.1884      296.03501      9648.1569      0.8929787      0.7294613    
     46200  -4111.7048     -4145.3567      33.651917     -906.52916      301.67157      9627.8648      0.89486078     0.7294613    
     46300  -4112.3226     -4144.4927      32.170115     -69.892771      288.388        9611.049       0.89642645     0.7294613    
     46400  -4112.4015     -4146.493       34.09149       584.38496      305.61211      9601.2256      0.89734363     0.7294613    
     46500  -4112.6824     -4145.1353      32.452902     -1217.6834      290.92303      9599.0755      0.89754462     0.7294613    
     46600  -4113.2923     -4145.2863      31.993977     -30.14739       286.80901      9600.33        0.89742734     0.7294613    
     46700  -4113.2726     -4145.2573      31.984663     -254.70131      286.72552      9605.1992      0.8969724      0.7294613    
     46800  -4113.0571     -4147.0016      33.944467     -2252.2278      304.29412      9612.6139      0.89628052     0.7294613    
     46900  -4112.9278     -4146.4439      33.516016      1120.855       300.45329      9619.747       0.89561593     0.7294613    
     47000  -4113.8877     -4147.4137      33.526001      738.63471      300.54279      9628.2871      0.89482153     0.67671      
     47100  -4113.3412     -4146.1917      32.850475     -416.85661      294.48706      9634.0954      0.89428205     0.67671      
     47200  -4114.4068     -4146.5641      32.157353      930.6166       288.27359      9629.6649      0.8946935      0.67671      
     47300  -4114.7145     -4148.2782      33.563685      1056.1706      300.88061      9619.9652      0.89559561     0.67671      
     47400  -4115.0951     -4146.5022      31.407136     -425.91528      281.54829      9608.0382      0.89670736     0.67671      
     47500  -4114.7902     -4146.9832      32.192974     -548.97213      288.59292      9596.3043      0.89780381     0.67671      
     47600  -4113.6051     -4146.756       33.150922     -5020.1873      297.18041      9585.012       0.89886154     0.67671      
     47700  -4114.4778     -4146.7708      32.292942      2554.5601      289.48907      9579.0113      0.89942462     0.67671      
     47800  -4115.5622     -4147.5542      31.992003      117.73547      286.79132      9581.8197      0.899161       0.67671      
     47900  -4114.7378     -4147.4704      32.732582     -1219.4898      293.43021      9590.3032      0.89836561     0.67671      
     48000  -4114.0994     -4145.72        31.620581      789.9584       283.46172      9598.4946      0.89759894     0.74585635   
     48100  -4112.8205     -4146.4768      33.65624      -95.082287      301.71032      9614.016       0.89614981     0.74585635   
     48200  -4114.224      -4147.3414      33.117319      1496.8409      296.87917      9640.5926      0.89367936     0.74585635   
     48300  -4115.1094     -4148.3         33.190603     -1279.5808      297.53613      9671.344       0.89083778     0.74585635   
     48400  -4114.2799     -4146.933       32.653151      123.32312      292.71816      9695.9044      0.88858122     0.74585635   
     48500  -4114.5872     -4147.0691      32.481976     -2571.5452      291.18366      9710.9082      0.88720833     0.74585635   
     48600  -4114.1845     -4146.4705      32.286051      810.87059      289.4273       9709.234       0.88736131     0.74585635   
     48700  -4114.275      -4147.717       33.442016     -123.3649       299.78992      9691.4609      0.88898864     0.74585635   
     48800  -4114.9446     -4147.5992      32.654536     -2789.3597      292.73057      9660.8437      0.89180602     0.74585635   
     48900  -4114.4608     -4147.4349      32.974116      266.59085      295.59544      9623.0554      0.89530801     0.74585635   
     49000  -4114.7572     -4146.3368      31.579591      1735.7665      283.09426      9585.373       0.89882768     0.76228957   
     49100  -4114.607      -4147.0899      32.482957      2463.3645      291.19246      9553.1189      0.90186239     0.76228957   
     49200  -4116.3348     -4149.2572      32.922372     -798.73234      295.13158      9534.2321      0.90364892     0.76228957   
     49300  -4115.3233     -4148.455       33.131633     -1452.6009      297.0075       9529.9926      0.90405092     0.76228957   
     49400  -4115.0055     -4147.3899      32.384371      301.44465      290.30869      9544.9974      0.90262975     0.76228957   
     49500  -4113.7185     -4146.799       33.080446      1154.6318      296.54863      9578.9145      0.89943371     0.76228957   
     49600  -4115.1104     -4146.8692      31.758813      341.3381       284.70089      9621.4614      0.89545634     0.76228957   
     49700  -4114.509      -4146.9659      32.456986      1403.2733      290.95964      9667.0784      0.89123086     0.76228957   
     49800  -4112.9256     -4146.7111      33.785498     -3159.1546      302.86905      9706.7832      0.88758535     0.76228957   
     49900  -4113.6052     -4145.5338      31.928565      519.58789      286.22263      9731.49        0.88533191     0.76228957   
     50000  -4114.7385     -4145.7522      31.013674     -1790.6076      278.02111      9736.9993      0.88483097     0.91990393   
     50100  -4113.7244     -4146.9293      33.204931     -3567.1872      297.66457      9721.2787      0.88626187     0.91990393   
     50200  -4114.6569     -4147.6065      32.949529      1091.9899      295.37502      9686.8674      0.88941019     0.91990393   
     50300  -4114.0747     -4147.0144      32.939763     -199.43258      295.28748      9642.944       0.89346143     0.91990393   
     50400  -4114.0568     -4146.0277      31.970909     -5.9884447      286.60222      9595.8201      0.89784911     0.91990393   
     50500  -4114.6937     -4146.9744      32.28071      -857.00601      289.37942      9553.9727      0.90178179     0.91990393   
     50600  -4114.9814     -4147.8536      32.872186     -1002.1439      294.68169      9519.8528      0.90501385     0.91990393   
     50700  -4113.5935     -4146.8823      33.288735      1228.8589      298.41583      9499.0094      0.90699969     0.91990393   
     50800  -4114.3093     -4147.577       33.267722      2801.3664      298.22746      9501.2723      0.90678367     0.91990393   
     50900  -4114.5643     -4146.862       32.297683      1041.5442      289.53158      9524.5166      0.90457069     0.91990393   
     51000  -4113.245      -4146.0161      32.771108      1125.0732      293.77558      9563.4156      0.90089137     0.73737209   
     51100  -4114.3078     -4146.477       32.169191     -1011.8899      288.37971      9616.0766      0.89595777     0.73737209   
     51200  -4113.9087     -4146.2052      32.296553     -1352.8556      289.52145      9674.4384      0.89055284     0.73737209   
     51300  -4113.9681     -4145.8849      31.916865     -3.1368336      286.11775      9727.2036      0.88572203     0.73737209   
     51400  -4113.2998     -4145.5688      32.26898       1965.3385      289.27427      9761.7663      0.88258603     0.73737209   
     51500  -4113.2606     -4145.4485      32.18787      -3644.0541      288.54716      9770.2614      0.88181863     0.73737209   
     51600  -4112.6264     -4145.7325      33.106086     -6033.2527      296.77848      9754.4463      0.88324835     0.73737209   
     51700  -4111.482      -4144.9474      33.465394      373.55712      299.99948      9717.2731      0.8866272      0.73737209   
     51800  -4113.0807     -4146.6618      33.581011     -90.625356      301.03593      9671.0953      0.89086069     0.73737209   
     51900  -4113.0927     -4146.2594      33.166662      1613.2782      297.32151      9619.966       0.89559553     0.73737209   
     52000  -4113.1072     -4146.0585      32.951258      710.39899      295.39053      9571.626       0.9001186      0.70034394   
     52100  -4113.0856     -4146.635       33.549479     -748.25793      300.75326      9534.769       0.90359804     0.70034394   
     52200  -4113.0623     -4145.729       32.666712      2033.8946      292.83972      9512.8623      0.90567889     0.70034394   
     52300  -4112.9085     -4144.8587      31.950136      1588.5928      286.416        9508.8613      0.90605997     0.70034394   
     52400  -4112.6302     -4146.0862      33.456028      3042.4023      299.91553      9518.4263      0.90514948     0.70034394   
     52500  -4112.4017     -4146.4319      34.030233      651.8355       305.06297      9543.0595      0.90281304     0.70034394   
     52600  -4112.1724     -4145.5561      33.383687      1750.7198      299.26702      9581.4607      0.89919469     0.70034394   
     52700  -4113.6036     -4146.2248      32.621199     -3178.6012      292.43172      9625.5597      0.89507508     0.70034394   
     52800  -4113.1899     -4147.224       34.034028      1795.8134      305.09699      9666.327       0.89130014     0.70034394   
     52900  -4113.9853     -4146.7188      32.733422      2253.3199      293.43775      9695.812       0.88858969     0.70034394   
     53000  -4113.9969     -4147.1516      33.154758     -40.331239      297.2148       9709.7401      0.88731505     0.7039255    
     53100  -4114.4419     -4146.4941      32.05226      -782.31712      287.33149      9703.6739      0.88786976     0.7039255    
     53200  -4114.5598     -4145.9463      31.386467     -722.42454      281.36301      9680.8167      0.88996609     0.7039255    
     53300  -4113.703      -4146.4038      32.700877      993.57034      293.146        9646.6064      0.89312223     0.7039255    
     53400  -4113.3921     -4147.7759      34.383804     -793.84227      308.23254      9609.7985      0.89654311     0.7039255    
     53500  -4112.6113     -4145.6641      33.052869     -70.462073      296.30141      9577.2603      0.89958906     0.7039255    
     53600  -4113.0125     -4145.7123      32.699769      1456.282       293.13607      9555.2371      0.90166246     0.7039255    
     53700  -4111.7597     -4144.718       32.958384      3547.7825      295.45441      9541.4152      0.90296863     0.7039255    
     53800  -4113.1406     -4145.5826      32.441937     -1385.3727      290.82474      9543.5355      0.90276801     0.7039255    
     53900  -4113.4914     -4146.0489      32.557476      851.05412      291.86048      9564.9473      0.9007471      0.7039255    
     54000  -4114.1295     -4148.1407      34.011218      478.6806       304.89251      9600.467       0.89741454     0.64715354   
     54100  -4113.6126     -4148.4467      34.834111      794.19471      312.2693       9643.0356      0.89345295     0.64715354   
     54200  -4113.2517     -4146.7127      33.460989      942.95957      299.95999      9688.3519      0.88927391     0.64715354   
     54300  -4113.7217     -4146.1348      32.413126     -460.97191      290.56646      9728.9398      0.88556397     0.64715354   
     54400  -4114.0237     -4146.2511      32.22743       981.91965      288.9018       9750.2809      0.88362568     0.64715354   
     54500  -4113.6138     -4146.5529      32.939067     -1073.3856      295.28124      9747.5588      0.88387244     0.64715354   
     54600  -4112.222      -4145.2343      33.012328      2197.8208      295.93799      9726.9404      0.88574601     0.64715354   
     54700  -4112.3942     -4146.6309      34.236648     -678.35335      306.91336      9700.3389      0.88817501     0.64715354   
     54800  -4112.9445     -4145.3816      32.437017     -238.72805      290.78063      9666.8556      0.8912514      0.64715354   
     54900  -4112.7653     -4145.0293      32.263932      394.48404      289.22901      9634.5137      0.89424323     0.64715354   
     55000  -4111.6608     -4145.5789      33.918052      308.72152      304.05733      9614.8328      0.89607368     0.84162544   
     55100  -4113.0364     -4145.4599      32.423493      537.69661      290.65939      9606.5917      0.89684238     0.84162544   
     55200  -4113.3953     -4145.8188      32.423538     -303.73335      290.6598       9606.1571      0.89688296     0.84162544   
     55300  -4113.0558     -4146.0579      33.002127      130.35502      295.84654      9611.8803      0.89634893     0.84162544   
     55400  -4112.8995     -4147.1144      34.214956      284.23456      306.71891      9627.7311      0.8948732      0.84162544   
     55500  -4112.5229     -4145.998       33.475059     -1035.0719      300.08612      9649.4207      0.89286175     0.84162544   
     55600  -4112.2019     -4146.023       33.821112     -496.17793      303.18831      9676.9569      0.89032106     0.84162544   
     55700  -4110.2735     -4144.0487      33.775107     -384.62654      302.7759       9703.5403      0.88788198     0.84162544   
     55800  -4109.7142     -4142.3907      32.676456     -132.64952      292.92707      9725.7117      0.8858579      0.84162544   
     55900  -4110.3444     -4144.6852      34.340712     -1817.5514      307.84625      9738.5937      0.88468611     0.84162544   
     56000  -4112.5798     -4145.5929      33.013044     -705.17956      295.9444       9735.255       0.88498951     0.69449519   
     56100  -4112.0865     -4146.1963      34.109835     -1843.4348      305.77655      9714.447       0.88688513     0.69449519   
     56200  -4112.4462     -4146.1619      33.715665     -571.92044      302.24303      9686.2876      0.88946343     0.69449519   
     56300  -4113.0917     -4145.2425      32.150828      1377.4302      288.2151       9654.7816      0.89236597     0.69449519   
     56400  -4114.2654     -4146.9762      32.710882     -1600.7821      293.23569      9628.4344      0.89480784     0.69449519   
     56500  -4113.5445     -4147.5077      33.96325       936.91535      304.4625       9603.5852      0.89712315     0.69449519   
     56600  -4113.8534     -4146.8805      33.027017     -759.79977      296.06966      9588.7668      0.89850955     0.69449519   
     56700  -4114.0982     -4147.699       33.600807      1571.3137      301.21339      9588.0231      0.89857925     0.69449519   
     56800  -4113.4584     -4145.1502      31.691786      1705.3567      284.10003      9596.772       0.89776006     0.69449519   
     56900  -4112.3119     -4147.2222      34.910292      3017.5629      312.95222      9619.3681      0.8956512      0.69449519   
     57000  -4113.3828     -4146.5447      33.161947      2603.0699      297.27924      9651.5057      0.89266886     0.74450988   
     57100  -4112.9008     -4145.2729      32.372117      618.73514      290.19884      9686.7885      0.88941744     0.74450988   
     57200  -4114.439      -4146.5545      32.115477     -2172.0454      287.8982       9718.4062      0.88652382     0.74450988   
[...]
    386100  -4112.3129     -4147.0534      34.740507      4005.7919      311.4302       9603.0639      0.89717185     0.73695612   
    386200  -4111.9403     -4145.1113      33.170927     -417.52143      297.35975      9665.1917      0.89140483     0.73695612   
    386300  -4112.2519     -4145.4735      33.221597     -1099.7317      297.81398      9736.2773      0.88489659     0.73695612   
    386400  -4112.9278     -4146.0739      33.146007     -1571.7067      297.13635      9796.4592      0.87946047     0.73695612   
    386500  -4112.9059     -4145.8694      32.963562     -980.63543      295.50082      9826.5173      0.87677031     0.73695612   
    386600  -4114.1677     -4146.6207      32.452996     -558.12413      290.92388      9816.7198      0.87764536     0.73695612   
    386700  -4115.1572     -4147.1594      32.002199     -1787.2234      286.88271      9763.4347      0.88243522     0.73695612   
    386800  -4115.5581     -4148.1359      32.57776      -2808.7172      292.04232      9672.0452      0.89077319     0.73695612   
    386900  -4117.1272     -4148.6802      31.553014      1556.0969      282.85601      9561.2356      0.90109678     0.73695612   
    387000  -4115.5931     -4148.1135      32.520393      3286.6638      291.52805      9453.8094      0.91133619     0.72546955   
    387100  -4115.1983     -4147.7333      32.53501       1437.3202      291.65908      9370.8589      0.9194033      0.72546955   
    387200  -4114.895      -4147.5783      32.68334       1262.1112      292.98879      9330.1923      0.92341062     0.72546955   
    387300  -4114.7395     -4146.3406      31.601048      4019.2331      283.28661      9337.665       0.92267163     0.72546955   
    387400  -4114.861      -4148.3627      33.501672      2363.4563      300.3247       9396.3638      0.91690773     0.72546955   
    387500  -4116.2116     -4149.522       33.310419      2843.3257      298.61022      9496.1245      0.90727523     0.72546955   
    387600  -4116.0253     -4148.7969      32.771535      2302.7007      293.77941      9613.3573      0.89621121     0.72546955   
    387700  -4115.4463     -4146.6983      31.252011      1469.0639      280.15768      9723.97        0.88601658     0.72546955   
    387800  -4116.0354     -4148.1787      32.143363     -1619.2276      288.14818      9804.2093      0.87876527     0.72546955   
    387900  -4114.6843     -4147.5056      32.82126      -1840.145       294.22516      9840.4943      0.87552498     0.72546955   
    388000  -4113.686      -4145.9079      32.22183      -2570.9281      288.85159      9829.5961      0.87649568     0.70178513   
    388100  -4114.6758     -4146.1394      31.463585     -2188.663       282.05433      9780.2602      0.88091711     0.70178513   
    388200  -4113.9098     -4146.7982      32.888399      910.63535      294.82703      9701.1495      0.88810079     0.70178513   
    388300  -4113.6326     -4146.8763      33.243777      1127.9599      298.01281      9615.265       0.8960334      0.70178513   
    388400  -4114.3442     -4146.8453      32.501107      700.56951      291.35517      9535.341       0.90354384     0.70178513   
    388500  -4114.3375     -4147.301       32.963421     -574.53998      295.49956      9474.8337      0.90931397     0.70178513   
    388600  -4114.5526     -4146.5914      32.038813      2873.6163      287.21094      9440.5056      0.91262046     0.70178513   
    388700  -4113.1978     -4146.4117      33.213882      1092.8976      297.74481      9438.3279      0.91283103     0.70178513   
    388800  -4114.4844     -4147.0622      32.577757     -2239.7103      292.04229      9466.6134      0.91010356     0.70178513   
    388900  -4114.5553     -4146.3154      31.760119     -623.02195      284.7126       9517.2001      0.90526609     0.70178513   
    389000  -4115.2813     -4147.8021      32.52075      -371.02235      291.53125      9578.9024      0.89943485     0.67265238   
    389100  -4114.6196     -4147.3139      32.694343      649.66501      293.08742      9637.6296      0.89395411     0.67265238   
    389200  -4114.7421     -4146.2959      31.553738      1764.3943      282.8625       9684.7857      0.88960137     0.67265238   
    389300  -4115.2376     -4146.7985      31.56085      -1639.8826      282.92625      9711.7582      0.88713067     0.67265238   
    389400  -4113.9323     -4146.2543      32.322072     -891.00528      289.75021      9714.2234      0.88690554     0.67265238   
    389500  -4112.2309     -4145.3703      33.139389     -1604.4812      297.07702      9694.699       0.88869171     0.67265238   
    389600  -4112.4752     -4146.1875      33.712349     -1121.6316      302.2133       9662.5188      0.89165142     0.67265238   
    389700  -4113.0265     -4145.3565      32.329933     -1170.5631      289.82068      9619.4076      0.89564752     0.67265238   
    389800  -4111.9494     -4146.6356      34.68621      -507.32366      310.94345      9571.9361      0.90008944     0.67265238   
    389900  -4111.6939     -4144.958       33.264028     -1926.6789      298.19434      9531.1504      0.9039411      0.67265238   
    390000  -4110.6577     -4144.5022      33.844498      478.15527      303.39795      9505.5102      0.90637939     0.70113393   
    390100  -4110.8153     -4144.09        33.274748      856.42799      298.29044      9499.6348      0.90693998     0.70113393   
    390200  -4111.9436     -4146.7599      34.816309      2068.2257      312.10972      9511.7141      0.90578822     0.70113393   
    390300  -4112.0305     -4146.4464      34.415891      189.53111      308.52019      9535.5078      0.90352804     0.70113393   
    390400  -4112.6593     -4144.3955      31.736265     -942.90014      284.49876      9568.0056      0.90045919     0.70113393   
    390500  -4111.8719     -4145.7356      33.863757     -1282.1112      303.5706       9607.7016      0.89673878     0.70113393   
    390600  -4112.1186     -4146.0956      33.977019     -673.56292      304.58593      9647.4567      0.89304351     0.70113393   
    390700  -4112.0305     -4145.6204      33.589912      625.13282      301.11572      9683.4066      0.88972806     0.70113393   
    390800  -4113.6268     -4145.1311      31.504283      809.40325      282.41916      9707.1451      0.88755226     0.70113393   
    390900  -4113.2542     -4145.9517      32.697555     -456.08786      293.11622      9714.2265      0.88690526     0.70113393   
    391000  -4115.3842     -4147.5608      32.176619     -664.7892       288.4463       9701.9688      0.8880258      0.68479329   
    391100  -4116.1288     -4148.6296      32.500727     -495.19887      291.35176      9669.4864      0.89100892     0.68479329   
    391200  -4115.7268     -4148.1253      32.398498      1956.3882      290.43533      9624.769       0.89514861     0.68479329   
    391300  -4115.5946     -4148.5704      32.975771      453.25224      295.61027      9574.1855      0.89987797     0.68479329   
    391400  -4115.3323     -4148.6242      33.291825     -110.75784      298.44353      9528.5314      0.90418956     0.68479329   
    391500  -4114.61       -4147.3864      32.776377      2224.121       293.82282      9491.3916      0.90772765     0.68479329   
    391600  -4114.5471     -4146.1705      31.623385      3518.0285      283.48685      9471.9719      0.9095887      0.68479329   
    391700  -4113.2304     -4146.1376      32.907138      683.1923       294.99501      9477.7337      0.90903573     0.68479329   
    391800  -4112.8437     -4147.6214      34.777722      1414.4304      311.7638       9505.7558      0.90635598     0.68479329   
    391900  -4113.4915     -4146.3611      32.869555     -189.3593       294.65811      9557.9589      0.90140569     0.68479329   
    392000  -4113.0364     -4146.89        33.853565      2230.0902      303.47923      9626.5965      0.89497868     0.75994917   
    392100  -4112.4168     -4147.7352      35.318404     -1892.7887      316.61073      9697.5869      0.88842705     0.75994917   
    392200  -4111.2319     -4144.61        33.378111     -1842.3785      299.21704      9759.0282      0.88283366     0.75994917   
    392300  -4109.9075     -4144.0131      34.105649     -2611.752       305.73903      9801.683       0.87899176     0.75994917   
    392400  -4110.947      -4145.7422      34.795183     -1260.8085      311.92034      9817.4755      0.8775778      0.75994917   
    392500  -4109.4304     -4144.5103      35.079873     -3446.317       314.47243      9807.951       0.87843002     0.75994917   
    392600  -4108.9228     -4143.6193      34.696507     -1701.7866      311.03575      9770.3502      0.88181062     0.75994917   
    392700  -4108.5234     -4144.372       35.84865      -1605.2886      321.36411      9712.668       0.88704758     0.75994917   
    392800  -4109.2429     -4144.9394      35.696501     -96.536454      320.00017      9642.8184      0.89347308     0.75994917   
    392900  -4109.2015     -4143.81        34.608531      2675.067       310.2471       9578.014       0.89951827     0.75994917   
    393000  -4109.8947     -4145.6619      35.767159      2222.7542      320.63359      9529.5713      0.90409089     0.80905664   
    393100  -4110.1935     -4145.8271      35.633594     -452.58421      319.43625      9505.1818      0.90641072     0.80905664   
    393200  -4110.7717     -4145.1208      34.349114      1914.6616      307.92157      9507.5724      0.9061828      0.80905664   
    393300  -4110.4519     -4145.7731      35.32113       929.27315      316.63517      9535.2993      0.90354779     0.80905664   
    393400  -4111.1417     -4146.3425      35.200791     -420.8067       315.5564       9584.5665      0.89890331     0.80905664   
    393500  -4112.7431     -4146.3688      33.62572       188.22624      301.43672      9642.4199      0.89351        0.80905664   
    393600  -4112.9485     -4146.544       33.595443      1470.7413      301.1653       9692.9269      0.88885418     0.80905664   
    393700  -4113.3585     -4145.6908      32.332268     -4311.1493      289.84161      9728.5956      0.8855953      0.80905664   
    393800  -4112.6988     -4145.6848      32.985938     -1629.9282      295.70142      9740.6356      0.88450066     0.80905664   
    393900  -4112.4074     -4145.8359      33.428536     -623.20103      299.66907      9726.9518      0.88574497     0.80905664   
    394000  -4112.0661     -4145.9862      33.920132     -220.15002      304.07597      9690.6202      0.88906575     0.84522601   
    394100  -4112.5727     -4146.2779      33.705186      1225.7706      302.14909      9638.9438      0.89383223     0.84522601   
    394200  -4113.5954     -4146.5775      32.982155      1442.6791      295.6675       9583.5303      0.89900051     0.84522601   
    394300  -4114.4504     -4147.1511      32.700641     -1092.1449      293.14388      9533.1455      0.90375192     0.84522601   
    394400  -4114.0504     -4146.8666      32.816205     -282.71926      294.17985      9493.0268      0.90757129     0.84522601   
    394500  -4114.6295     -4147.1157      32.486161     -68.936772      291.22118      9473.4933      0.90944262     0.84522601   
    394600  -4114.8937     -4147.2222      32.328522      1283.3259      289.80803      9478.3946      0.90897235     0.84522601   
    394700  -4114.7537     -4147.0945      32.340803     -236.68312      289.91812      9504.086       0.90651522     0.84522601   
    394800  -4114.5406     -4148.0329      33.492288      524.56334      300.24057      9550.7391      0.90208711     0.84522601   
    394900  -4114.7771     -4147.608       32.830838     -951.37501      294.31102      9607.2986      0.89677639     0.84522601   
    395000  -4114.4638     -4147.6036      33.139726     -633.53639      297.08005      9661.8734      0.89171098     0.71089556   
    395100  -4113.5461     -4147.2694      33.723282     -3547.3354      302.31131      9704.2609      0.88781605     0.71089556   
    395200  -4115.3068     -4147.03        31.723184     -3936.9005      284.3815       9726.0305      0.88582886     0.71089556   
    395300  -4114.0348     -4146.7373      32.702419     -1030.2231      293.15982      9721.4408      0.88624709     0.71089556   
    395400  -4115.2805     -4148.3932      33.112628      753.85631      296.83713      9692.8458      0.88886162     0.71089556   
    395500  -4115.4099     -4147.0975      31.687607     -1431.2039      284.06257      9646.1826      0.89316146     0.71089556   
    395600  -4113.3714     -4147.9968      34.625334      181.4217       310.39773      9593.8087      0.89803735     0.71089556   
    395700  -4112.747      -4145.2988      32.551834     -710.89297      291.80991      9549.5881      0.90219583     0.71089556   
    395800  -4113.472      -4146.747       33.274967      1327.9854      298.29241      9521.8145      0.90482739     0.71089556   
    395900  -4114.1466     -4147.6187      33.472098      482.22929      300.05958      9507.9324      0.90614849     0.71089556   
    396000  -4113.5752     -4147.0436      33.468388      1984.4773      300.02632      9510.2256      0.90592999     0.7575044    
    396100  -4112.5624     -4146.2789      33.716535      673.82658      302.25083      9530.5882      0.90399443     0.7575044    
    396200  -4113.6448     -4146.7909      33.146152      1479.4452      297.13765      9566.8857      0.9005646      0.7575044    
    396300  -4113.7047     -4146.2237      32.518984      1441.8131      291.51542      9613.6728      0.8961818      0.7575044    
    396400  -4113.7714     -4146.7354      32.964047     -1902.8548      295.50517      9663.8424      0.89152929     0.7575044    
    396500  -4113.5125     -4145.7579      32.2454        1226.9511      289.06288      9705.0447      0.88774435     0.7575044    
    396600  -4112.8814     -4145.667       32.785673     -4189.295       293.90615      9729.4583      0.88551678     0.7575044    
    396700  -4113.4066     -4145.013       31.606374     -593.58717      283.33436      9728.9717      0.88556107     0.7575044    
    396800  -4112.5452     -4145.3907      32.845519      1567.3412      294.44264      9703.3996      0.88789486     0.7575044    
    396900  -4112.4098     -4145.6562      33.246373      143.4261       298.03607      9658.8665      0.89198858     0.7575044    
    397000  -4113.172      -4147.1349      33.962905      1335.4206      304.4594       9610.6223      0.89646625     0.65627932   
    397100  -4114.9966     -4147.719       32.722405      244.84068      293.33898      9565.4607      0.90069876     0.65627932   
    397200  -4114.7489     -4147.8184      33.069492      1082.4731      296.45043      9528.7785      0.90416611     0.65627932   
    397300  -4116.2798     -4148.0119      31.732057      3723.5202      284.46104      9509.4535      0.90600355     0.65627932   
    397400  -4116.0461     -4148.5231      32.477015      1473.2171      291.13919      9510.4815      0.90590562     0.65627932   
    397500  -4115.505      -4148.1652      32.660162      1169.2622      292.781        9528.8901      0.90415552     0.65627932   
    397600  -4117.4549     -4149.547       32.092025     -334.65738      287.68796      9560.6145      0.90115532     0.65627932   
    397700  -4116.3783     -4149.0965      32.71815      -1814.503       293.30084      9593.6324      0.89805385     0.65627932   
    397800  -4116.7094     -4148.51        31.800627      2047.7873      285.07573      9623.738       0.89524451     0.65627932   
    397900  -4115.3957     -4147.1498      31.754074      1354.2463      284.65841      9647.7805      0.89301354     0.65627932   
    398000  -4115.2899     -4147.5244      32.234491     -645.67003      288.96509      9662.4329      0.89165934     0.69722253   
    398100  -4114.0712     -4147.456       33.384749     -267.9731       299.27654      9663.1274      0.89159526     0.69722253   
    398200  -4113.4899     -4147.5951      34.105238     -1477.1616      305.73535      9654.4064      0.89240066     0.69722253   
    398300  -4112.7561     -4147.1879      34.431748      505.3412       308.66233      9636.234       0.89408358     0.69722253   
    398400  -4113.0925     -4147.4855      34.392919      3169.1508      308.31425      9613.4395      0.89620354     0.69722253   
    398500  -4112.2858     -4146.4394      34.153538     -2091.5052      306.16833      9593.7513      0.89804273     0.69722253   
    398600  -4111.6699     -4145.1733      33.503358      1262.0283      300.33981      9580.5266      0.89928236     0.69722253   
    398700  -4111.1436     -4145.7592      34.615665      734.44296      310.31106      9578.9776      0.89942778     0.69722253   
    398800  -4112.7358     -4145.0819      32.34607      -1951.7137      289.96534      9589.8384      0.89840915     0.69722253   
    398900  -4113.6288     -4146.3151      32.686245      53.303406      293.01483      9607.7928      0.89673027     0.69722253   
    399000  -4114.1593     -4148.4681      34.308758     -2483.3524      307.5598       9627.9615      0.89485179     0.74537667   
    399100  -4114.6495     -4147.4878      32.838282      624.77232      294.37776      9637.8278      0.89393573     0.74537667   
    399200  -4115.7491     -4146.7893      31.040185     -962.8292       278.25877      9633.9843      0.89429236     0.74537667   
    399300  -4115.0617     -4147.0066      31.944902     -933.08142      286.36908      9614.3466      0.89611899     0.74537667   
    399400  -4115.4944     -4147.6271      32.132762     -3068.5689      288.05314      9582.2271      0.89912277     0.74537667   
    399500  -4116.1142     -4147.9218      31.807644      427.42542      285.13863      9547.3366      0.90240859     0.74537667   
    399600  -4115.9635     -4149.2649      33.301394      353.53724      298.52931      9515.2657      0.90545013     0.74537667   
    399700  -4114.8964     -4148.523       33.626627     -85.655049      301.44486      9493.1566      0.90755888     0.74537667   
    399800  -4114.4957     -4147.5671      33.07143       923.88203      296.4678       9488.5736      0.90799723     0.74537667   
    399900  -4115.1314     -4147.0516      31.920276      1641.6293      286.14832      9504.828       0.90644445     0.74537667   
    400000  -4114.1367     -4146.9309      32.794156      950.78307      293.98219      9539.0094      0.90319636     0.74070432   
    400100  -4113.2994     -4145.7498      32.450428     -889.6299       290.90085      9584.2856      0.89892966     0.74070432   
    400191  -4114.1609     -4146.9328      32.771873     -3322.6123      293.78244      9632.0142      0.89447528     0.74070432   
Loop time of 499.467 on 2 procs for 200000 steps with 864 atoms

Performance: 17.298 ns/day, 1.387 hours/ns, 400.427 timesteps/s, 345.969 katom-step/s
99.6% CPU use with 2 MPI tasks x 1 OpenMP threads

MPI task timing breakdown:
Section |  min time  |  avg time  |  max time  |%varavg| %total
---------------------------------------------------------------
Pair    | 260.57     | 261.19     | 261.81     |   3.8 | 52.29
Neigh   | 7.4892     | 7.5258     | 7.5624     |   1.3 |  1.51
Comm    | 39.978     | 40.556     | 41.135     |   9.1 |  8.12
Output  | 0.29241    | 0.29575    | 0.2991     |   0.6 |  0.06
Modify  | 187.86     | 187.91     | 187.97     |   0.4 | 37.62
Other   |            | 1.984      |            |       |  0.40

Nlocal:            432 ave         434 max         430 min
Histogram: 1 0 0 0 0 0 0 0 0 1
Nghost:         2168.5 ave        2174 max        2163 min
Histogram: 1 0 0 0 0 0 0 0 0 1
Neighs:              0 ave           0 max           0 min
Histogram: 2 0 0 0 0 0 0 0 0 0
FullNghs:        44502 ave       44797 max       44207 min
Histogram: 1 0 0 0 0 0 0 0 0 1

Total # of neighbors = 89004
Ave neighs/atom = 103.01389
Neighbor list builds = 19914
Dangerous builds = 19486
Total wall time: 0:16:40
