LAMMPS (27 Jun 2024)
KOKKOS mode with Kokkos version 4.3.1 is enabled (src/KOKKOS/kokkos.cpp:72)
  will use up to 1 GPU(s) per node
WARNING: When using a single thread, the Kokkos Serial backend (i.e. Makefile.kokkos_mpi_only) gives better performance than the OpenMP backend (src/KOKKOS/kokkos.cpp:202)
  using 1 OpenMP thread(s) per MPI task
Reading data file ...
  triclinic box = (0 0 0) to (20.086446 20.107908 21.036805) with tilt (-0.12289673 -0.12587322 0.25756352)
  1 by 1 by 1 MPI processor grid
  reading atoms ...
  972 atoms
  read_data CPU = 0.025 seconds
ACE/AL version: 2023.11.25
Loading /pc2/users/a/acepdw01/work/phase_diagram/pot_dir/interim_potential_ladder_step_1.yaml
Total number of basis functions
	H: 23 (r=1) 664 (r>1)
	O: 23 (r=1) 664 (r>1)
Mapping LAMMPS atom type #1(H) -> ACE species type #0
Mapping LAMMPS atom type #2(O) -> ACE species type #1
Loading ASI /pc2/users/a/acepdw01/work/phase_diagram/pot_dir/interim_potential_ladder_step_1.asi
LINEAR ASI is loaded

CITE-CITE-CITE-CITE-CITE-CITE-CITE-CITE-CITE-CITE-CITE-CITE-CITE

Your simulation uses code contributions which should be cited:
- Type Label Framework: https://doi.org/10.1021/acs.jpcb.3c08419
The log file lists these citations in BibTeX format.

CITE-CITE-CITE-CITE-CITE-CITE-CITE-CITE-CITE-CITE-CITE-CITE-CITE

Switching to 'neigh_modify every 1 delay 0 check yes' setting during minimization
Neighbor list info ...
  update: every = 1 steps, delay = 0 steps, check = yes
  max neighbors/atom: 2000, page size: 100000
  master list distance cutoff = 6.5
  ghost atom cutoff = 6.5
  binsize = 6.5, bins = 4 4 4
  1 neighbor lists, perpetual/occasional/extra = 1 0 0
  (1) pair pace/extrapolation/kk, perpetual
      attributes: full, newton on, kokkos_device
      pair build: full/bin/kk/device
      stencil: full/bin/3d
      bin: kk/device
Setting up cg/kk style minimization ...
  Unit style    : metal
  Current step  : 0
WARNING: Fix with atom-based arrays not compatible with sending data in Kokkos communication, switching to classic exchange/border communication (src/KOKKOS/comm_kokkos.cpp:754)
WARNING: Fix with atom-based arrays not compatible with Kokkos sorting on device, switching to classic host sorting (src/KOKKOS/atom_kokkos.cpp:216)
Per MPI rank memory allocation (min/avg/max) = 777.8 | 777.8 | 777.8 Mbytes
   Step         TotEng         PotEng         KinEng         Press           Temp          Volume        Density     c_max_pace_gamma
         0  -4674.4783     -4674.4783      0             -4207.0767      0              8496.6904      1.140744       0.70893442   
       100  -4698.4118     -4698.4118      0             -5361.4596      0              8496.6904      1.140744       0.70893442   
       200  -4698.4284     -4698.4284      0             -5286.6896      0              8496.6904      1.140744       0.70893442   
       300  -4698.4286     -4698.4286      0             -5280.3747      0              8496.6904      1.140744       0.70893442   
       344  -4698.4286     -4698.4286      0             -5279.8075      0              8496.6904      1.140744       0.70893442   
Loop time of 1.79818 on 1 procs for 344 steps with 972 atoms

99.4% CPU use with 1 MPI tasks x 1 OpenMP threads

Minimization stats:
  Stopping criterion = force tolerance
  Energy initial, next-to-last, final = 
     -4674.47831881433  -4698.42855640537  -4698.42855640926
  Force two-norm initial, final = 12.278537 0.00048663507
  Force max component initial, final = 0.80662295 7.0562338e-05
  Final line search alpha, max atom move = 1 7.0562338e-05
  Iterations, force evaluations = 344 688

MPI task timing breakdown:
Section |  min time  |  avg time  |  max time  |%varavg| %total
---------------------------------------------------------------
Pair    | 1.5359     | 1.5359     | 1.5359     |   0.0 | 85.41
Neigh   | 0.0020474  | 0.0020474  | 0.0020474  |   0.0 |  0.11
Comm    | 0.01648    | 0.01648    | 0.01648    |   0.0 |  0.92
Output  | 0.00037336 | 0.00037336 | 0.00037336 |   0.0 |  0.02
Modify  | 0.15097    | 0.15097    | 0.15097    |   0.0 |  8.40
Other   |            | 0.09243    |            |       |  5.14

Nlocal:            972 ave         972 max         972 min
Histogram: 1 0 0 0 0 0 0 0 0 0
Nghost:           3295 ave        3295 max        3295 min
Histogram: 1 0 0 0 0 0 0 0 0 0
Neighs:              0 ave           0 max           0 min
Histogram: 1 0 0 0 0 0 0 0 0 0
FullNghs:       121804 ave      121804 max      121804 min
Histogram: 1 0 0 0 0 0 0 0 0 0

Total # of neighbors = 121804
Ave neighs/atom = 125.31276
Neighbor list builds = 6
Dangerous builds = 0
Setting up Verlet run ...
  Unit style    : metal
  Current step  : 344
  Time step     : 0.0005
WARNING: Fix with atom-based arrays not compatible with Kokkos sorting on device, switching to classic host sorting (src/KOKKOS/atom_kokkos.cpp:216)
Per MPI rank memory allocation (min/avg/max) = 777 | 777 | 777 Mbytes
   Step         TotEng         PotEng         KinEng         Press           Temp          Volume        Density     c_max_pace_gamma
       344  -4663.9129     -4698.4286      34.51569      -940.84532      275            8496.6904      1.140744       0.70893442   
       400  -4660.4394     -4676.4092      15.969804      12.324887      127.23767      8480.7684      1.1428856      0.70893442   
       500  -4653.7547     -4675.3217      21.567005     -3036.9843      171.83276      8390.0161      1.1552479      0.70893442   
       600  -4647.1311     -4670.2065      23.075357     -1203.7841      183.85039      8224.6317      1.1784781      0.70893442   
       700  -4641.415      -4667.9544      26.539457      4843.1877      211.45023      8041.5924      1.2053021      0.70893442   
       800  -4637.7454     -4667.2001      29.454654      8393.6948      234.67675      7901.896       1.2266105      0.70893442   
       900  -4633.6941     -4665.3428      31.648732      11147.486      252.15782      7826.373       1.238447       0.70893442   
      1000  -4634.1016     -4664.3749      30.273273      8570.274       241.19901      7810.629       1.2409434      0.70525161   
      1100  -4633.5997     -4665.0138      31.414049      5799.4731      250.28801      7846.084       1.2353358      0.70525161   
      1200  -4633.1104     -4663.2229      30.11249       7938.4584      239.91798      7920.8345      1.2236777      0.70525161   
      1300  -4632.0241     -4664.7542      32.730169      7585.1924      260.77406      8018.2975      1.2088038      0.70525161   
      1400  -4630.5357     -4664.6684      34.132684      550.43016      271.94844      8114.6193      1.1944551      0.70525161   
      1500  -4629.8818     -4663.7505      33.868635      2188.2016      269.84466      8196.4586      1.1825288      0.70525161   
      1600  -4628.9876     -4663.0107      34.023112     -1705.8034      271.07544      8256.0275      1.1739966      0.70525161   
      1700  -4628.907      -4661.612       32.705067      3748.5131      260.57406      8283.1364      1.1701544      0.70525161   
      1800  -4628.6838     -4662.8962      34.212409      1381.4444      272.58364      8278.9168      1.1707508      0.70525161   
      1900  -4628.0486     -4662.4691      34.420523      1104.6979      274.24176      8247.2701      1.1752432      0.70525161   
      2000  -4626.9035     -4661.9938      35.090298      6551.6809      279.57812      8197.4875      1.1823804      0.91411427   
      2100  -4626.5912     -4662.6238      36.032591      6606.519       287.08574      8146.419       1.1897925      0.91411427   
      2200  -4626.1921     -4661.1062      34.914084      4088.8591      278.17416      8100.7064      1.1965066      0.91411427   
      2300  -4627.683      -4661.9547      34.271678      3591.762       273.05586      8067.5513      1.2014238      0.91411427   
      2400  -4627.5205     -4661.9709      34.450407      7307.0633      274.47987      8049.0806      1.2041808      0.91411427   
      2500  -4626.9953     -4661.6003      34.605032      6346.0024      275.71182      8048.9487      1.2042005      0.91411427   
      2600  -4626.7603     -4662.043       35.282719      6882.5511      281.11122      8068.8392      1.2012321      0.91411427   
      2700  -4627.6062     -4662.5821      34.975909      2454.0455      278.66674      8094.7359      1.1973891      0.91411427   
      2800  -4628.504      -4662.4502      33.946164      1404.0377      270.46237      8114.5627      1.1944634      0.91411427   
      2900  -4628.2611     -4663.5986      35.337456      7418.5819      281.54733      8130.8556      1.1920699      0.91411427   
      3000  -4627.8271     -4662.1738      34.34676       7888.4701      273.65407      8144.3437      1.1900957      0.85017882   
      3100  -4627.5852     -4662.835       35.249794      2634.3497      280.84889      8161.4846      1.1875962      0.85017882   
      3200  -4628.178      -4663.0662      34.888231     -174.85626      277.96818      8183.7324      1.1843677      0.85017882   
      3300  -4627.3501     -4660.4802      33.130045      2627.6879      263.96002      8196.9594      1.1824566      0.85017882   
      3400  -4625.9561     -4660.8237      34.867557      5998.1911      277.80346      8191.6609      1.1832214      0.85017882   
      3500  -4624.9583     -4659.9893      35.031004      5618.0312      279.10571      8164.3819      1.1871748      0.85017882   
      3600  -4625.2825     -4660.7366      35.454066      2164.5053      282.47641      8122.6012      1.1932813      0.85017882   
      3700  -4625.0723     -4660.9516      35.879281      6981.1987      285.86426      8075.4937      1.2002422      0.85017882   
      3800  -4624.3739     -4660.0309      35.657082      5671.8498      284.09392      8036.8709      1.2060102      0.85017882   
      3900  -4624.9766     -4661.9581      36.981474      3484.2832      294.64587      8020.691       1.2084431      0.85017882   
      4000  -4624.1278     -4659.8887      35.760963      8043.9626      284.92158      8028.0247      1.2073391      0.75275213   
      4100  -4624.1094     -4661.6681      37.558736      6184.0278      299.24513      8058.6717      1.2027476      0.75275213   
      4200  -4624.8511     -4661.594       36.742964      11398.412      292.74556      8113.7973      1.1945761      0.75275213   
      4300  -4625.1854     -4660.3142      35.128789      7162.8035      279.8848       8181.3156      1.1847176      0.75275213   
      4400  -4627.1988     -4661.7051      34.506326     -635.23832      274.92539      8242.7255      1.1758912      0.75275213   
      4500  -4626.9206     -4660.6395      33.718866      2670.9164      268.65139      8273.5735      1.1715069      0.75275213   
      4600  -4627.2401     -4660.763       33.522828      2561.0693      267.08947      8262.645       1.1730564      0.75275213   
      4700  -4627.2799     -4661.8518      34.571901      4129.0231      275.44785      8205.0111      1.1812962      0.75275213   
      4800  -4625.8223     -4660.3979      34.57553       4443.268       275.47677      8119.4727      1.1937411      0.75275213   
      4900  -4625.6774     -4660.5201      34.842664      7953.1335      277.60513      8036.3032      1.2060954      0.75275213   
      5000  -4626.5753     -4661.9789      35.403556      5879.713       282.07397      7975.5153      1.215288       0.70015059   
      5100  -4626.9955     -4660.4422      33.446675      8217.5673      266.48274      7946.923       1.2196605      0.70015059   
      5200  -4626.7007     -4660.8381      34.137422      9325.1584      271.98619      7952.603       1.2187894      0.70015059   
      5300  -4626.2766     -4661.2921      35.015506      5158.0484      278.98223      7983.7718      1.2140312      0.70015059   
      5400  -4627.2552     -4661.9494      34.694212      6034.2542      276.42235      8032.7467      1.2066294      0.70015059   
      5500  -4628.2871     -4661.7469      33.459889      7490.9844      266.58801      8089.5188      1.1981613      0.70015059   
      5600  -4627.9455     -4663.4375      35.492038      4410.6491      282.77894      8142.3914      1.1903811      0.70015059   
      5700  -4627.3488     -4662.3652      35.016399      2540.65        278.98934      8184.9284      1.1841946      0.70015059   
      5800  -4627.2578     -4661.9519      34.694128      5777.6505      276.42169      8212.2408      1.1802562      0.70015059   
      5900  -4626.4988     -4661.0367      34.537928      2535.734       275.17718      8219.7322      1.1791806      0.70015059   
      6000  -4626.5214     -4660.8066      34.285181      6218.3845      273.16344      8206.6723      1.1810571      0.86293753   
      6100  -4626.871      -4661.6521      34.781095      8061.2138      277.11458      8178.8083      1.1850808      0.86293753   
      6200  -4627.2817     -4662.3222      35.0405        5685.2789      279.18137      8148.8248      1.1894412      0.86293753   
      6300  -4628.0721     -4662.3707      34.298588      4528.8248      273.27027      8121.0538      1.1935087      0.86293753   
      6400  -4628.3663     -4663.4919      35.12559       1734.9252      279.85931      8099.4855      1.1966869      0.86293753   
      6500  -4628.4571     -4660.6804      32.223212      4039.6377      256.73493      8081.6886      1.1993222      0.86293753   
      6600  -4629.0682     -4662.4303      33.362127      7074.5999      265.80911      8065.4758      1.201733       0.86293753   
      6700  -4629.1852     -4663.7492      34.564023      4766.6586      275.38509      8053.1971      1.2035653      0.86293753   
      6800  -4627.0477     -4661.5331      34.485368      7452.7199      274.75841      8049.0443      1.2041862      0.86293753   
      6900  -4625.9378     -4661.1404      35.202576      3347.7766      280.47269      8059.2918      1.2026551      0.86293753   
      7000  -4625.9534     -4660.762       34.808614      6747.0695      277.33384      8083.7698      1.1990134      0.74790622   
      7100  -4626.4089     -4661.5251      35.116198      5087.1933      279.78448      8114.5653      1.1944631      0.74790622   
      7200  -4627.8427     -4663.0615      35.218838      4814.8633      280.60225      8146.7913      1.1897381      0.74790622   
      7300  -4628.1688     -4661.6912      33.522363      4156.9245      267.08577      8173.5577      1.1858421      0.74790622   
      7400  -4627.8692     -4662.3494      34.480222      825.82222      274.71741      8187.2301      1.1838617      0.74790622   
      7500  -4628.6937     -4662.7181      34.024347      347.92402      271.08527      8181.0553      1.1847553      0.74790622   
      7600  -4628.6525     -4660.6909      32.038424      6596.845       255.26265      8154.8452      1.1885631      0.74790622   
      7700  -4628.3747     -4661.2218      32.847091      7110.6241      261.70561      8113.1099      1.1946773      0.74790622   
      7800  -4626.7846     -4661.7694      34.984809      4248.5616      278.73766      8067.1807      1.201479       0.74790622   
      7900  -4626.8578     -4661.749       34.891273      5267.3944      277.99241      8028.7879      1.2072244      0.74790622   
      8000  -4626.7677     -4662.8884      36.120714      9793.6427      287.78785      8008.4809      1.2102855      0.72154591   
      8100  -4626.9839     -4660.7756      33.791759      7293.454       269.23215      8010.7284      1.2099459      0.72154591   
      8200  -4628.7239     -4663.317       34.593085      5000.2496      275.61664      8033.2426      1.2065549      0.72154591   
      8300  -4628.8621     -4662.9409      34.078749      1530.7812      271.51872      8071.5181      1.2008334      0.72154591   
      8400  -4627.7094     -4661.8324      34.122999      5564.8905      271.87128      8120.2387      1.1936285      0.72154591   
      8500  -4628.0024     -4662.762       34.759522      3586.7754      276.9427       8173.144       1.1859021      0.72154591   
      8600  -4628.5563     -4661.4752      32.91898       3243.0288      262.27838      8215.9704      1.1797205      0.72154591   
      8700  -4628.175      -4663.3797      35.20474       3900.5437      280.48993      8241.9882      1.1759964      0.72154591   
      8800  -4627.4303     -4661.078       33.64767       4539.1921      268.08414      8239.862       1.1762998      0.72154591   
      8900  -4628.3381     -4661.8923      33.55417       5328.5756      267.33919      8216.0842      1.1797041      0.72154591   
      9000  -4628.0877     -4661.5676      33.479921      4778.3221      266.74762      8174.6389      1.1856852      0.76835141   
      9100  -4628.231      -4662.5287      34.297748      4985.2649      273.26357      8122.4196      1.193308       0.76835141   
      9200  -4627.8696     -4662.8483      34.978703      5052.1853      278.689        8069.5985      1.201119       0.76835141   
      9300  -4626.9613     -4662.4437      35.48244       4949.6747      282.70248      8028.6325      1.2072477      0.76835141   
      9400  -4627.6857     -4662.3398      34.65412       6857.4869      276.10292      8007.4025      1.2104485      0.76835141   
      9500  -4626.9061     -4660.9167      34.010577      6974.8368      270.97556      8008.1786      1.2103312      0.76835141   
      9600  -4625.376      -4659.5825      34.20657       7241.1384      272.53712      8025.263       1.2077546      0.76835141   
      9700  -4628.2702     -4661.5015      33.23126       1930.586       264.76644      8058.2673      1.202808       0.76835141   
      9800  -4627.9721     -4662.7556      34.783428      6342.8612      277.13317      8100.6973      1.1965079      0.76835141   
      9900  -4628.4438     -4662.972       34.528163      6565.5454      275.09938      8145.6383      1.1899066      0.76835141   
     10000  -4627.7933     -4661.1375      33.344268      4070.7637      265.66682      8181.3244      1.1847163      0.81723629   
     10100  -4628.3278     -4661.9029      33.575093     -171.33604      267.50589      8197.3512      1.1824         0.81723629   
     10200  -4627.2596     -4661.1637      33.904145      1590.1217      270.12758      8190.2141      1.1834304      0.81723629   
     10300  -4627.3814     -4661.3202      33.938775      2696.3258      270.40349      8158.3383      1.1880542      0.81723629   
     10400  -4627.9452     -4662.6263      34.681168      5582.8155      276.31843      8111.6778      1.1948882      0.81723629   
     10500  -4628.3468     -4662.3336      33.986794      5382.0951      270.78608      8064.4224      1.20189        0.81723629   
     10600  -4627.8157     -4662.5039      34.688193      6255.1886      276.3744       8029.2029      1.207162       0.81723629   
     10700  -4627.9834     -4661.3385      33.355069      5568.2791      265.75288      8004.4408      1.2108964      0.81723629   
     10800  -4626.4573     -4661.4191      34.961773      6845.8548      278.55411      7990.5218      1.2130057      0.81723629   
     10900  -4626.3159     -4660.5693      34.253436      7984.1814      272.91052      7994.079       1.2124659      0.81723629   
     11000  -4627.3205     -4660.4856      33.165047      6547.6786      264.2389       8023.1208      1.2080771      0.70563561   
     11100  -4627.7897     -4662.5108      34.721152      4259.4477      276.63699      8071.1204      1.2008926      0.70563561   
     11200  -4628.3154     -4662.2632      33.947803      4864.834       270.47542      8122.6332      1.1932766      0.70563561   
     11300  -4627.778      -4660.5926      32.814552      4717.2796      261.44637      8164.2705      1.187191       0.70563561   
     11400  -4629.1124     -4662.318       33.205578      4159.7569      264.56183      8183.2222      1.1844416      0.70563561   
     11500  -4628.3486     -4662.0551      33.706423      2378.0951      268.55225      8184.4825      1.1842592      0.70563561   
     11600  -4629.0786     -4662.9793      33.900763      2132.9325      270.10063      8177.094       1.1853292      0.70563561   
     11700  -4628.0542     -4662.5309      34.476669      3413.5052      274.6891       8160.9526      1.1876737      0.70563561   
     11800  -4627.8724     -4662.7571      34.884652      5656.379       277.93966      8145.6685      1.1899021      0.70563561   
     11900  -4628.0195     -4662.7645      34.744966      2659.7438      276.82673      8134.4664      1.1915408      0.70563561   
     12000  -4628.6392     -4662.1342      33.494956      2073.4955      266.86741      8118.2662      1.1939185      0.71411419   
     12100  -4627.4566     -4661.3563      33.899729      7687.6781      270.09239      8100.1932      1.1965824      0.71411419   
     12200  -4625.2527     -4660.9965      35.743811      6000.6931      284.78492      8086.6804      1.1985819      0.71411419   
     12300  -4624.4581     -4659.3673      34.909162      4933.0197      278.13495      8084.8375      1.1988551      0.71411419   
     12400  -4623.495      -4658.6163      35.12134       8707.0293      279.82545      8097.6384      1.1969599      0.71411419   
     12500  -4623.7581     -4658.8463      35.088201      7204.3424      279.56141      8119.5901      1.1937239      0.71411419   
     12600  -4623.888      -4658.7114      34.823401      5464.52        277.45165      8143.2735      1.1902521      0.71411419   
     12700  -4624.0082     -4659.5669      35.55876       5113.7478      283.31054      8162.6628      1.1874248      0.71411419   
     12800  -4623.9108     -4659.2131      35.302342      6541.5937      281.26756      8175.3966      1.1855753      0.71411419   
     12900  -4625.1715     -4660.7636      35.592035      1146.4232      283.57566      8179.1701      1.1850284      0.71411419   
     13000  -4624.8517     -4659.6695      34.817784      4534.4646      277.4069       8172.9697      1.1859274      0.85965763   
     13100  -4625.4448     -4660.3862      34.941348      2426.8821      278.39138      8163.702       1.1872737      0.85965763   
     13200  -4625.5371     -4660.185       34.647903      5842.364       276.05339      8149.4322      1.1893526      0.85965763   
     13300  -4625.9264     -4661.3376      35.411228      3242.1433      282.1351       8134.2225      1.1915765      0.85965763   
     13400  -4625.4222     -4660.1458      34.723607      5482.0684      276.65655      8121.8392      1.1933933      0.85965763   
     13500  -4625.388      -4658.7945      33.40647       3476.1367      266.16241      8110.8795      1.1950058      0.85965763   
     13600  -4625.3967     -4661.105       35.708207      5529.2282      284.50124      8099.9805      1.1966138      0.85965763   
     13700  -4625.5096     -4660.4919      34.982328      8756.0125      278.71789      8088.0193      1.1983834      0.85965763   
     13800  -4625.837      -4660.2718      34.434821      8213.1629      274.35569      8078.378       1.1998137      0.85965763   
     13900  -4624.6077     -4659.548       34.940342      3882.4348      278.38337      8074.4615      1.2003956      0.85965763   
     14000  -4625.1489     -4661.0518      35.902886      3202.7433      286.05233      8076.9995      1.2000184      0.65426969   
     14100  -4625.9427     -4661.4188      35.476183      3528.8923      282.65262      8082.2984      1.1992317      0.65426969   
     14200  -4624.6281     -4660.1281      35.499995      8509.4984      282.84234      8092.4269      1.1977307      0.65426969   
     14300  -4624.5849     -4660.9061      36.321176      5851.5931      289.38501      8115.8811      1.1942694      0.65426969   
     14400  -4623.1361     -4660.6489      37.512887      3626.4618      298.87984      8149.9038      1.1892838      0.65426969   
     14500  -4624.6942     -4659.7577      35.063473      1603.0096      279.3644       8179.9939      1.184909       0.65426969   
     14600  -4625.139      -4660.7762      35.637192      6307.2104      283.93544      8198.6876      1.1822073      0.65426969   
     14700  -4625.855      -4661.7204      35.865349      4502.145       285.75326      8209.655       1.180628       0.65426969   
     14800  -4625.3321     -4659.592       34.259944      5211.5607      272.96237      8208.8936      1.1807375      0.65426969   
     14900  -4625.4254     -4660.4882      35.062778      2446.8994      279.35886      8202.3325      1.181682       0.65426969   
     15000  -4625.6833     -4659.6286      33.945261      505.79061      270.45517      8194.9271      1.1827498      0.72634607   
     15100  -4624.6666     -4660.2743      35.607752      4697.8816      283.70089      8176.9418      1.1853513      0.72634607   
     15200  -4622.9398     -4660.1821      37.242263      6760.816       296.72367      8145.8497      1.1898757      0.72634607   
     15300  -4623.2763     -4659.3966      36.12033       5005.7496      287.78479      8115.7097      1.1942946      0.72634607   
     15400  -4624.8903     -4660.1365      35.246242      7823.0837      280.82059      8098.4945      1.1968334      0.72634607   
     15500  -4626.2405     -4660.5566      34.316118      6086.3135      273.40993      8100.5332      1.1965321      0.72634607   
     15600  -4626.4764     -4661.6977      35.221273      3698.5583      280.62166      8115.5768      1.1943142      0.72634607   
     15700  -4627.1071     -4661.914       34.806932      3152.2793      277.32043      8133.5245      1.1916788      0.72634607   
     15800  -4627.2184     -4661.7251      34.506642      3211.0695      274.92791      8146.4939      1.1897816      0.72634607   
     15900  -4627.8638     -4661.3545      33.49073       3630.5778      266.83375      8148.8019      1.1894446      0.72634607   
     16000  -4627.3653     -4662.1029      34.737554      3044.7846      276.76768      8140.0453      1.1907241      0.70875345   
     16100  -4628.143      -4662.4541      34.311052      785.04494      273.36957      8122.8871      1.1932393      0.70875345   
     16200  -4628.4046     -4662.5653      34.160775      6265.2229      272.17225      8105.0521      1.195865       0.70875345   
     16300  -4627.2151     -4660.8246      33.609528      4635.4123      267.78025      8093.6811      1.1975451      0.70875345   
     16400  -4628.1423     -4662.4978      34.355478      3962.5613      273.72353      8083.307       1.1990821      0.70875345   
     16500  -4626.7156     -4660.2552      33.539584      4075.5004      267.22298      8068.0502      1.2013495      0.70875345   
     16600  -4625.3572     -4661.8196      36.462306      5919.4618      290.50945      8048.6699      1.2042423      0.70875345   
     16700  -4625.5793     -4661.116       35.536689      7311.9407      283.1347       8034.2613      1.2064019      0.70875345   
     16800  -4625.6551     -4661.6962      36.041105      6816.8447      287.15358      8039.7789      1.205574       0.70875345   
     16900  -4626.5044     -4660.3851      33.880673      5672.7542      269.94057      8065.4504      1.2017368      0.70875345   
     17000  -4627.1741     -4660.9825      33.808373      5842.5214      269.36452      8103.1178      1.1961505      0.76566987   
     17100  -4627.0396     -4660.3299      33.290345      2457.1747      265.23719      8143.3434      1.1902419      0.76566987   
     17200  -4626.5985     -4660.8285      34.229945      4842.859       272.72336      8179.2799      1.1850124      0.76566987   
     17300  -4626.2697     -4661.3104      35.040707      3830.2305      279.18302      8207.1905      1.1809825      0.76566987   
     17400  -4625.2558     -4660.7897      35.533829      1139.0447      283.11191      8219.1068      1.1792703      0.76566987   
     17500  -4625.4565     -4660.2984      34.841973      2077.7306      277.59962      8211.5454      1.1803562      0.76566987   
     17600  -4626.1076     -4659.8788      33.771229      5438.9286      269.06858      8188.5436      1.1836718      0.76566987   
     17700  -4625.8648     -4661.484       35.61922       6647.5491      283.79225      8159.1383      1.1879377      0.76566987   
     17800  -4626.0601     -4659.9668      33.906712      3726.7904      270.14803      8129.142       1.1923212      0.76566987   
     17900  -4625.3302     -4659.7468      34.41654       6370.0758      274.21003      8104.7088      1.1959157      0.76566987   
     18000  -4625.012      -4660.8467      35.834726      4297.8635      285.50927      8090.1397      1.1980694      0.76099166   
     18100  -4625.4784     -4660.0714      34.593048      5657.7209      275.61634      8084.7058      1.1988746      0.76099166   
     18200  -4627.198      -4661.8389      34.640863      3949.0731      275.9973       8087.4401      1.1984693      0.76099166   
     18300  -4627.3003     -4662.5664      35.26611       5272.212       280.97889      8090.8153      1.1979693      0.76099166   
     18400  -4626.9583     -4659.8003      32.841956      4585.0329      261.6647       8092.1621      1.1977699      0.76099166   
     18500  -4627.2882     -4661.9703      34.682109      5422.1258      276.32593      8092.9049      1.19766        0.76099166   
     18600  -4628.1654     -4662.8705      34.705052      4267.1287      276.50872      8098.7853      1.1967904      0.76099166   
     18700  -4627.656      -4662.3932      34.737202      7165.8447      276.76487      8112.4513      1.1947743      0.76099166   
     18800  -4626.6926     -4660.7621      34.069524      6330.6684      271.44522      8129.2571      1.1923043      0.76099166   
     18900  -4627.0389     -4661.564       34.525078      7843.8388      275.0748       8146.2811      1.1898127      0.76099166   
     19000  -4626.8626     -4661.0104      34.147818      1510.129       272.06902      8156.8203      1.1882753      0.76417125   
     19100  -4625.7753     -4660.1489      34.373561      3506.6283      273.8676       8159.6348      1.1878655      0.76417125   
     19200  -4624.5219     -4660.7819      36.260042      5333.9148      288.89793      8158.8842      1.1879748      0.76417125   
     19300  -4625.1017     -4661.0281      35.926483      4260.9361      286.24034      8154.1905      1.1886586      0.76417125   
     19400  -4625.4594     -4660.0934      34.634007      6884.0195      275.94268      8140.5589      1.190649       0.76417125   
     19500  -4625.8673     -4661.158       35.290627      3254.5299      281.17423      8115.4117      1.1943385      0.76417125   
     19600  -4626.2073     -4659.9745      33.76724       5790.8426      269.03681      8086.5094      1.1986072      0.76417125   
     19700  -4626.7692     -4661.5151      34.745872      4612.7557      276.83395      8068.0229      1.2013536      0.76417125   
     19800  -4627.5617     -4661.4855      33.923862      2987.0918      270.28467      8067.6934      1.2014027      0.76417125   
     19900  -4627.2498     -4662.8474      35.597605      7514.0145      283.62004      8086.4352      1.1986182      0.76417125   
     20000  -4628.0335     -4661.8552      33.821722      733.21849      269.47088      8118.1073      1.1939419      0.75504627   
     20100  -4628.1809     -4660.601       32.420103      1810.8827      258.30364      8146.1156      1.1898368      0.75504627   
     20200  -4628.1628     -4661.3874      33.224619      3805.9257      264.71353      8161.9634      1.1875266      0.75504627   
     20300  -4627.7767     -4661.3934      33.61668       4955.5848      267.83724      8167.8704      1.1866678      0.75504627   
     20400  -4627.0365     -4660.9022      33.86577       2916.1505      269.82183      8164.1123      1.187214       0.75504627   
     20500  -4626.0938     -4660.5588      34.464994      6203.4345      274.59609      8153.0788      1.1888206      0.75504627   
     20600  -4625.4116     -4660.3288      34.917193      4000.6235      278.19893      8141.8165      1.1904651      0.75504627   
     20700  -4626.2185     -4660.4745      34.25605       1586.6214      272.93134      8132.9558      1.1917621      0.75504627   
     20800  -4626.0017     -4660.9021      34.900416      9289.7284      278.06526      8121.642       1.1934223      0.75504627   
     20900  -4625.8783     -4660.6824      34.804118      7105.3442      277.29801      8112.1952      1.194812       0.75504627   
     21000  -4626.767      -4662.2272      35.460221      4554.2541      282.52544      8107.8921      1.1954462      0.83029024   
     21100  -4627.3555     -4661.599       34.243563      4884.6255      272.83186      8104.4302      1.1959568      0.83029024   
     21200  -4627.5245     -4661.3541      33.829625      1512.6873      269.53385      8098.1941      1.1968778      0.83029024   
     21300  -4627.9286     -4662.5921      34.663525      6865.8907      276.17785      8086.7531      1.1985711      0.83029024   
     21400  -4627.9557     -4660.8772      32.921501      4769.8462      262.29847      8076.5415      1.2000865      0.83029024   
     21500  -4627.408      -4661.4361      34.028151      3819.3525      271.11559      8073.0576      1.2006044      0.83029024   
     21600  -4626.9846     -4661.1367      34.152069      6215.2148      272.10289      8084.962       1.1988366      0.83029024   
     21700  -4626.2565     -4661.1052      34.848755      5564.9627      277.65366      8108.5027      1.1953561      0.83029024   
     21800  -4625.1442     -4660.4803      35.33615       3778.0242      281.53693      8133.3212      1.1917085      0.83029024   
     21900  -4624.8686     -4659.4266      34.557984      5489.2242      275.33697      8150.1102      1.1892537      0.83029024   
     22000  -4625.1939     -4660.5639      35.370085      1323.1705      281.8073       8152.4637      1.1889103      0.69968657   
     22100  -4625.3912     -4658.7992      33.408009      4141.0493      266.17467      8140.3481      1.1906798      0.69968657   
     22200  -4625.2112     -4660.3441      35.132829      5195.222       279.91699      8127.1192      1.192618       0.69968657   
     22300  -4625.5692     -4661.2496      35.680436      6631.2385      284.27998      8112.2805      1.1947995      0.69968657   
     22400  -4626.2027     -4660.7692      34.566553      4559.2761      275.40525      8101.3861      1.1964062      0.69968657   
     22500  -4626.1768     -4660.2023      34.025485      3212.1882      271.09434      8097.4923      1.1969815      0.69968657   
     22600  -4625.8712     -4660.9294      35.058214      6902.679       279.3225       8099.3572      1.1967059      0.69968657   
     22700  -4626.1391     -4661.5162      35.377104      6177.7529      281.86322      8109.7477      1.1951726      0.69968657   
     22800  -4626.2386     -4659.4892      33.250599      1997.6128      264.92053      8125.9464      1.1927901      0.69968657   
     22900  -4627.0159     -4660.6782      33.662286      5252.5099      268.20059      8142.3354      1.1903892      0.69968657   
     23000  -4628.176      -4661.7884      33.612356      7098.645       267.80278      8153.9276      1.1886969      0.73901208   
     23100  -4628.5874     -4662.4375      33.850088      6565.5838      269.69689      8163.6471      1.1872817      0.73901208   
     23200  -4629.3476     -4663.1225      33.77486       4909.0163      269.09751      8172.9427      1.1859313      0.73901208   
     23300  -4628.1683     -4661.2649      33.096588      3413.5179      263.69346      8181.3255      1.1847162      0.73901208   
     23400  -4626.7664     -4661.5218      34.755367      5260.0144      276.9096       8183.441       1.1844099      0.73901208   
     23500  -4626.1082     -4658.85        32.74178       6115.8752      260.86657      8175.2341      1.1855989      0.73901208   
     23600  -4626.7284     -4662.3817      35.653281      3607.4922      284.06363      8162.0616      1.1875123      0.73901208   
     23700  -4625.3022     -4661.2963      35.994035      5661.2531      286.77855      8143.0444      1.1902856      0.73901208   
     23800  -4624.2536     -4659.984       35.730388      6431.9549      284.67797      8122.0712      1.1933592      0.73901208   
     23900  -4624.06       -4658.7331      34.673099      7620.2616      276.25413      8100.4976      1.1965374      0.73901208   
     24000  -4625.0784     -4659.1299      34.051561      5037.1524      271.3021       8079.1214      1.1997033      1.1128373    
     24100  -4625.5681     -4660.2849      34.716745      6580.032       276.60188      8065.6043      1.2017138      1.1128373    
     24200  -4625.0793     -4659.9348      34.855574      9298.0724      277.70798      8065.4223      1.201741       1.1128373    
     24300  -4625.6651     -4661.4071      35.742007      5494.712       284.77054      8080.0867      1.19956        1.1128373    
     24400  -4625.478      -4660.9597      35.481701      4259.3463      282.69659      8106.2966      1.1956814      1.1128373    
     24500  -4625.9163     -4659.5269      33.610601      7176.3323      267.7888       8133.0333      1.1917507      1.1128373    
     24600  -4625.2403     -4660.8015      35.561224      4314.9478      283.33017      8152.4821      1.1889077      1.1128373    
     24700  -4625.1641     -4659.4087      34.244602      3601.9755      272.84014      8162.8348      1.1873998      1.1128373    
     24800  -4625.6791     -4659.3901      33.711005      3711.6324      268.58876      8164.0602      1.1872216      1.1128373    
     24900  -4626.3965     -4659.5505      33.153981      5655.2415      264.15073      8155.9155      1.1884072      1.1128373    
     25000  -4626.0109     -4660.2328      34.22196       5140.1538      272.65974      8136.23        1.1912825      0.6611441    
     25100  -4626.6523     -4661.3777      34.72537       3211.994       276.6706       8107.9668      1.1954351      0.6611441    
     25200  -4626.0452     -4660.9945      34.949318      7016.8508      278.45488      8082.2672      1.1992363      0.6611441    
     25300  -4626.1505     -4661.7748      35.624319      4876.6272      283.83288      8066.0699      1.2016445      0.6611441    
     25400  -4626.8679     -4662.2868      35.418824      5148.5858      282.19562      8062.7619      1.2021375      0.6611441    
     25500  -4628.2332     -4662.3095      34.076386      7341.7946      271.49989      8076.4056      1.2001067      0.6611441    
     25600  -4627.6626     -4662.3046      34.642011      7174.588       276.00645      8098.6091      1.1968164      0.6611441    
     25700  -4627.6425     -4662.748       35.105463      5960.4225      279.69895      8126.0882      1.1927693      0.6611441    
     25800  -4628.0317     -4661.4957      33.464031      4226.0863      266.62102      8154.5262      1.1886096      0.6611441    
     25900  -4628.2711     -4661.8569      33.585738      2575.7047      267.5907       8177.195       1.1853146      0.6611441    
     26000  -4629.0785     -4662.347       33.268447      2506.5197      265.06273      8187.7158      1.1837915      0.85545836   
     26100  -4628.4761     -4661.8688      33.392685      4102.5644      266.05258      8175.2809      1.1855921      0.85545836   
     26200  -4627.8548     -4662.708       34.853204      2723.0528      277.68911      8143.5096      1.1902176      0.85545836   
     26300  -4628.0312     -4661.4734      33.442201      6713.1875      266.44709      8102.2757      1.1962748      0.85545836   
     26400  -4628.1634     -4662.2947      34.131262      6708.2192      271.93711      8062.6867      1.2021487      0.85545836   
     26500  -4627.5703     -4661.8178      34.247532      5901.7624      272.86348      8036.6457      1.206044       0.85545836   
     26600  -4627.1685     -4662.5262      35.357719      5541.3349      281.70877      8030.8224      1.2069185      0.85545836   
     26700  -4626.8823     -4661.224       34.341693      4366.8695      273.6137       8040.5988      1.2054511      0.85545836   
     26800  -4625.1652     -4659.7383      34.573078      5205.7509      275.45723      8057.6894      1.2028943      0.85545836   
     26900  -4625.2574     -4659.9653      34.707908      6097.1328      276.53147      8079.478       1.1996503      0.85545836   
     27000  -4624.8889     -4658.8137      33.924866      4310.934       270.29267      8105.0287      1.1958685      1.0051083    
     27100  -4624.1737     -4658.9758      34.802166      3694.0928      277.28246      8129.8199      1.1922218      1.0051083    
     27200  -4625.5391     -4660.1141      34.57501       6082.68        275.47262      8153.737       1.1887247      1.0051083    
     27300  -4624.9458     -4660.7977      35.851909      3224.3315      285.64618      8168.6876      1.186549       1.0051083    
     27400  -4625.3231     -4660.8943      35.571241      5775.8919      283.40998      8170.5195      1.186283       1.0051083    
     27500  -4624.363      -4660.0378      35.674827      4170.7851      284.2353       8159.5197      1.1878822      1.0051083    
     27600  -4624.3712     -4659.3305      34.959377      1917.7369      278.53503      8136.5955      1.191229       1.0051083    
     27700  -4624.248      -4659.3154      35.067456      6133.3125      279.39614      8106.7369      1.1956165      1.0051083    
     27800  -4624.5482     -4659.2855      34.737264      7194.268       276.76536      8075.3009      1.2002709      1.0051083    
     27900  -4624.5769     -4660.6896      36.112713      6290.6365      287.72411      8046.9979      1.2044925      1.0051083    
     28000  -4625.3745     -4661.005       35.630526      4303.6836      283.88234      8029.9131      1.2070552      0.78752087   
     28100  -4626.3458     -4660.9512      34.605461      5228.9965      275.71524      8025.3614      1.2077398      0.78752087   
     28200  -4625.7444     -4660.1356      34.391203      6144.3469      274.00816      8036.7874      1.2060228      0.78752087   
     28300  -4627.3193     -4662.6626      35.34329       4773.3381      281.59381      8068.0377      1.2013514      0.78752087   
     28400  -4628.6799     -4661.8904      33.210531      7960.5079      264.60129      8112.6137      1.1947504      0.78752087   
     28500  -4628.3695     -4661.5801      33.210668      2807.5257      264.60238      8153.8836      1.1887033      0.78752087   
     28600  -4627.3909     -4662.1454      34.754535      1798.2353      276.90297      8177.3408      1.1852934      0.78752087   
     28700  -4627.4449     -4662.2369      34.792028      6521.1771      277.20169      8181.409       1.184704       0.78752087   
     28800  -4628.6165     -4661.7362      33.119751      8119.1989      263.878        8172.2303      1.1860347      0.78752087   
     28900  -4628.5393     -4662.2032      33.663878      2940.8443      268.21328      8157.9521      1.1881105      0.78752087   
     29000  -4628.3946     -4662.118       33.723474      4321.0479      268.6881       8140.2978      1.1906872      0.88994645   
     29100  -4628.1855     -4661.4222      33.236753      2945.3839      264.81021      8119.8952      1.193679       0.88994645   
     29200  -4627.7928     -4661.59        33.797232      7096.2791      269.27576      8096.4914      1.1971295      0.88994645   
     29300  -4628.3616     -4661.8499      33.488338      3713.8472      266.81468      8072.9375      1.2006222      0.88994645   
     29400  -4626.7659     -4662.9736      36.207623      6546.9964      288.48029      8058.4532      1.2027803      0.88994645   
     29500  -4626.9589     -4662.7073      35.748337      3369.5114      284.82098      8063.1807      1.2020751      0.88994645   
     29600  -4628.3698     -4662.9163      34.546492      6516.277       275.24541      8082.1025      1.1992608      0.88994645   
     29700  -4628.9976     -4663.2268      34.229199      5316.4737      272.71741      8101.7111      1.1963582      0.88994645   
     29800  -4627.7012     -4661.7041      34.002878      4825.5586      270.91422      8112.3788      1.194785       0.88994645   
     29900  -4626.9798     -4662.357       35.377217      6021.5256      281.86412      8112.5478      1.1947601      0.88994645   
     30000  -4627.3434     -4662.1015      34.758136      4262.1112      276.93166      8107.5975      1.1954896      0.62774534   
     30100  -4626.9249     -4662.2479      35.322951      4494.6149      281.43176      8103.1972      1.1961388      0.62774534   
     30200  -4626.5788     -4662.6026      36.023812      7150.7344      287.01579      8107.1146      1.1955608      0.62774534   
     30300  -4626.2212     -4661.5487      35.327477      2600.7364      281.46783      8111.7873      1.1948721      0.62774534   
     30400  -4625.1092     -4659.5648      34.455645      4920.875       274.5216       8107.1258      1.1955591      0.62774534   
     30500  -4625.2681     -4660.335       35.066854      7281.6364      279.39134      8095.8123      1.1972299      0.62774534   
     30600  -4626.2829     -4661.051       34.768103      6860.4708      277.01107      8083.6623      1.1990294      0.62774534   
     30700  -4627.4286     -4661.9978      34.569107      3389.3107      275.42559      8078.0916      1.1998562      0.62774534   
     30800  -4626.3842     -4661.2657      34.881505      7441.6518      277.91459      8080.4135      1.1995114      0.62774534   
     30900  -4625.5878     -4660.1364      34.548612      7223.023       275.2623       8087.7183      1.198428       0.62774534   
     31000  -4625.6812     -4661.1694      35.48827       7381.7465      282.74892      8093.3633      1.1975922      0.85324324   
     31100  -4626.4171     -4661.2197      34.802598      4348.9439      277.28591      8096.2553      1.1971644      0.85324324   
     31200  -4626.9602     -4660.6591      33.6989        6869.1228      268.49232      8101.4598      1.1963953      0.85324324   
     31300  -4628.2001     -4661.8241      33.624018      5296.2215      267.8957       8111.5979      1.1949         0.85324324   
     31400  -4627.2985     -4661.0791      33.78066       2297.9096      269.14373      8124.3054      1.193031       0.85324324   
     31500  -4627.8198     -4660.9302      33.110392      5802.087       263.80344      8135.4038      1.1914035      0.85324324   
     31600  -4628.1912     -4661.7238      33.532602      1228.4588      267.16735      8133.095       1.1917417      0.85324324   
     31700  -4627.4903     -4661.4173      33.926972      1743.6268      270.30945      8116.6363      1.1941583      0.85324324   
     31800  -4627.2706     -4661.9732      34.702512      7853.1148      276.48849      8097.2273      1.1970207      0.85324324   
     31900  -4626.7382     -4660.6318      33.893548      6905.3896      270.04315      8085.4981      1.1987571      0.85324324   
     32000  -4626.1062     -4661.4615      35.355324      5276.3806      281.68969      8084.9275      1.1988417      0.72770627   
     32100  -4625.2571     -4660.8437      35.586549      6512.1862      283.53195      8087.2606      1.1984959      0.72770627   
     32200  -4625.0617     -4659.7832      34.721516      6287.0124      276.63989      8086.4022      1.1986231      0.72770627   
     32300  -4625.4164     -4659.4377      34.021233      10265.061      271.06047      8089.0098      1.1982367      0.72770627   
     32400  -4627.2016     -4660.9344      33.732804      5696.0938      268.76244      8097.3397      1.197004       0.72770627   
     32500  -4626.9109     -4660.7614      33.850463      4731.4797      269.69987      8112.1129      1.1948242      0.72770627   
     32600  -4626.345      -4660.8971      34.552095      3616.2974      275.29005      8132.1239      1.191884       0.72770627   
     32700  -4627.0443     -4661.5114      34.467053      6293.3043      274.61249      8151.3994      1.1890656      0.72770627   
     32800  -4625.6859     -4660.581       34.895091      6948.1823      278.02283      8162.4476      1.1874561      0.72770627   
     32900  -4625.5064     -4659.0219      33.515517      5765.5729      267.03123      8165.2989      1.1870415      0.72770627   
     33000  -4625.5624     -4660.6965      35.134059      3651.5459      279.92678      8158.6172      1.1880136      0.84891509   
     33100  -4624.9211     -4660.7828      35.861749      397.38173      285.72458      8142.1344      1.1904186      0.84891509   
     33200  -4626.2977     -4661.5331      35.235379      5358.1516      280.73405      8119.6951      1.1937084      0.84891509   
     33300  -4625.7927     -4661.2025      35.409883      5779.7703      282.12438      8093.6781      1.1975456      0.84891509   
     33400  -4625.2956     -4659.8815      34.585855      6173.4522      275.55903      8067.4719      1.2014357      0.84891509   
     33500  -4625.9492     -4659.8899      33.940781      5616.9734      270.41948      8047.4553      1.204424       0.84891509   
     33600  -4625.8111     -4661.5139      35.702744      5223.5705      284.45772      8037.8108      1.2058692      0.84891509   
     33700  -4626.372      -4660.3949      34.02296       5322.6596      271.07423      8039.943       1.2055494      0.84891509   
     33800  -4625.9191     -4660.151       34.231964     -183.11519      272.73944      8046.626       1.2045481      0.84891509   
     33900  -4625.9181     -4659.9518      34.033645      3521.6248      271.15936      8052.9598      1.2036008      0.84891509   
     34000  -4625.5643     -4662.8248      37.260435      7786.0456      296.86846      8061.8165      1.2022785      0.83646888   
     34100  -4626.9123     -4662.002       35.089601      4765.4297      279.57257      8074.8654      1.2003356      0.83646888   
     34200  -4626.7507     -4662.4025      35.65183       7345.5102      284.05207      8095.4434      1.1972844      0.83646888   
     34300  -4626.9698     -4661.6155      34.645709      5590.5837      276.03591      8120.4443      1.1935983      0.83646888   
     34400  -4626.0593     -4660.5175      34.458181      3937.0658      274.5418       8142.7132      1.190334       0.83646888   
     34500  -4626.7869     -4660.4992      33.71226       5455.0697      268.59876      8162.8679      1.187395       0.83646888   
     34600  -4624.9037     -4660.4136      35.509972      7723.1443      282.92183      8176.7899      1.1853733      0.83646888   
     34700  -4624.5044     -4659.9417      35.437214      4630.9079      282.34214      8184.0483      1.184322       0.83646888   
     34800  -4625.9319     -4660.6964      34.764542      4798.1204      276.9827       8180.7903      1.1847937      0.83646888   
     34900  -4627.3475     -4661.8179      34.470357      5585.629       274.63881      8165.7435      1.1869768      0.83646888   
     35000  -4627.9976     -4662.5491      34.551461      3014.2524      275.285        8135.1265      1.1914441      0.72732693   
     35100  -4627.627      -4662.0844      34.457377      4952.8869      274.53539      8097.1242      1.1970359      0.72732693   
     35200  -4626.7437     -4661.3002      34.556453      8217.123       275.32477      8066.5565      1.201572       0.72732693   
     35300  -4626.1247     -4660.6716      34.546953      8399.2004      275.24908      8051.2964      1.2038494      0.72732693   
     35400  -4626.7967     -4660.3129      33.516283      5154.3791      267.03733      8053.7714      1.2034795      0.72732693   
     35500  -4626.448      -4661.0847      34.636615      3547.398       275.96345      8070.3545      1.2010065      0.72732693   
     35600  -4626.9519     -4662.0332      35.081288      3407.9249      279.50634      8092.0382      1.1977883      0.72732693   
     35700  -4624.9624     -4660.3552      35.392823      8167.7944      281.98846      8115.0321      1.1943943      0.72732693   
     35800  -4623.6286     -4658.9935      35.364954      3616.4476      281.76642      8137.222       1.1911373      0.72732693   
     35900  -4625.4856     -4660.0441      34.558429      2436.5031      275.34052      8159.2324      1.1879241      0.72732693   
     36000  -4625.068      -4659.9658      34.897856      4506.4333      278.04486      8176.1832      1.1854613      0.72966913   
     36100  -4625.2253     -4661.0243      35.798939      2784.5018      285.22415      8182.735       1.1845121      0.72966913   
     36200  -4624.7548     -4658.9683      34.213483      3291.0908      272.59219      8176.7659      1.1853768      0.72966913   
     36300  -4625.0108     -4660.732       35.721138      3578.4518      284.60427      8160.0623      1.1878032      0.72966913   
     36400  -4625.3895     -4659.7263      34.336801      5515.5695      273.57472      8135.8912      1.1913321      0.72966913   
     36500  -4625.7279     -4660.113       34.385057      5963.0899      273.95919      8107.2186      1.1955455      0.72966913   
     36600  -4626.2937     -4661.1567      34.863032      4476.9681      277.76741      8076.7901      1.2000496      0.72966913   
     36700  -4626.1089     -4660.3933      34.284386      7240.4676      273.15711      8046.534       1.2045619      0.72966913   
     36800  -4625.1145     -4661.4314      36.316883      6186.4302      289.35081      8024.7638      1.2078297      0.72966913   
     36900  -4626.4972     -4659.8985      33.40132       8651.795       266.12137      8017.7715      1.2088831      0.72966913   
     37000  -4626.7124     -4660.3458      33.633397      5009.037       267.97042      8031.8529      1.2067637      0.83745182   
     37100  -4626.6153     -4660.8453      34.22997       4647.5018      272.72356      8062.8624      1.2021225      0.83745182   
     37200  -4626.4528     -4661.6678      35.215042      6330.5434      280.57201      8104.7953      1.1959029      0.83745182   
     37300  -4626.2033     -4660.7976      34.594297      7103.6443      275.62629      8149.0867      1.189403       0.83745182   
     37400  -4626.4544     -4660.2668      33.812426      4585.1527      269.39682      8187.9978      1.1837507      0.83745182   
     37500  -4625.9425     -4661.435       35.492529      3391.9905      282.78285      8210.2301      1.1805453      0.83745182   
     37600  -4626.6896     -4661.7471      35.057481      6788.3056      279.31666      8215.567       1.1797784      0.83745182   
     37700  -4626.3513     -4660.5001      34.148877      3331.7134      272.07746      8208.2161      1.1808349      0.83745182   
     37800  -4625.9312     -4659.2486      33.317413      4614.1505      265.45286      8183.9926      1.1843301      0.83745182   
     37900  -4626.7673     -4660.5932      33.825899      8852.4794      269.50417      8144.6574      1.1900499      0.83745182   
     38000  -4626.9093     -4661.5889      34.679668      4940.8739      276.30647      8099.8204      1.1966375      0.74239786   
     38100  -4628.1062     -4662.4226      34.316409      7768.2759      273.41225      8064.5097      1.201877       0.74239786   
     38200  -4628.9517     -4663.1411      34.189441      5475.6189      272.40065      8049.4571      1.2041245      0.74239786   
     38300  -4627.4788     -4661.8324      34.3536        6437.1139      273.70856      8050.9116      1.2039069      0.74239786   
     38400  -4628.1275     -4662.2327      34.105221      3285.8265      271.72963      8064.167       1.201928       0.74239786   
     38500  -4627.2614     -4662.1841      34.922747      6226.4243      278.24318      8083.6561      1.1990303      0.74239786   
     38600  -4627.6902     -4661.2287      33.538542      5097.72        267.21468      8105.7062      1.1957685      0.74239786   
     38700  -4629.3494     -4663.0207      33.671295      2991.5904      268.27237      8122.0609      1.1933607      0.74239786   
     38800  -4630.0331     -4662.8262      32.793102      3699.3843      261.27547      8129.2688      1.1923026      0.74239786   
     38900  -4629.9179     -4663.2001      33.282233      4656.7441      265.17257      8126.0409      1.1927762      0.74239786   
     39000  -4628.8895     -4663.4759      34.586423      1737.9512      275.56356      8116.3793      1.1941961      0.71528707   
     39100  -4627.5147     -4662.4061      34.891344      5343.3926      277.99298      8107.2863      1.1955355      0.71528707   
     39200  -4626.6685     -4661.7267      35.058232      3740.522       279.32264      8103.0504      1.1961604      0.71528707   
     39300  -4627.9344     -4662.0778      34.143387      2907.0994      272.03372      8097.8745      1.196925       0.71528707   
     39400  -4628.6274     -4662.0958      33.468365      5362.9769      266.65555      8081.8144      1.1993035      0.71528707   
     39500  -4628.2088     -4662.0019      33.79309       4126.5986      269.24277      8060.6701      1.2024495      0.71528707   
     39600  -4627.8574     -4662.6794      34.82207       8084.8548      277.44105      8046.5845      1.2045543      0.71528707   
     39700  -4627.0273     -4661.1203      34.093026      6346.0388      271.63247      8050.1442      1.2040217      0.71528707   
     39800  -4627.1919     -4662.2835      35.091629      6631.5674      279.58873      8073.6606      1.2005147      0.71528707   
     39900  -4626.7285     -4660.3957      33.667227      6279.2881      268.23996      8103.7518      1.1960569      0.71528707   
     40000  -4627.5129     -4663.0723      35.559406      5320.9761      283.31569      8131.5087      1.1919742      0.69657427   
     40100  -4626.8159     -4661.477       34.661139      2422.552       276.15885      8153.9109      1.1886993      0.69657427   
     40200  -4626.8769     -4661.4107      34.533743      7138.9142      275.14384      8169.1963      1.1864751      0.69657427   
     40300  -4626.6382     -4660.5826      33.944423      6240.677       270.44849      8175.699       1.1855315      0.69657427   
     40400  -4626.3207     -4660.9603      34.639662      5253.0607      275.98774      8167.7568      1.1866843      0.69657427   
     40500  -4627.2577     -4662.1909      34.933204      1005.2516      278.32649      8150.64        1.1891764      0.69657427   
     40600  -4626.564      -4661.4768      34.912841      2839.8487      278.16425      8129.0997      1.1923274      0.69657427   
     40700  -4625.9539     -4659.6579      33.704021      5781.998       268.53311      8111.8361      1.1948649      0.69657427   
     40800  -4626.855      -4661.5424      34.68743       5531.2318      276.36832      8112.8276      1.1947189      0.69657427   
     40900  -4625.2129     -4661.9519      36.738976      4356.2253      292.71379      8130.6734      1.1920966      0.69657427   
     41000  -4624.9053     -4659.9985      35.09325       2528.2211      279.60165      8150.1553      1.1892471      0.69983386   
     41100  -4624.7321     -4659.0563      34.324184      3471.4623      273.4742       8158.9653      1.1879629      0.69983386   
     41200  -4625.7104     -4660.5749      34.864532      1758.5106      277.77936      8158.0576      1.1880951      0.69983386   
     41300  -4626.4094     -4661.8274      35.41793       4237.7113      282.1885       8141.1524      1.1905622      0.69983386   
     41400  -4624.9307     -4661.1973      36.266585      5611.6711      288.95006      8116.401       1.1941929      0.69983386   
     41500  -4623.7433     -4660.3876      36.644341      8074.911       291.95979      8101.495       1.1963901      0.69983386   
     41600  -4623.6083     -4658.6555      35.047168      5008.545       279.23449      8101.9694      1.19632        0.69983386   
     41700  -4623.903      -4659.1982      35.295176      3482.5107      281.21047      8114.456       1.1944791      0.69983386   
     41800  -4624.9494     -4660.133       35.183587      4010.2894      280.3214       8132.5245      1.1918253      0.69983386   
     41900  -4624.6315     -4659.7298      35.098293      4079.2714      279.64182      8142.2175      1.1904065      0.69983386   
     42000  -4624.5706     -4660.4375      35.866908      1397.5439      285.76568      8140.9887      1.1905861      0.77176137   
     42100  -4625.5251     -4660.269       34.743918      7589.6071      276.81838      8130.8359      1.1920728      0.77176137   
     42200  -4625.6765     -4661.3183      35.641725      5037.424       283.97156      8111.7951      1.194871       0.77176137   
     42300  -4627.5725     -4662.5785      35.00607       4591.7831      278.90705      8090.9871      1.1979439      0.77176137   
     42400  -4627.4124     -4660.7979      33.385572      6567.4293      265.99591      8073.1888      1.2005849      0.77176137   
     42500  -4627.3552     -4661.6701      34.314863      5875.4032      273.39993      8063.4866      1.2020294      0.77176137   
     42600  -4626.0972     -4660.5435      34.446253      3639.1893      274.44677      8067.5046      1.2014308      0.77176137   
     42700  -4625.582      -4661.0519      35.469917      4602.9589      282.6027       8092.0816      1.1977818      0.77176137   
     42800  -4626.3967     -4661.2671      34.870386      3357.4901      277.826        8124.0369      1.1930705      0.77176137   
     42900  -4626.2366     -4661.3125      35.075874      3785.2952      279.46321      8144.2787      1.1901052      0.77176137   
     43000  -4625.3718     -4660.5637      35.191898      5755.8043      280.38761      8150.2644      1.1892312      0.75886891   
     43100  -4625.3624     -4660.7449      35.382485      4466.8958      281.90609      8149.7659      1.1893039      0.75886891   
     43200  -4625.9837     -4660.3021      34.318395      5324.8349      273.42807      8146.4563      1.1897871      0.75886891   
     43300  -4626.7081     -4660.7858      34.077784      5667.1053      271.51103      8147.4615      1.1896403      0.75886891   
     43400  -4625.8296     -4661.111       35.281382      4076.8324      281.10056      8141.4751      1.190515       0.75886891   
     43500  -4626.3705     -4660.2439      33.87337       2586.4161      269.88238      8120.6952      1.1935614      0.75886891   
     43600  -4625.4383     -4660.1858      34.747479      6466.3605      276.84675      8093.7743      1.1975313      0.75886891   
     43700  -4625.3988     -4660.7754      35.376624      7465.6575      281.8594       8070.6459      1.2009632      0.75886891   
     43800  -4624.5091     -4660.3721      35.863044      4921.9532      285.73489      8061.1233      1.2023819      0.75886891   
     43900  -4624.7438     -4658.3465      33.602729      7874.3156      267.72608      8069.7129      1.201102       0.75886891   
     44000  -4626.6327     -4661.4873      34.854602      3996.6139      277.70024      8093.8713      1.197517       0.72082302   
     44100  -4626.6445     -4660.4542      33.809631      6897.1919      269.37455      8116.153       1.1942294      0.72082302   
     44200  -4626.3851     -4661.8343      35.449173      3268.9618      282.43742      8133.2029      1.1917259      0.72082302   
     44300  -4625.5502     -4660.0385      34.4883        4983.2566      274.78177      8143.3553      1.1902401      0.72082302   
     44400  -4625.7262     -4660.3288      34.602526      4407.3958      275.69185      8148.6284      1.1894699      0.72082302   
     44500  -4625.419      -4659.1318      33.712779      7700.2599      268.60289      8151.9887      1.1889796      0.72082302   
     44600  -4626.2378     -4660.5853      34.347484      3896.7979      273.65984      8157.9767      1.1881069      0.72082302   
     44700  -4627.1261     -4660.8258      33.699727      5435.6664      268.4989       8158.0189      1.1881008      0.72082302   
     44800  -4628.4566     -4660.4324      31.975817      2722.1501      254.76384      8148.8716      1.1894344      0.72082302   
     44900  -4630.0308     -4663.2494      33.218621      3773.1409      264.66574      8128.6025      1.1924003      0.72082302   
     45000  -4629.1336     -4662.4324      33.298846      6823.2661      265.30493      8096.3643      1.1971483      0.7840877    
     45100  -4628.0977     -4661.6571      33.559446      5512.9324      267.38123      8054.1842      1.2034178      0.7840877    
     45200  -4628.7696     -4663.1         34.330353      6205.7773      273.52334      8010.2296      1.2100213      0.7840877    
     45300  -4628.8695     -4662.0784      33.208893      4455.3917      264.58824      7980.2267      1.2145706      0.7840877    
     45400  -4628.9592     -4663.2893      34.330024      6007.2273      273.52073      7975.1315      1.2153465      0.7840877    
     45500  -4627.7967     -4661.45        33.653309      10685.145      268.12907      7992.3376      1.2127301      0.7840877    
     45600  -4627.6747     -4660.2927      32.618002      5295.2096      259.88037      8032.295       1.2066973      0.7840877    
     45700  -4627.9242     -4662.5255      34.601338      1764.6747      275.68239      8086.2173      1.1986505      0.7840877    
     45800  -4627.7006     -4661.994       34.293432      7872.1799      273.22918      8145.5919      1.1899133      0.7840877    
     45900  -4628.3286     -4661.461       33.132367      6653.6526      263.97852      8201.2353      1.1818401      0.7840877    
     46000  -4628.3822     -4662.2463      33.864129      2196.2288      269.80876      8240.4873      1.1762106      0.85734959   
     46100  -4628.1764     -4662.7457      34.569317      1834.2319      275.42727      8255.1775      1.1741175      0.85734959   
     46200  -4628.6278     -4661.6178      32.99005       3735.1545      262.84463      8243.197       1.1758239      0.85734959   
     46300  -4627.2707     -4660.0359      32.765166      2674.4874      261.05289      8207.8233      1.1808915      0.85734959   
     46400  -4626.8381     -4662.1383      35.300242      5556.4239      281.25083      8157.8965      1.1881186      0.85734959   
     46500  -4627.4716     -4661.2977      33.826082      4658.5574      269.50562      8106.7263      1.1956181      0.85734959   
     46600  -4625.9632     -4661.3839      35.420695      5379.8613      282.21053      8066.2936      1.2016112      0.85734959   
     46700  -4626.9413     -4660.6556      33.714292      7045.1674      268.61495      8036.9359      1.2060005      0.85734959   
     46800  -4626.6469     -4661.5456      34.898631      4406.5495      278.05104      8022.3968      1.2081861      0.85734959   
     46900  -4626.5404     -4660.8653      34.324848      8164.1257      273.47949      8026.0095      1.2076423      0.85734959   
     47000  -4626.2358     -4661.1049      34.869078      7893.9787      277.81558      8045.3239      1.2047431      0.81097418   
     47100  -4627.4543     -4663.1037      35.649361      1865.9876      284.0324       8077.6664      1.1999194      0.81097418   
     47200  -4628.9245     -4661.5925      32.667985      4247.4626      260.27861      8113.4657      1.1946249      0.81097418   
     47300  -4628.0223     -4662.4456      34.42331       5113.4082      274.26397      8142.9748      1.1902958      0.81097418   
     47400  -4628.4505     -4662.4309      33.980378      3855.6887      270.73496      8163.4401      1.1873118      0.81097418   
     47500  -4628.4737     -4663.9563      35.482591      3206.7929      282.70368      8169.3511      1.1864527      0.81097418   
     47600  -4628.6434     -4662.5967      33.95332       4439.7282      270.51938      8157.1632      1.1882254      0.81097418   
     47700  -4627.6167     -4661.121       33.504222      2602.1434      266.94124      8131.7415      1.1919401      0.81097418   
     47800  -4627.6996     -4661.74        34.040348      5300.1928      271.21276      8101.0856      1.1964506      0.81097418   
     47900  -4628.2036     -4662.3182      34.114545      5469.1667      271.80392      8073.4046      1.2005528      0.81097418   
     48000  -4627.7636     -4662.2169      34.453323      7189.9327      274.5031       8058.4304      1.2027837      0.73933948   
     48100  -4627.8781     -4661.308       33.429862      5882.4892      266.34878      8055.5732      1.2032103      0.73933948   
     48200  -4627.637      -4661.0889      33.451939      7279.3741      266.52468      8062.9171      1.2021144      0.73933948   
     48300  -4627.1116     -4661.6381      34.526501      3273.9433      275.08613      8079.7041      1.1996168      0.73933948   
     48400  -4625.996      -4660.7272      34.731221      4478.2765      276.71722      8097.5718      1.1969697      0.73933948   
     48500  -4626.1504     -4662.0685      35.91808       4039.1817      286.17339      8112.2176      1.1948087      0.73933948   
     48600  -4626.9058     -4661.2011      34.29533       6172.5897      273.2443       8126.3973      1.1927239      0.73933948   
     48700  -4627.7225     -4662.6519      34.929373      8116.6385      278.29597      8144.9843      1.1900021      0.73933948   
     48800  -4627.7279     -4661.492       33.764139      3757.2478      269.0121       8167.028       1.1867902      0.73933948   
     48900  -4628.1727     -4661.6899      33.517186      6633.4354      267.04453      8185.3278      1.1841369      0.73933948   
     49000  -4627.2353     -4662.4436      35.208309      1312.1393      280.51837      8190.4556      1.1833955      0.93955605   
     49100  -4626.3019     -4660.7681      34.466249      5012.9007      274.60608      8177.4914      1.1852716      0.93955605   
     49200  -4625.2584     -4660.2402      34.981719      3231.0291      278.71303      8151.7574      1.1890134      0.93955605   
     49300  -4624.2546     -4659.4553      35.200737      5643.7073      280.45803      8115.9239      1.1942631      0.93955605   
     49400  -4625.5621     -4660.2439      34.681775      6833.7608      276.32326      8081.9563      1.1992825      0.93955605   
     49500  -4625.2314     -4660.232       35.000541      5296.093       278.863        8058.5637      1.2027638      0.93955605   
     49600  -4625.9638     -4661.0413      35.077468      5033.8599      279.4759       8052.9563      1.2036013      0.93955605   
     49700  -4626.7342     -4660.1798      33.445558      5883.5985      266.47383      8061.7329      1.2022909      0.93955605   
     49800  -4627.0656     -4660.9458      33.880233      1452.4914      269.93706      8082.4348      1.1992115      0.93955605   
     49900  -4626.6764     -4661.4858      34.809394      5648.9534      277.34005      8105.7725      1.1957587      0.93955605   
     50000  -4626.6398     -4661.6252      34.98542       4619.6494      278.74252      8124.8405      1.1929525      0.72021797   
     50100  -4626.22       -4659.7299      33.509822      5043.3872      266.98586      8137.8099      1.1910512      0.72021797   
     50200  -4625.7514     -4660.0096      34.258181      6772.8599      272.94832      8145.1672      1.1899754      0.72021797   
     50300  -4624.9805     -4660.5125      35.531964      2711.7602      283.09705      8144.3577      1.1900937      0.72021797   
     50400  -4625.8669     -4660.7546      34.887705      3503.647       277.96399      8135.8872      1.1913327      0.72021797   
     50500  -4624.7931     -4660.7617      35.968621      3142.2273      286.57606      8123.9935      1.1930768      0.72021797   
     50600  -4624.0836     -4660.5039      36.420333      4646.0052      290.17504      8112.8102      1.1947215      0.72021797   
     50700  -4623.6531     -4660.0193      36.36619       4254.3686      289.74365      8110.1063      1.1951198      0.72021797   
     50800  -4623.1941     -4659.2813      36.087199      4610.329       287.52082      8113.3855      1.1946367      0.72021797   
     50900  -4624.0802     -4660.4827      36.402454      3499.2261      290.03258      8119.7037      1.1937072      0.72021797   
     51000  -4624.3259     -4659.0198      34.693984      5453.4485      276.42054      8121.7648      1.1934042      0.73513622   
     51100  -4624.8791     -4658.8402      33.961096      7433.8314      270.58133      8119.7111      1.1937061      0.73513622   
     51200  -4624.9436     -4660.0257      35.082111      3253.7823      279.5129       8117.6306      1.194012       0.73513622   
     51300  -4626.0929     -4661.4471      35.354192      5448.7376      281.68067      8119.8546      1.193685       0.73513622   
     51400  -4627.2074     -4661.8544      34.646989      6336.2996      276.04611      8131.3288      1.1920006      0.73513622   
     51500  -4626.5019     -4660.2227      33.720789      8219.5028      268.66671      8150.3477      1.189219       0.73513622   
     51600  -4626.5272     -4660.058       33.530806      6030.9285      267.15304      8171.2075      1.1861831      0.73513622   
     51700  -4627.5214     -4661.4008      33.879386      3621.6639      269.93031      8185.5583      1.1841035      0.73513622   
     51800  -4626.6805     -4660.9207      34.240243      5464.1272      272.8054       8187.3068      1.1838506      0.73513622   
     51900  -4626.4591     -4660.6688      34.209686      3792.4134      272.56194      8177.4769      1.1852737      0.73513622   
     52000  -4626.4186     -4660.6134      34.194859      3021.0443      272.44381      8159.8342      1.1878364      0.83127705   
     52100  -4627.613      -4661.3529      33.739927      3690.8578      268.81919      8137.517       1.1910941      0.83127705   
     52200  -4627.8439     -4661.9656      34.121686      6272.1076      271.86081      8117.4992      1.1940313      0.83127705   
     52300  -4627.6356     -4662.3001      34.664486      7255.6979      276.18551      8104.3203      1.195973       0.83127705   
     52400  -4628.5758     -4662.4692      33.893359      3859.2005      270.04164      8098.3733      1.1968513      0.83127705   
     52500  -4628.7818     -4662.3717      33.589923      4152.3108      267.62405      8100.0104      1.1966094      0.83127705   
     52600  -4629.1643     -4661.9401      32.775828      5852.9389      261.13784      8118.6614      1.1938604      0.83127705   
     52700  -4629.4789     -4661.8407      32.36181       4541.806       257.83919      8147.8004      1.1895908      0.83127705   
     52800  -4629.2632     -4663.7419      34.47874       3105.6665      274.7056       8172.4561      1.1860019      0.83127705   
     52900  -4627.4491     -4660.6104      33.16134       1751.9625      264.20937      8183.1746      1.1844484      0.83127705   
     53000  -4626.9207     -4660.7895      33.868787      4028.9997      269.84587      8177.2612      1.185305       0.76866374   
     53100  -4626.2586     -4660.1381      33.879551      5871.2108      269.93163      8149.6232      1.1893247      0.76866374   
     53200  -4626.126      -4660.1006      33.974688      2850.9038      270.68962      8114.6896      1.1944448      0.76866374   
     53300  -4626.4673     -4660.6261      34.158803      6396.3364      272.15654      8088.0219      1.1983831      0.76866374   
     53400  -4626.4358     -4661.1362      34.7004        5972.1363      276.47166      8073.4212      1.2005503      0.76866374   
     53500  -4627.2624     -4661.1762      33.913816      7151.5431      270.20463      8068.5863      1.2012697      0.76866374   
     53600  -4626.2856     -4661.1938      34.908188      4236.183       278.12718      8068.7903      1.2012394      0.76866374   
     53700  -4626.6198     -4660.486       33.866218      5768.4187      269.8254       8076.6809      1.2000658      0.76866374   
     53800  -4627.7059     -4661.1274      33.421541      4775.0802      266.28248      8093.1482      1.197624       0.76866374   
     53900  -4626.8827     -4661.4017      34.51905       461.16824      275.02677      8112.2697      1.1948011      0.76866374   
     54000  -4626.5339     -4661.2207      34.686818      5636.357       276.36344      8127.3571      1.1925831      0.75077927   
     54100  -4627.0206     -4661.0706      34.049942      4764.2129      271.2892       8135.8628      1.1913363      0.75077927   
     54200  -4626.9716     -4661.8701      34.89857       6442.0559      278.05055      8140.1897      1.190703       0.75077927   
     54300  -4626.7415     -4661.4455      34.70403       4827.8959      276.50058      8149.0882      1.1894028      0.75077927   
     54400  -4624.989      -4659.0548      34.065729      5224.9759      271.41498      8164.4266      1.1871683      0.75077927   
     54500  -4624.9174     -4659.5231      34.605731      4675.3707      275.71739      8185.0323      1.1841796      0.75077927   
     54600  -4623.8984     -4660.11        36.211606      2532.1811      288.51202      8203.3088      1.1815413      0.75077927   
     54700  -4625.5148     -4659.5778      34.063027      2683.6995      271.39346      8207.4982      1.1809382      0.75077927   
     54800  -4626.0151     -4660.2907      34.275583      4942.6614      273.08697      8185.1871      1.1841572      0.75077927   
     54900  -4626.5583     -4660.6694      34.111136      4349.5749      271.77676      8140.632       1.1906383      0.75077927   
     55000  -4626.929      -4662.0249      35.09588       5180.277       279.6226       8092.9475      1.1976537      0.654285     
     55100  -4625.2175     -4660.0512      34.833652      3745.8578      277.53333      8056.5935      1.2030579      0.654285     
     55200  -4625.7237     -4661.0082      35.284597      4484.644       281.12618      8036.3223      1.2060925      0.654285     
     55300  -4626.0062     -4661.146       35.139812      7595.8358      279.97262      8032.9213      1.2066032      0.654285     
     55400  -4626.4012     -4662.0912      35.689964      7676.4034      284.3559       8046.1625      1.2046175      0.654285     
     55500  -4627.0972     -4662.0216      34.924366      9762.2687      278.25608      8075.9399      1.2001759      0.654285     
     55600  -4627.4714     -4663.2335      35.762052      952.23973      284.93025      8119.9836      1.193666       0.654285     
     55700  -4626.5111     -4661.2646      34.753492      4137.254       276.89466      8162.4947      1.1874493      0.654285     
     55800  -4626.2121     -4662.1717      35.959552      5103.2402      286.50381      8187.1084      1.1838793      0.654285     
     55900  -4625.996      -4660.7036      34.707549      4448.578       276.52862      8186.732       1.1839338      0.654285     
     56000  -4625.0939     -4659.9876      34.89373       4287.3466      278.01199      8163.5268      1.1872991      0.83504028   
     56100  -4624.0012     -4659.169       35.167811      8407.2659      280.1957       8124.5188      1.1929997      0.83504028   
     56200  -4625.7843     -4660.4062      34.62189       4073.6748      275.84613      8081.1221      1.1994063      0.83504028   
     56300  -4625.547      -4660.0469      34.49989       6808.1098      274.87411      8042.7086      1.2051349      0.83504028   
     56400  -4624.981      -4659.1936      34.212602      6340.9837      272.58517      8020.0093      1.2085458      0.83504028   
     56500  -4625.7435     -4659.5624      33.818928      4922.7038      269.44862      8018.6322      1.2087533      0.83504028   
     56600  -4625.4156     -4660.5863      35.170679      8213.9704      280.21855      8036.7055      1.206035       0.83504028   
     56700  -4625.2411     -4661.5016      36.260574      7227.8347      288.90217      8068.1204      1.2013391      0.83504028   
     56800  -4625.3078     -4660.2032      34.895439      459.20659      278.02561      8103.5988      1.1960795      0.83504028   
     56900  -4626.1051     -4660.4511      34.345977      1997.3265      273.64783      8141.0614      1.1905755      0.83504028   
[...]
   2186300  -4627.8283     -4661.2188      33.390506      7045.602       266.03522      8113.0746      1.1946825      0.83898978   
   2186400  -4627.3303     -4660.6161      33.285837      7764.895       265.20128      8076.968       1.2000231      0.83898978   
   2186500  -4626.0944     -4660.8907      34.796313      3639.2675      277.23583      8043.6428      1.2049949      0.83898978   
   2186600  -4626.7508     -4661.35        34.599192      6537.8305      275.6653       8019.11        1.2086813      0.83898978   
   2186700  -4626.2929     -4660.5887      34.295769      9027.3883      273.2478       8012.529       1.209674       0.83898978   
   2186800  -4625.66       -4660.139       34.478974      7506.6163      274.70747      8031.2525      1.2068539      0.83898978   
   2186900  -4626.3991     -4660.8012      34.402116      7443.8601      274.09511      8070.8081      1.200939       0.83898978   
   2187000  -4625.6785     -4660.9433      35.264793      5568.5496      280.96839      8123.348       1.1931716      0.82880611   
   2187100  -4624.9843     -4659.1419      34.157594      2959.2326      272.1469       8172.0702      1.1860579      0.82880611   
   2187200  -4624.8213     -4660.0534      35.232058      5266.6719      280.70758      8207.7894      1.1808963      0.82880611   
   2187300  -4624.3463     -4659.4733      35.12697       5822.5157      279.8703       8224.9914      1.1784266      0.82880611   
   2187400  -4624.2185     -4659.8927      35.674217      4880.7358      284.23044      8222.7599      1.1787464      0.82880611   
   2187500  -4624.7057     -4659.0337      34.328005      4345.6893      273.50464      8209.9         1.1805927      0.82880611   
   2187600  -4624.5223     -4659.6874      35.165048      3691.3927      280.17369      8192.9566      1.1830343      0.82880611   
   2187700  -4625.1925     -4659.0268      33.834265      1547.0449      269.57082      8172.146       1.1860469      0.82880611   
   2187800  -4625.3312     -4658.8442      33.512957      5356.8324      267.01083      8140.9132      1.1905972      0.82880611   
   2187900  -4624.7742     -4660.3853      35.611113      4728.8924      283.72766      8103.27        1.196128       0.82880611   
   2188000  -4625.3043     -4661.2084      35.904037      5575.7878      286.0615       8064.3687      1.201898       0.68991026   
   2188100  -4625.5625     -4661.4076      35.845137      4623.1094      285.59223      8033.1071      1.2065753      0.68991026   
   2188200  -4626.2773     -4660.2542      33.976935      8649.9635      270.70753      8020.1837      1.2085195      0.68991026   
   2188300  -4625.3166     -4660.331       35.014387      7402.9271      278.97332      8036.0284      1.2061367      0.68991026   
   2188400  -4626.7894     -4662.117       35.327639      6212.5396      281.46911      8073.7755      1.2004976      0.68991026   
   2188500  -4627.9069     -4660.3695      32.462571      7372.1634      258.64199      8119.609       1.1937211      0.68991026   
   2188600  -4630.1509     -4663.5216      33.370735      4830.8779      265.87769      8162.6128      1.1874321      0.68991026   
   2188700  -4629.6881     -4663.8961      34.208053      2599.5013      272.54894      8193.7686      1.182917       0.68991026   
   2188800  -4629.246      -4661.5972      32.351236      592.92305      257.75495      8211.2354      1.1804007      0.68991026   
   2188900  -4627.3826     -4660.8544      33.471718      5227.7085      266.68227      8211.6243      1.1803449      0.68991026   
   2189000  -4627.8446     -4661.5157      33.67108       3326.0597      268.27066      8198.5682      1.1822245      0.74313836   
   2189100  -4628.3256     -4662.1451      33.819444      1601.817       269.45273      8172.5923      1.1859821      0.74313836   
   2189200  -4627.7796     -4662.3851      34.605522      3940.8821      275.71573      8135.0483      1.1914555      0.74313836   
   2189300  -4627.8495     -4662.4216      34.572141      4542.3871      275.44977      8095.4946      1.1972769      0.74313836   
   2189400  -4626.7148     -4661.2657      34.550889      5103.5284      275.28044      8061.1554      1.2023771      0.74313836   
   2189500  -4625.3067     -4661.34        36.033303      6183.442       287.09142      8036.2251      1.2061071      0.74313836   
   2189600  -4625.096      -4660.5148      35.418854      7455.8119      282.19586      8027.8425      1.2073665      0.74313836   
   2189700  -4625.4196     -4660.7564      35.336827      8648.1871      281.54232      8041.2607      1.2053518      0.74313836   
   2189800  -4625.6305     -4661.1181      35.4876        6273.4492      282.74358      8069.1771      1.2011818      0.74313836   
   2189900  -4625.9764     -4660.5776      34.601201      2638.1619      275.6813       8110.3365      1.1950858      0.74313836   
   2190000  -4626.7008     -4661.8546      35.15378       3594.6621      280.08391      8153.3793      1.1887768      0.71421616   
   2190100  -4628.0971     -4661.478       33.380849      5963.2908      265.95827      8184.6018      1.1842419      0.71421616   
   2190200  -4627.4199     -4660.9775      33.557581      6426.1556      267.36637      8195.4567      1.1826734      0.71421616   
   2190300  -4626.6073     -4661.4669      34.859592      5424.2897      277.74         8185.5278      1.1841079      0.71421616   
   2190400  -4627.0374     -4661.0137      33.976234      1953.5609      270.70194      8163.6536      1.1872807      0.71421616   
   2190500  -4627.0721     -4662.0021      34.930021      7575.624       278.30113      8140.6972      1.1906288      0.71421616   
   2190600  -4626.0021     -4660.6412      34.639044      7209.3933      275.98281      8116.5852      1.1941658      0.71421616   
   2190700  -4626.1501     -4660.9473      34.797205      4599.3252      277.24294      8091.9306      1.1978042      0.71421616   
   2190800  -4626.0227     -4660.9417      34.918903      5577.6118      278.21255      8071.4274      1.2008469      0.71421616   
   2190900  -4625.006      -4659.7757      34.769706      9122.1967      277.02384      8058.6675      1.2027483      0.71421616   
   2191000  -4627.3119     -4662.1703      34.858429      4403.1015      277.73073      8060.9654      1.2024054      0.66785676   
   2191100  -4627.3866     -4662.0254      34.638735      5128.2939      275.98035      8072.008       1.2007605      0.66785676   
   2191200  -4628.5986     -4661.5994      33.000836      7154.1685      262.93056      8089.7012      1.1981343      0.66785676   
   2191300  -4627.8945     -4661.7446      33.850156      5526.2283      269.69743      8108.6529      1.195334       0.66785676   
   2191400  -4628.8019     -4662.9513      34.1494        3180.5725      272.08162      8122.7198      1.1932639      0.66785676   
   2191500  -4628.7837     -4662.2421      33.458407      4934.2776      266.57621      8132.8817      1.191773       0.66785676   
   2191600  -4629.429      -4662.4034      32.97439       6657.6383      262.71986      8141.7314      1.1904775      0.66785676   
   2191700  -4629.9392     -4662.6245      32.685256      6096.0962      260.41621      8149.7198      1.1893106      0.66785676   
   2191800  -4629.9286     -4663.7854      33.856829      3559.0788      269.75059      8157.1315      1.18823        0.66785676   
   2191900  -4628.931      -4663.8622      34.9312        5258.4446      278.31053      8159.8283      1.1878373      0.66785676   
   2192000  -4628.9084     -4663.0601      34.15168       3606.376       272.09979      8153.3873      1.1887757      0.73332907   
   2192100  -4630.0519     -4663.4379      33.386029      4927.5857      265.99955      8137.7646      1.1910579      0.73332907   
   2192200  -4629.2635     -4662.8025      33.539013      6603.681       267.21843      8110.0874      1.1951226      0.73332907   
   2192300  -4628.7876     -4663.3141      34.526482      5219.4187      275.08598      8082.5951      1.1991877      0.73332907   
   2192400  -4627.7678     -4661.8354      34.067615      6727.5532      271.43001      8056.9832      1.2029997      0.73332907   
   2192500  -4626.5023     -4660.2773      33.774967      7059.4877      269.09836      8039.1255      1.205672       0.73332907   
   2192600  -4625.6321     -4661.5442      35.912115      3363.2932      286.12587      8030.5902      1.2069534      0.73332907   
   2192700  -4624.9441     -4659.9761      35.032021      9038.1456      279.11381      8037.1371      1.2059703      0.73332907   
   2192800  -4624.2581     -4660.2983      36.040168      2834.5471      287.14611      8064.5662      1.2018685      0.73332907   
   2192900  -4624.3183     -4660.2387      35.920434      3146.6447      286.19214      8103.8398      1.1960439      0.73332907   
   2193000  -4624.7633     -4660.2041      35.440764      5010.4457      282.37042      8149.437       1.1893519      0.71803924   
   2193100  -4625.6625     -4660.0184      34.355936     -267.40101      273.72718      8192.3915      1.1831159      0.71803924   
   2193200  -4626.5036     -4661.2835      34.779866      3690.8304      277.10479      8222.8718      1.1787303      0.71803924   
   2193300  -4627.3486     -4660.4305      33.081942      3292.2282      263.57677      8235.8695      1.1768701      0.71803924   
   2193400  -4625.9094     -4660.6222      34.712819      3454.6312      276.5706       8226.1862      1.1782554      0.71803924   
   2193500  -4625.6015     -4660.8788      35.277252      2371.1394      281.06766      8196.3267      1.1825478      0.71803924   
   2193600  -4626.6076     -4660.4249      33.817269      5992.3291      269.4354       8153.0066      1.1888312      0.71803924   
   2193700  -4625.924      -4661.3802      35.456207      5811.4952      282.49346      8102.5748      1.1962307      0.71803924   
   2193800  -4625.9548     -4660.3288      34.373995      2787.5962      273.87106      8052.7989      1.2036248      0.71803924   
   2193900  -4626.2529     -4660.6708      34.417948      3955.5075      274.22125      8019.8699      1.2085668      0.71803924   
   2194000  -4626.5682     -4661.7231      35.154841      6195.8081      280.09236      8014.0801      1.2094399      0.67344602   
   2194100  -4626.5198     -4660.0763      33.556441      6489.5611      267.35729      8031.8205      1.2067686      0.67344602   
   2194200  -4626.5265     -4661.7075      35.181028      5596.1625      280.30101      8069.2948      1.2011642      0.67344602   
   2194300  -4627.0686     -4662.0392      34.970641      6752.5465      278.62477      8108.1877      1.1954026      0.67344602   
   2194400  -4626.5449     -4662.4301      35.885161      1962.6606      285.91111      8139.4368      1.1908131      0.67344602   
   2194500  -4627.7241     -4661.2831      33.558972      4266.6904      267.37745      8160.8445      1.1876894      0.67344602   
   2194600  -4627.5742     -4661.0703      33.496178      3914.0386      266.87715      8167.4842      1.1867239      0.67344602   
   2194700  -4627.6876     -4662.201       34.513406      5261.314       274.9818       8165.7656      1.1869736      0.67344602   
   2194800  -4628.3367     -4662.0629      33.726263      5209.8252      268.71033      8164.3084      1.1871855      0.67344602   
   2194900  -4629.5521     -4662.5468      32.99472      -1645.7106      262.88183      8159.6858      1.187858       0.67344602   
   2195000  -4629.0717     -4661.8358      32.76408       4356.6574      261.04424      8138.0075      1.1910223      0.7033475    
   2195100  -4627.5011     -4661.2182      33.717045      3514.609       268.63688      8105.4656      1.195804       0.7033475    
   2195200  -4628.2696     -4663.617       35.347448      6146.9175      281.62694      8070.8163      1.2009378      0.7033475    
   2195300  -4628.381      -4663.4956      35.114655      7364.4227      279.77218      8043.8481      1.2049641      0.7033475    
   2195400  -4628.1449     -4661.9698      33.824906      8766.8491      269.49625      8030.77        1.2069264      0.7033475    
   2195500  -4628.3028     -4661.9303      33.627517      3942.7854      267.92358      8032.7204      1.2066334      0.7033475    
   2195600  -4627.8214     -4662.6921      34.870729      5547.0546      277.82874      8044.373       1.2048855      0.7033475    
   2195700  -4627.0298     -4660.7976      33.767806      6312.4697      269.04131      8062.6466      1.2021547      0.7033475    
   2195800  -4627.9864     -4661.1259      33.139589      7004.3679      264.03606      8093.9856      1.1975001      0.7033475    
   2195900  -4628.7242     -4662.5131      33.788827      6698.4735      269.2088       8135.3782      1.1914072      0.7033475    
   2196000  -4626.5679     -4661.3251      34.757176      2058.0906      276.92401      8176.8922      1.1853585      0.74264702   
   2196100  -4625.9307     -4661.3179      35.387135      410.57317      281.94315      8203.5911      1.1815007      0.74264702   
   2196200  -4625.9686     -4660.7907      34.822091      2369.7505      277.44121      8210.5085      1.1805053      0.74264702   
   2196300  -4625.42       -4660.1885      34.768524      526.23894      277.01443      8199.1793      1.1821364      0.74264702   
   2196400  -4625.9098     -4661.4255      35.515691      2562.1898      282.96739      8169.349       1.186453       0.74264702   
   2196500  -4627.43       -4661.2386      33.808666      3381.4909      269.36686      8126.14        1.1927617      0.74264702   
   2196600  -4628.5925     -4661.557       32.964473      4796.7225      262.64085      8081.2752      1.1993835      0.74264702   
   2196700  -4627.1659     -4662.1147      34.948768      10806.914      278.4505       8048.5743      1.2042566      0.74264702   
   2196800  -4627.2169     -4661.5685      34.3516        4727.2907      273.69263      8041.3203      1.2053429      0.74264702   
   2196900  -4626.8609     -4661.7666      34.905688      4389.7756      278.10726      8054.5267      1.2033666      0.74264702   
   2197000  -4625.794      -4659.2879      33.493968      7493.958       266.85954      8079.2128      1.1996897      0.77813176   
   2197100  -4625.7182     -4661.0929      35.374699      4806.4034      281.84406      8111.6653      1.1948901      0.77813176   
   2197200  -4626.2009     -4661.2935      35.09257       7398.3729      279.59622      8143.1968      1.1902633      0.77813176   
   2197300  -4625.3193     -4661.7428      36.423574      7366.3596      290.20086      8167.4064      1.1867352      0.77813176   
   2197400  -4624.0776     -4659.322       35.244385      404.19415      280.80579      8181.0227      1.18476        0.77813176   
   2197500  -4623.5933     -4659.5675      35.974185      1827.0145      286.62039      8180.6674      1.1848114      0.77813176   
   2197600  -4624.9546     -4660.1957      35.241095     -138.90435      280.77958      8168.4218      1.1865876      0.77813176   
   2197700  -4624.3418     -4659.2488      34.906982      2252.0489      278.11757      8147.7669      1.1895957      0.77813176   
   2197800  -4625.0818     -4660.9419      35.860026      3476.417       285.71085      8127.7632      1.1925235      0.77813176   
   2197900  -4625.1435     -4660.5277      35.384176      7919.0103      281.91957      8113.4726      1.1946239      0.77813176   
   2198000  -4625.011      -4660.1424      35.131482      4616.6956      279.90626      8110.5471      1.1950548      0.78771471   
   2198100  -4624.3395     -4660.1706      35.831053      5523.9089      285.48001      8112.7627      1.1947285      0.78771471   
   2198200  -4625.4932     -4660.6229      35.129679      4872.1223      279.89189      8118.1495      1.1939357      0.78771471   
   2198300  -4627.2751     -4660.0646      32.78957       3176.8427      261.24732      8125.7663      1.1928165      0.78771471   
   2198400  -4626.8149     -4661.1685      34.353644      4901.8238      273.70891      8131.8882      1.1919185      0.78771471   
   2198500  -4628.5159     -4662.2738      33.757917      3726.0917      268.96253      8132.9577      1.1917618      0.78771471   
   2198600  -4628.9251     -4662.4625      33.537442      6081.2617      267.20592      8128.0673      1.1924789      0.78771471   
   2198700  -4627.5834     -4661.6375      34.054112      3617.142       271.32243      8121.0353      1.1935114      0.78771471   
   2198800  -4626.3067     -4661.8457      35.538946      7442.2594      283.15268      8113.4754      1.1946235      0.78771471   
   2198900  -4626.1136     -4660.3389      34.225224      5325.9683      272.68574      8106.7454      1.1956152      0.78771471   
   2199000  -4626.3851     -4661.6575      35.272384      4572.1543      281.02887      8104.486       1.1959486      0.7261489    
   2199100  -4626.9853     -4661.6275      34.642231      5095.9829      276.0082       8108.2536      1.1953929      0.7261489    
   2199200  -4626.2028     -4660.7275      34.52471       3515.466       275.07186      8118.1768      1.1939317      0.7261489    
   2199300  -4624.8769     -4660.1939      35.317001      6483.334       281.38436      8132.8267      1.191781       0.7261489    
   2199400  -4625.5373     -4659.8117      34.274382      2558.3949      273.0774       8148.1745      1.1895362      0.7261489    
   2199500  -4624.3598     -4659.7084      35.348604      4309.0673      281.63615      8161.916       1.1875335      0.7261489    
   2199600  -4624.0641     -4659.1659      35.101827      3357.3281      279.66998      8163.1044      1.1873606      0.7261489    
   2199700  -4624.7466     -4660.539       35.792335      5645.8978      285.17153      8153.9907      1.1886877      0.7261489    
   2199800  -4625.0101     -4658.315       33.304877      3269.9665      265.35298      8130.68        1.1920957      0.7261489    
   2199900  -4625.1949     -4660.7235      35.528638      7314.0054      283.07055      8101.8653      1.1963354      0.7261489    
   2200000  -4626.4477     -4660.4972      34.049494      7468.7559      271.28563      8081.6569      1.1993269      0.68185192   
   2200100  -4626.8214     -4661.3401      34.518736      3016.1974      275.02427      8075.7534      1.2002036      0.68185192   
   2200200  -4626.8555     -4662.0216      35.16616       6598.3489      280.18255      8082.1075      1.19926        0.68185192   
   2200300  -4627.0697     -4661.1086      34.038945      5194.3099      271.20159      8094.8881      1.1973666      0.68185192   
   2200344  -4626.5829     -4659.6743      33.091454      7939.4621      263.65255      8099.8955      1.1966263      0.68185192   
Loop time of 6751.68 on 1 procs for 2000000 steps with 972 atoms

Performance: 12.797 ns/day, 1.875 hours/ns, 296.222 timesteps/s, 287.928 katom-step/s
99.7% CPU use with 1 MPI tasks x 1 OpenMP threads

MPI task timing breakdown:
Section |  min time  |  avg time  |  max time  |%varavg| %total
---------------------------------------------------------------
Pair    | 4781.7     | 4781.7     | 4781.7     |   0.0 | 70.82
Neigh   | 66.928     | 66.928     | 66.928     |   0.0 |  0.99
Comm    | 87.801     | 87.801     | 87.801     |   0.0 |  1.30
Output  | 4.6006     | 4.6006     | 4.6006     |   0.0 |  0.07
Modify  | 1763.9     | 1763.9     | 1763.9     |   0.0 | 26.12
Other   |            | 46.83      |            |       |  0.69

Nlocal:            972 ave         972 max         972 min
Histogram: 1 0 0 0 0 0 0 0 0 0
Nghost:           3400 ave        3400 max        3400 min
Histogram: 1 0 0 0 0 0 0 0 0 0
Neighs:              0 ave           0 max           0 min
Histogram: 1 0 0 0 0 0 0 0 0 0
FullNghs:       131320 ave      131320 max      131320 min
Histogram: 1 0 0 0 0 0 0 0 0 0

Total # of neighbors = 131320
Ave neighs/atom = 135.10288
Neighbor list builds = 198543
Dangerous builds = 191258
Total wall time: 2:03:53
