LAMMPS (7 Feb 2024 - Update 1)
KOKKOS mode with Kokkos version 4.2.0 is enabled (src/KOKKOS/kokkos.cpp:72)
  will use up to 2 GPU(s) per node
  using 1 OpenMP thread(s) per MPI task
package kokkos
package kokkos newton on neigh half

units		metal						## E in [eV], t in [ps], P in [10000 Pa], l in [A]
atom_style	atomic						## mass x y z vx vy vz

neighbor	0.5 bin						## neighbor list, skin = 0.5 Angstrom
neigh_modify	every 2 delay 10 check yes			## update of neighbor list

############################## main variables
variable        seed equal 71265

variable	temperature equal 310
variable	tempDamp equal 0.1

variable        pressure equal 0
variable        pressureDamp equal 1.0 				# This is 1 ps

##############################

read_data water.dat
Reading data file ...
  orthogonal box = (0 0 0) to (18.207572 23.629178 22.213196)
  1 by 2 by 1 MPI processor grid
  reading atoms ...
  864 atoms
  read_data CPU = 0.010 seconds

mass		1 1.008    # H
mass		2 15.9994  # O


pair_style	pace/extrapolation
ACE/AL version: 2023.11.25
pair_coeff	* * /home/cicn/cicn607503/pd/pot_dir/interim_potential_ladder_step_5.yaml /home/cicn/cicn607503/pd/pot_dir/interim_potential_ladder_step_5.asi H O
Loading /home/cicn/cicn607503/pd/pot_dir/interim_potential_ladder_step_5.yaml
Total number of basis functions
	H: 24 (r=1) 863 (r>1)
	O: 24 (r=1) 863 (r>1)
Mapping LAMMPS atom type #1(H) -> ACE species type #0
Mapping LAMMPS atom type #2(O) -> ACE species type #1
Loading ASI /home/cicn/cicn607503/pd/pot_dir/interim_potential_ladder_step_5.asi
LINEAR ASI is loaded

fix pace_gamma all pair 1000 pace/extrapolation gamma 1
compute max_pace_gamma all reduce max f_pace_gamma
variable dump_skip equal "c_max_pace_gamma < 10"

dump pace_dump all custom 1000 extrapolative_structures.dump id type x y z f_pace_gamma
dump_modify pace_dump skip v_dump_skip
dump_modify pace_dump element H O

variable max_pace_gamma equal c_max_pace_gamma

timestep	0.0005						## timestep = 0.0005*ps = 0.5 fs

thermo		100
thermo_style custom step etotal pe ke press temp vol density c_max_pace_gamma


min_style cg/kk
minimize 0.0 5.0e-4 10000 100000
Switching to 'neigh_modify every 1 delay 0 check yes' setting during minimization
Neighbor list info ...
  update: every = 1 steps, delay = 0 steps, check = yes
  max neighbors/atom: 2000, page size: 100000
  master list distance cutoff = 6.5
  ghost atom cutoff = 6.5
  binsize = 6.5, bins = 3 4 4
  1 neighbor lists, perpetual/occasional/extra = 1 0 0
  (1) pair pace/extrapolation/kk, perpetual
      attributes: full, newton on, kokkos_device
      pair build: full/bin/kk/device
      stencil: full/bin/3d
      bin: kk/device
WARNING: Fix with atom-based arrays not compatible with sending data in Kokkos communication, switching to classic exchange/border communication (src/KOKKOS/comm_kokkos.cpp:666)
WARNING: Fix with atom-based arrays not compatible with Kokkos sorting on device, switching to classic host sorting (src/KOKKOS/atom_kokkos.cpp:218)
Per MPI rank memory allocation (min/avg/max) = 449.3 | 453 | 456.7 Mbytes
   Step         TotEng         PotEng         KinEng         Press           Temp          Volume        Density     c_max_pace_gamma
         0  -4180.7249     -4180.7249      0              931.57303      0              9556.7825      0.90151666     0.51848273   
       100  -4182.8568     -4182.8568      0             -5818.1351      0              9556.7825      0.90151666     0.51848273   
       191  -4182.8571     -4182.8571      0             -5809.5218      0              9556.7825      0.90151666     0.51848273   
Loop time of 0.673209 on 2 procs for 191 steps with 864 atoms

99.3% CPU use with 2 MPI tasks x 1 OpenMP threads

Minimization stats:
  Stopping criterion = force tolerance
  Energy initial, next-to-last, final = 
      -4180.7249004513  -4182.85708343912  -4182.85708344366
  Force two-norm initial, final = 6.5563152 0.00040677855
  Force max component initial, final = 0.28078875 3.622429e-05
  Final line search alpha, max atom move = 1 3.622429e-05
  Iterations, force evaluations = 191 382

MPI task timing breakdown:
Section |  min time  |  avg time  |  max time  |%varavg| %total
---------------------------------------------------------------
Pair    | 0.46104    | 0.46249    | 0.46394    |   0.2 | 68.70
Neigh   | 0          | 0          | 0          |   0.0 |  0.00
Comm    | 0.068563   | 0.071005   | 0.073446   |   0.9 | 10.55
Output  | 0.00015317 | 0.0001538  | 0.00015442 |   0.0 |  0.02
Modify  | 0.089046   | 0.091236   | 0.093426   |   0.7 | 13.55
Other   |            | 0.04833    |            |       |  7.18

Nlocal:            432 ave         436 max         428 min
Histogram: 1 0 0 0 0 0 0 0 0 1
Nghost:           2169 ave        2174 max        2164 min
Histogram: 1 0 0 0 0 0 0 0 0 1
Neighs:              0 ave           0 max           0 min
Histogram: 2 0 0 0 0 0 0 0 0 0
FullNghs:        45636 ave       46083 max       45189 min
Histogram: 1 0 0 0 0 0 0 0 0 1

Total # of neighbors = 91272
Ave neighs/atom = 105.63889
Neighbor list builds = 0
Dangerous builds = 0

################## equilibration of main calculation
# Equilibrate to specified number of ice

fix             3 all nph aniso ${pressure} ${pressure} ${pressureDamp}
fix             3 all nph aniso 0 ${pressure} ${pressureDamp}
fix             3 all nph aniso 0 0 ${pressureDamp}
fix             3 all nph aniso 0 0 1
fix             4 all temp/csvr ${temperature} ${temperature} ${tempDamp} ${seed}
fix             4 all temp/csvr 310 ${temperature} ${tempDamp} ${seed}
fix             4 all temp/csvr 310 310 ${tempDamp} ${seed}
fix             4 all temp/csvr 310 310 0.1 ${seed}
fix             4 all temp/csvr 310 310 0.1 71265
velocity 	all create ${temperature} ${seed} dist gaussian
velocity 	all create 310 ${seed} dist gaussian
velocity 	all create 310 71265 dist gaussian

run 200000
WARNING: Fix with atom-based arrays not compatible with sending data in Kokkos communication, switching to classic exchange/border communication (src/KOKKOS/comm_kokkos.cpp:666)
WARNING: Fix with atom-based arrays not compatible with Kokkos sorting on device, switching to classic host sorting (src/KOKKOS/atom_kokkos.cpp:218)
Per MPI rank memory allocation (min/avg/max) = 453.3 | 454.9 | 456.4 Mbytes
   Step         TotEng         PotEng         KinEng         Press           Temp          Volume        Density     c_max_pace_gamma
       191  -4148.2761     -4182.8571      34.580967     -1944.5661      310            9556.7825      0.90151666     0.51848273   
       200  -4147.7945     -4172.5501      24.755615     -10457.238      221.92094      9556.5611      0.90153754     0.51848273   
       300  -4140.2926     -4161.3042      21.011609     -91.473885      188.35791      9531.4949      0.90390843     0.51848273   
       400  -4133.4538     -4155.7012      22.247402     -3051.3644      199.43614      9476.4732      0.90915665     0.51848273   
       500  -4127.1445     -4153.0875      25.943002     -2251.091       232.56524      9395.4342      0.91699845     0.51848273   
       600  -4124.0363     -4153.2982      29.261891      1204.0084      262.31731      9315.9415      0.92482318     0.51848273   
       700  -4122.1332     -4152.6204      30.487214      1924.6904      273.30168      9267.0965      0.92969773     0.51848273   
       800  -4119.0798     -4151.1543      32.074527      2657.7755      287.5311       9260.7299      0.93033689     0.51848273   
       900  -4117.9032     -4148.1415      30.238293      2867.6771      271.07024      9299.8595      0.92642245     0.51848273   
      1000  -4116.5735     -4147.3981      30.824633      1568.0399      276.32647      9377.993       0.91870389     0.69704323   
      1100  -4116.7845     -4146.9422      30.157692      132.06321      270.34769      9479.4301      0.90887305     0.69704323   
      1200  -4116.366      -4148.4011      32.035131     -2120.976       287.17794      9584.2716      0.89893097     0.69704323   
      1300  -4115.458      -4148.017       32.559072     -528.4994       291.87479      9678.5252      0.8901768      0.69704323   
      1400  -4114.0607     -4147.021       32.96033      -2995.1259      295.47185      9748.0691      0.88382617     0.69704323   
      1500  -4113.286      -4145.4605      32.174425      488.16109      288.42663      9787.5828      0.88025805     0.69704323   
      1600  -4112.2897     -4146.5351      34.245374     -1926.7984      306.99159      9795.6198      0.87953583     0.69704323   
      1700  -4110.2564     -4144.0805      33.824081      638.16471      303.21492      9773.7575      0.88150321     0.69704323   
      1800  -4110.321      -4144.0926      33.77156      -2463.5778      302.7441       9731.3095      0.88534833     0.69704323   
      1900  -4110.6883     -4144.3917      33.703357     -160.19829      302.13269      9677.3284      0.89028688     0.69704323   
      2000  -4111.2393     -4144.654       33.414788      774.79816      299.54583      9620.3842      0.8955566      0.68423629   
      2100  -4110.4656     -4144.8029      34.337243      921.52666      307.81515      9563.8112      0.90085411     0.68423629   
      2200  -4109.1455     -4144.0285      34.883002      482.23111      312.70759      9521.2612      0.90487997     0.68423629   
      2300  -4109.5906     -4145.1416      35.551038      1021.6252      318.69617      9499.7781      0.9069263      0.68423629   
      2400  -4110.8243     -4144.0035      33.179231      1925.8245      297.43418      9497.5789      0.9071363      0.68423629   
      2500  -4109.9995     -4145.0037      35.004202      2256.2167      313.79408      9514.5529      0.90551797     0.68423629   
      2600  -4110.3414     -4146.0629      35.721478     -334.68351      320.22408      9548.2409      0.90232313     0.68423629   
      2700  -4111.1759     -4144.9573      33.781376     -2239.3766      302.83209      9595.3972      0.89788868     0.68423629   
      2800  -4111.8004     -4145.8488      34.048447      644.94034      305.22625      9643.3164      0.89342694     0.68423629   
      2900  -4111.9827     -4147.2451      35.262416      1809.5241      316.10884      9686.4683      0.88944684     0.68423629   
      3000  -4112.1776     -4145.2942      33.116601     -377.01965      296.87274      9719.6548      0.88640993     0.71194909   
      3100  -4110.9084     -4145.6822      34.773807      148.35148      311.72872      9734.8732      0.88502422     0.71194909   
      3200  -4111.2014     -4145.2639      34.062544     -304.22283      305.35262      9728.3059      0.88562168     0.71194909   
      3300  -4111.2629     -4145.513       34.25009      -906.78847      307.03387      9703.7466      0.8878631      0.71194909   
      3400  -4112.4109     -4144.5096      32.098657     -3102.3135      287.74742      9663.7338      0.89153931     0.71194909   
      3500  -4110.5066     -4144.2757      33.769128     -216.52654      302.7223       9615.2299      0.89603667     0.71194909   
      3600  -4110.0054     -4146.134       36.128536     -150.97097      323.87313      9570.0562      0.90026625     0.71194909   
      3700  -4110.4218     -4144.6316      34.209742      901.85297      306.67217      9534.9919      0.90357692     0.71194909   
      3800  -4110.0791     -4145.9396      35.860469      128.01381      321.47006      9517.6656      0.90522182     0.71194909   
      3900  -4110.9882     -4146.1819      35.193693      471.98311      315.49277      9521.7542      0.90483312     0.71194909   
      4000  -4110.7023     -4146.0883      35.385995     -768.49576      317.21665      9544.7402      0.90265407     0.69700762   
      4100  -4110.422      -4144.5664      34.14442      -387.02347      306.08659      9582.0026      0.89914384     0.69700762   
      4200  -4109.8738     -4144.5237      34.649897      247.81795      310.61792      9626.3962      0.8949973      0.69700762   
      4300  -4109.9795     -4143.6473      33.667799      2465.6324      301.81393      9678.3876      0.89018945     0.69700762   
      4400  -4111.7105     -4145.0378      33.327299     -1322.5946      298.76154      9728.1528      0.88563562     0.69700762   
      4500  -4110.8732     -4145.2574      34.384206     -414.16314      308.23615      9760.4224      0.88270756     0.69700762   
      4600  -4109.7732     -4144.7229      34.949728      2585.3383      313.30575      9772.6182      0.88160597     0.69700762   
      4700  -4109.9182     -4145.1347      35.216516      22.134055      315.69736      9768.8204      0.88194871     0.69700762   
      4800  -4110.5626     -4143.8947      33.33207      -2544.5014      298.8043       9747.5446      0.88387373     0.69700762   
      4900  -4110.4975     -4143.6211      33.123615     -3504.463       296.93562      9706.8225      0.88758176     0.69700762   
      5000  -4110.9734     -4144.9398      33.96635      -499.28724      304.49029      9654.032       0.89243526     0.73457929   
      5100  -4110.4822     -4145.1397      34.65745      -1065.6487      310.68564      9599.2689      0.89752654     0.73457929   
      5200  -4111.0976     -4145.8704      34.772776      821.20949      311.71947      9552.649       0.90190674     0.73457929   
      5300  -4110.7245     -4144.6495      33.925052      1332.6047      304.12007      9519.9172      0.90500772     0.73457929   
      5400  -4111.2547     -4145.5318      34.277119     -1845.5457      307.27617      9511.7436      0.90578542     0.73457929   
      5500  -4110.3173     -4145.6061      35.288754     -60.338221      316.34494      9526.6001      0.90437286     0.73457929   
      5600  -4110.5647     -4145.2461      34.6814        299.65902      310.90034      9562.9936      0.90093112     0.73457929   
      5700  -4109.9775     -4144.8196      34.842137     -883.12093      312.34125      9612.7823      0.89626482     0.73457929   
      5800  -4109.9439     -4143.7083      33.764359     -2073.9731      302.67955      9664.6396      0.89145576     0.73457929   
      5900  -4111.8623     -4144.8671      33.004829     -606.06528      295.87077      9719.336       0.88643901     0.73457929   
      6000  -4112.7857     -4145.8659      33.080168     -2130.499       296.54613      9767.4019      0.8820768      0.65498813   
      6100  -4111.9888     -4144.6435      32.654663     -1015.8751      292.73171      9800.0379      0.87913931     0.65498813   
      6200  -4110.6423     -4144.3147      33.672462     -3941.6324      301.85574      9809.744       0.87826946     0.65498813   
      6300  -4109.8095     -4143.9774      34.167945     -112.9422       306.29748      9794.4556      0.87964037     0.65498813   
      6400  -4109.79       -4143.8073      34.0173       -682.17415      304.94703      9763.4055      0.88243786     0.65498813   
      6500  -4110.3402     -4144.4739      34.133721     -2792.432       305.99068      9715.2663      0.88681034     0.65498813   
      6600  -4109.8808     -4143.7516      33.870712      3604.8522      303.63294      9656.5939      0.8921985      0.65498813   
      6700  -4109.6644     -4143.8913      34.226897     -1156.276       306.82595      9598.9316      0.89755808     0.65498813   
      6800  -4108.743      -4145.4687      36.725647     -930.75895      329.22592      9552.6066      0.90191075     0.65498813   
      6900  -4108.9359     -4144.5232      35.587299      5259.7248      319.02124      9525.6026      0.90446756     0.65498813   
      7000  -4108.1179     -4143.5843      35.466332      512.10151      317.93683      9519.4851      0.9050488      0.70041214   
      7100  -4108.0104     -4143.0245      35.014095      1411.9967      313.88276      9535.3382      0.9035441      0.70041214   
      7200  -4108.9852     -4144.5276      35.542428     -1333.8612      318.619        9575.6053      0.89974454     0.70041214   
      7300  -4109.7996     -4145.4129      35.613331     -842.90062      319.2546       9630.0174      0.89466075     0.70041214   
      7400  -4110.4182     -4144.8861      34.467922      3151.0743      308.98661      9692.6683      0.8888779      0.70041214   
      7500  -4110.2676     -4144.1963      33.928717      685.28514      304.15293      9753.582       0.88332661     0.70041214   
      7600  -4110.6471     -4144.9488      34.301706     -3223.2039      307.49657      9802.6181      0.87890791     0.70041214   
      7700  -4108.8161     -4143.9731      35.156919     -1037.4869      315.16311      9830.8509      0.87638381     0.70041214   
      7800  -4110.0675     -4144.3686      34.301151     -806.86377      307.4916       9836.4903      0.87588137     0.70041214   
      7900  -4109.0938     -4143.9162      34.822372     -1830.1652      312.16407      9816.1892      0.8776928      0.70041214   
      8000  -4107.6735     -4145.0229      37.349328      3010.9339      334.81689      9770.4074      0.88180546     0.67119507   
      8100  -4108.2536     -4143.7296      35.475953      2986.7984      318.02308      9707.9073      0.88748258     0.67119507   
      8200  -4109.6542     -4143.5854      33.931231     -200.49353      304.17547      9642.5302      0.89349978     0.67119507   
      8300  -4111.0827     -4145.7424      34.659734     -3501.0015      310.70611      9584.0303      0.89895361     0.67119507   
      8400  -4110.9711     -4144.751       33.779968      1615.7859      302.81947      9536.1033      0.90347161     0.67119507   
      8500  -4110.3052     -4144.1121      33.806891      2076.8256      303.06082      9510.3641      0.9059168      0.67119507   
      8600  -4110.7338     -4145.4587      34.724939     -1124.0294      311.29064      9510.7813      0.90587706     0.67119507   
      8700  -4110.9087     -4144.5414      33.632741      700.99184      301.49966      9539.5905      0.90314134     0.67119507   
      8800  -4110.6417     -4144.41        33.7683        725.46995      302.71487      9594.8192      0.89794278     0.67119507   
      8900  -4112.4425     -4145.7334      33.290953     -44.02882       298.43572      9666.4902      0.89128509     0.67119507   
      9000  -4110.8233     -4145.0001      34.176828      933.02611      306.37711      9736.9128      0.88483884     0.73741746   
      9100  -4110.2788     -4145.8607      35.581968     -106.02382      318.97344      9797.2552      0.87938901     0.73741746   
      9200  -4109.0442     -4144.6023      35.558066     -2965.13        318.75918      9837.4239      0.87579825     0.73741746   
      9300  -4108.5554     -4142.1502      33.594824     -2570.9241      301.15976      9848.7803      0.87478838     0.73741746   
      9400  -4108.175      -4144.0433      35.86836      -1597.1755      321.54079      9833.0723      0.87618583     0.73741746   
      9500  -4107.7762     -4143.2039      35.427712      101.09268      317.59062      9792.1706      0.87984564     0.73741746   
      9600  -4108.7465     -4142.104       33.35754      -1953.1097      299.03263      9734.5177      0.88505654     0.73741746   
      9700  -4109.3667     -4144.5491      35.182349      1640.8088      315.39108      9671.001       0.89086937     0.73741746   
      9800  -4109.1233     -4143.8536      34.730337     -2155.4826      311.33903      9609.1832      0.89660052     0.73741746   
      9900  -4108.669      -4143.9549      35.285826      2511.2924      316.31869      9561.2569      0.90109477     0.73741746   
     10000  -4109.8915     -4144.2695      34.377961      1995.4141      308.18017      9532.4427      0.90381855     0.80265668   
     10100  -4109.2829     -4145.6264      36.343501      1811.1384      325.80018      9524.8397      0.90454001     0.80265668   
     10200  -4111.3495     -4144.8903      33.540878      444.86224      300.67616      9540.1858      0.90308499     0.80265668   
     10300  -4112.0089     -4146.7023      34.693403      563.54315      311.00793      9575.0795      0.89979394     0.80265668   
     10400  -4111.9442     -4144.5729      32.628681      329.29931      292.49879      9621.0812      0.89549173     0.80265668   
     10500  -4112.1624     -4145.8104      33.648045      1915.4904      301.63685      9667.8953      0.89115555     0.80265668   
     10600  -4112.7841     -4146.1892      33.405134     -726.12648      299.45929      9709.9526      0.88729564     0.80265668   
     10700  -4110.3275     -4144.8978      34.570314      816.73008      309.9045       9742.0218      0.8843748      0.80265668   
     10800  -4108.4399     -4144.4         35.960051     -1681.6584      322.36275      9762.2869      0.88253897     0.80265668   
     10900  -4108.4832     -4144.0653      35.58208      -2236.7517      318.97445      9772.2869      0.88163586     0.80265668   
     11000  -4107.9667     -4144.1963      36.22958       787.48276      324.77895      9771.3228      0.88172285     0.65629514   
     11100  -4107.7793     -4143.5597      35.780351     -914.38116      320.75185      9755.2558      0.88317505     0.65629514   
     11200  -4106.987      -4142.9443      35.957297     -1270.5456      322.33807      9727.5526      0.88569026     0.65629514   
     11300  -4108.5048     -4145.3674      36.862553      18.964368      330.45321      9697.6381      0.88842237     0.65629514   
     11400  -4107.7807     -4144.2471      36.466427      3193.9195      326.90215      9671.7912      0.89079659     0.65629514   
     11500  -4108.553      -4143.5248      34.9718       -2315.3238      313.50361      9652.4921      0.89257763     0.65629514   
     11600  -4108.6288     -4142.8225      34.193655     -1718.6049      306.52796      9638.9812      0.89382876     0.65629514   
     11700  -4106.8026     -4142.2068      35.404207     -1604.5105      317.37991      9625.2177      0.89510688     0.65629514   
     11800  -4106.3461     -4141.6035      35.257359     -818.33234      316.0635       9612.7636      0.89626656     0.65629514   
     11900  -4107.5381     -4142.9043      35.366149     -585.77176      317.03875      9610.4333      0.89648389     0.65629514   
     12000  -4108.4064     -4144.9048      36.498398     -1785.163       327.18876      9617.2921      0.89584454     0.71079276   
     12100  -4107.9916     -4142.9656      34.974081      861.72259      313.52406      9635.6034      0.89414209     0.71079276   
     12200  -4108.9593     -4144.003       35.04368       812.40853      314.14798      9664.3295      0.89148436     0.71079276   
     12300  -4108.4885     -4144.9409      36.452417     -2792.0096      326.77656      9695.9865      0.8885737      0.71079276   
     12400  -4109.2815     -4144.1802      34.898732      201.72189      312.8486       9724.7184      0.88594839     0.71079276   
     12500  -4108.9924     -4144.6529      35.660482     -1574.2695      319.67728      9744.189       0.8841781      0.71079276   
     12600  -4110.1755     -4144.4481      34.272674      1556.6312      307.23632      9749.6001      0.88368738     0.71079276   
     12700  -4110.1997     -4144.5964      34.396627     -1180.5186      308.34749      9737.4461      0.88479037     0.71079276   
     12800  -4110.2751     -4145.0262      34.751083      222.3482       311.525        9708.4594      0.88743211     0.71079276   
     12900  -4110.9776     -4144.5715      33.593899      432.08281      301.15146      9667.9109      0.89115411     0.71079276   
     13000  -4111.541      -4145.1795      33.638436     -2082.5141      301.55071      9623.1729      0.89529708     0.74117392   
     13100  -4110.859      -4144.4578      33.598796      543.19163      301.19536      9577.8506      0.89953362     0.74117392   
     13200  -4109.6281     -4143.5634      33.935309      940.17203      304.21203      9540.7355      0.90303295     0.74117392   
     13300  -4109.7879     -4143.8176      34.029753     -1567.4772      305.05866      9520.4899      0.90495328     0.74117392   
     13400  -4108.9284     -4144.507       35.578566      4191.069       318.94295      9519.4636      0.90505084     0.74117392   
     13500  -4110.086      -4145.185       35.099014      795.42465      314.64402      9537.0061      0.90338609     0.74117392   
     13600  -4110.1911     -4145.3053      35.114172     -11.542415      314.7799       9567.0122      0.90055269     0.74117392   
     13700  -4110.4167     -4145.105       34.688334      1476.252       310.9625       9609.3445      0.89658546     0.74117392   
     13800  -4111.5076     -4145.9547      34.447077     -1208.6451      308.79975      9664.3592      0.89148162     0.74117392   
     13900  -4110.4696     -4145.0075      34.537877     -110.41167      309.61373      9724.178       0.88599762     0.74117392   
     14000  -4110.5703     -4145.1403      34.569971     -1369.4142      309.90143      9777.3292      0.88118119     0.71193751   
     14100  -4109.5785     -4144.0611      34.482548     -2763.529       309.11773      9808.2814      0.87840043     0.71193751   
     14200  -4109.3176     -4144.7809      35.463355     -94.020334      317.91014      9809.8008      0.87826438     0.71193751   
     14300  -4110.4856     -4145.1749      34.689326     -1442.9126      310.97138      9779.0672      0.88102458     0.71193751   
     14400  -4110.2729     -4144.1821      33.90921      -2286.3543      303.97806      9721.9078      0.88620452     0.71193751   
     14500  -4109.956      -4143.8802      33.924169      298.16556      304.11215      9647.675       0.8930233      0.71193751   
     14600  -4110.0854     -4144.8251      34.739658      251.58536      311.42258      9570.7172      0.90020408     0.71193751   
     14700  -4110.022      -4145.1383      35.116283      1464.2663      314.79883      9504.9155      0.9064361      0.71193751   
     14800  -4109.3815     -4145.1228      35.741283      2517.8385      320.40162      9460.7498      0.91066763     0.71193751   
     14900  -4111.3041     -4145.2225      33.918432      1795.4426      304.06073      9443.0693      0.9123727      0.71193751   
     15000  -4111.3775     -4147.0898      35.712356      1582.9358      320.1423       9447.7499      0.91192069     0.73847456   
     15100  -4113.3848     -4146.804       33.419157      2057.7441      299.585        9474.419       0.90935377     0.73847456   
     15200  -4112.7907     -4147.528       34.737341     -291.92396      311.40182      9522.074       0.90480274     0.73847456   
     15300  -4111.4292     -4145.3511      33.921872     -1123.4418      304.09157      9586.3857      0.89873273     0.73847456   
     15400  -4111.724      -4145.2004      33.476383     -4180.3993      300.098        9653.4606      0.89248809     0.73847456   
     15500  -4112.0568     -4145.178       33.121224     -1493.4488      296.91418      9708.0545      0.88746912     0.73847456   
     15600  -4111.5621     -4146.559       34.996883      329.41608      313.72847      9742.8926      0.88429575     0.73847456   
     15700  -4111.538      -4145.4048      33.866743     -2967.701       303.59736      9754.5073      0.88324282     0.73847456   
     15800  -4111.435      -4145.9243      34.489351     -1480.509       309.17871      9745.4487      0.88406382     0.73847456   
     15900  -4110.9463     -4146.1297      35.183378      1887.4026      315.4003       9716.5169      0.8866962      0.73847456   
     16000  -4110.0244     -4143.8668      33.842371     -399.41229      303.37889      9672.8542      0.89069869     0.74583102   
     16100  -4110.0181     -4143.9843      33.966146      1402.2686      304.48846      9625.1932      0.89510916     0.74583102   
     16200  -4109.6986     -4145.1289      35.430322      1375.5662      317.61402      9581.424       0.89919813     0.74583102   
     16300  -4111.1692     -4145.7556      34.586399      625.92636      310.0487       9549.4096      0.90221269     0.74583102   
     16400  -4111.7462     -4146.4334      34.687216      2566.6136      310.95247      9532.513       0.90381189     0.74583102   
     16500  -4111.654      -4144.8083      33.15432      -1522.4651      297.21087      9529.4886      0.90409874     0.74583102   
     16600  -4110.6661     -4144.4878      33.82168       423.57334      303.1934       9541.8182      0.90293049     0.74583102   
     16700  -4109.7649     -4143.5219      33.756995      1076.3066      302.61353      9564.2019      0.9008173      0.74583102   
     16800  -4109.1409     -4143.1013      33.960339      2085.3198      304.4364       9597.0283      0.89773608     0.74583102   
     16900  -4109.949      -4144.9891      35.040126     -1225.9397      314.11612      9636.8655      0.89402499     0.74583102   
     17000  -4110.8015     -4145.302       34.500518     -2109.939       309.27882      9670.4226      0.89092266     0.6711121    
     17100  -4110.0042     -4144.0625      34.058293     -254.43133      305.3145       9695.4264      0.88862503     0.6711121    
     17200  -4109.1917     -4145.2964      36.104671      570.96252      323.6592       9715.5227      0.88678694     0.6711121    
     17300  -4109.116      -4143.9416      34.825676     -3298.4551      312.19369      9725.7851      0.88585122     0.6711121    
     17400  -4107.8247     -4142.2514      34.426719      1191.4653      308.61725      9726.0473      0.88582734     0.6711121    
     17500  -4107.9602     -4143.0764      35.116252      480.37807      314.79855      9719.3309      0.88643948     0.6711121    
     17600  -4109.3439     -4143.2519      33.908023     -1383.5402      303.96742      9702.2238      0.88800246     0.6711121    
     17700  -4109.3488     -4144.683       35.334199     -2615.6638      316.75233      9679.9324      0.89004739     0.6711121    
     17800  -4111.4559     -4145.3669      33.911067      415.76885      303.99471      9659.5631      0.89192425     0.6711121    
     17900  -4111.4163     -4145.8042      34.387959      3288.7582      308.26979      9646.3427      0.89314664     0.6711121    
     18000  -4109.4643     -4144.2651      34.800845     -756.30116      311.97109      9638.1806      0.89390301     0.72546433   
     18100  -4109.9775     -4144.456       34.478473      513.02808      309.0812       9632.6586      0.89441544     0.72546433   
     18200  -4110.0425     -4144.3194      34.276899     -248.62632      307.27419      9633.352       0.89435106     0.72546433   
     18300  -4109.3194     -4143.2588      33.939349     -177.42681      304.24824      9639.873       0.89374606     0.72546433   
     18400  -4109.3875     -4144.7672      35.379773      1550.5556      317.16087      9650.5033      0.89276158     0.72546433   
     18500  -4109.4325     -4144.1411      34.708564     -861.72653      311.14385      9663.8251      0.89153089     0.72546433   
     18600  -4108.0707     -4143.2291      35.158489      1194.8863      315.17719      9678.5991      0.89017        0.72546433   
     18700  -4109.2745     -4145.0432      35.768688      2028.6364      320.64729      9694.7451      0.88868748     0.72546433   
     18800  -4108.1446     -4143.7317      35.587089      2154.94        319.01936      9707.0417      0.88756171     0.72546433   
     18900  -4108.9727     -4144.7659      35.793198     -1382.8406      320.86701      9716.8108      0.88666938     0.72546433   
     19000  -4109.5867     -4144.5311      34.944386      1477.1956      313.25787      9722.9256      0.88611175     0.70732401   
     19100  -4110.6074     -4144.1381      33.530732     -3108.4787      300.5852       9720.9336      0.88629332     0.70732401   
     19200  -4110.0178     -4144.5903      34.572525      1466.5993      309.92433      9708.1007      0.8874649      0.70732401   
     19300  -4110.1643     -4144.4649      34.300582      63.007573      307.4865       9683.9409      0.88967897     0.70732401   
     19400  -4109.6987     -4145.4042      35.705505     -1582.7166      320.08089      9648.3569      0.89296019     0.70732401   
     19500  -4110.0867     -4145.0261      34.939392     -334.63292      313.21309      9610.882       0.89644203     0.70732401   
     19600  -4110.8584     -4144.7765      33.918125     -814.11628      304.05798      9576.6432      0.89964703     0.70732401   
     19700  -4111.596      -4145.0347      33.438694     -2095.7357      299.76013      9550.7852      0.90208275     0.70732401   
     19800  -4110.5953     -4145.5677      34.97231      -929.37181      313.50819      9539.3518      0.90316394     0.70732401   
     19900  -4110.3629     -4144.451       34.088054      1666.4479      305.5813       9546.4235      0.90249491     0.70732401   
     20000  -4110.0806     -4144.7954      34.714883      213.15196      311.20049      9572.4505      0.90004107     0.73377486   
     20100  -4110.5135     -4144.1817      33.668179      223.7604       301.81734      9614.9144      0.89606607     0.73377486   
     20200  -4111.8405     -4145.4156      33.575089     -2.4732463      300.98284      9663.1999      0.89158857     0.73377486   
     20300  -4111.2731     -4147.1679      35.894854     -954.50378      321.7783       9713.6009      0.88696238     0.73377486   
     20400  -4111.126      -4145.6135      34.487466      1934.2382      309.16181      9758.5314      0.88287861     0.73377486   
     20500  -4109.9069     -4144.5652      34.658223      2228.6         310.69257      9793.8808      0.879692       0.73377486   
     20600  -4109.4567     -4144.1211      34.664364      1182.7768      310.74762      9811.4605      0.87811581     0.73377486   
     20700  -4109.4885     -4144.3885      34.900059     -1481.7988      312.8605       9805.9969      0.87860507     0.73377486   
     20800  -4108.8752     -4144.15        35.274819     -1720.4828      316.22002      9778.0529      0.88111597     0.73377486   
     20900  -4109.544      -4143.555       34.011027     -3335.729       304.89079      9734.2553      0.88508041     0.73377486   
     21000  -4110.4852     -4143.3727      32.887481     -963.21174      294.8188       9682.9018      0.88977445     0.74259477   
     21100  -4111.6016     -4145.3989      33.797329      1904.1849      302.9751       9626.3132      0.89500501     0.74259477   
     21200  -4111.3328     -4147.2705      35.93773       2363.3719      322.16266      9575.5104      0.89975345     0.74259477   
     21300  -4111.4999     -4145.1863      33.686448      1039.728       301.98111      9536.6039      0.90342418     0.74259477   
     21400  -4112.9152     -4146.5556      33.64045       2329.0087      301.56877      9515.8245      0.90539696     0.74259477   
     21500  -4112.2138     -4147.1059      34.892102      93.573056      312.78916      9512.884       0.90567683     0.74259477   
     21600  -4110.6951     -4144.0311      33.336015      1887.5631      298.83967      9528.5851      0.90418446     0.74259477   
     21700  -4109.7802     -4144.31        34.529836     -1295.8971      309.54164      9568.6706      0.90039662     0.74259477   
     21800  -4110.8283     -4144.5623      33.734052      242.57989      302.40786      9623.8206      0.89523683     0.74259477   
     21900  -4110.1358     -4144.6122      34.476399     -1242.489       309.06261      9686.42        0.88945127     0.74259477   
     22000  -4109.1877     -4144.2012      35.013516      986.72825      313.87758      9748.7161      0.88376751     0.68287214   
     22100  -4108.4629     -4144.9897      36.526796     -3371.7165      327.44333      9799.9334      0.87914868     0.68287214   
     22200  -4108.7973     -4142.5442      33.746918     -2542.8815      302.5232       9828.0591      0.87663276     0.68287214   
     22300  -4108.4378     -4143.7201      35.282338     -2331.0057      316.28742      9828.3735      0.87660472     0.68287214   
     22400  -4109.0894     -4143.1938      34.104353     -55.425887      305.72741      9801.3455      0.87902203     0.68287214   
     22500  -4108.623      -4144.1371      35.51416      -1843.7563      318.36558      9752.0465      0.8834657      0.68287214   
     22600  -4108.8265     -4143.9314      35.104855     -1462.0892      314.69638      9695.547       0.88861398     0.68287214   
     22700  -4108.5035     -4142.9462      34.442705     -919.2169       308.76056      9643.7349      0.89338816     0.68287214   
     22800  -4107.6546     -4142.7682      35.113658      967.55454      314.77529      9599.9687      0.89746111     0.68287214   
     22900  -4108.559      -4142.831       34.271993      316.91733      307.23021      9570.7126      0.90020451     0.68287214   
     23000  -4108.4765     -4143.0705      34.593976      150.70874      310.11663      9558.1976      0.90138318     0.71474809   
     23100  -4108.9552     -4144.9524      35.997123      2993.4116      322.69509      9559.1878      0.90128981     0.71474809   
     23200  -4108.9154     -4145.5479      36.632472      1557.0373      328.39066      9574.8923      0.89981154     0.71474809   
     23300  -4110.9277     -4145.1001      34.172371     -602.97914      306.33715      9598.5504      0.89759372     0.71474809   
     23400  -4108.5008     -4143.3183      34.817533     -164.09099      312.12069      9621.0233      0.89549711     0.71474809   
     23500  -4108.2505     -4144.0005      35.74999       255.78117      320.47968      9644.0041      0.89336322     0.71474809   
     23600  -4107.6562     -4142.6368      34.980629     -1594.7449      313.58276      9662.5236      0.89165098     0.71474809   
     23700  -4107.6665     -4144.0156      36.349133     -309.29676      325.85067      9677.8289      0.89024084     0.71474809   
     23800  -4108.1494     -4141.7554      33.606065     -124.81898      301.26053      9689.6005      0.88915932     0.71474809   
     23900  -4107.0096     -4143.5353      36.525687      632.82375      327.43338      9698.4033      0.88835227     0.71474809   
     24000  -4104.2718     -4141.2178      36.946004      2588.9554      331.20131      9699.1038      0.88828811     0.75139135   
     24100  -4105.7282     -4142.2525      36.524263      5466.6834      327.42062      9692.4406      0.88889877     0.75139135   
     24200  -4106.7725     -4142.0197      35.247198      164.04669      315.97241      9678.7196      0.89015892     0.75139135   
     24300  -4106.7697     -4142.9842      36.21445      -1793.8657      324.64331      9659.7819      0.89190405     0.75139135   
     24400  -4106.7527     -4142.546       35.793329      530.44042      320.86818      9638.3839      0.89388415     0.75139135   
     24500  -4107.6351     -4143.4027      35.767633     -349.10793      320.63784      9621.6387      0.89543984     0.75139135   
     24600  -4107.1573     -4142.8383      35.681006      1499.1607      319.86127      9610.1152      0.89651356     0.75139135   
     24700  -4107.0804     -4142.5247      35.444352      2481.7525      317.73979      9603.3151      0.89714838     0.75139135   
     24800  -4107.9347     -4144.0386      36.103885      1810.0767      323.65216      9606.5783      0.89684363     0.75139135   
     24900  -4108.1879     -4142.7382      34.550313     -334.32548      309.72521      9616.083       0.89595718     0.75139135   
     25000  -4107.4016     -4142.9434      35.541765      1590.9246      318.61304      9631.0414      0.89456563     0.80505973   
     25100  -4107.2582     -4142.7753      35.517055      859.66328      318.39154      9651.6518      0.89265535     0.80505973   
     25200  -4107.9409     -4142.2799      34.338962      1844.623       307.83056      9673.011       0.89068425     0.80505973   
     25300  -4108.1602     -4144.4064      36.246173      805.48308      324.92769      9692.7741      0.88886819     0.80505973   
     25400  -4108.3132     -4144.0566      35.743418      645.57765      320.42076      9710.0435      0.88728734     0.80505973   
     25500  -4109.0875     -4143.6917      34.604188     -699.24507      310.20817      9721.6434      0.88622862     0.80505973   
     25600  -4108.773      -4143.9109      35.137977      1059.6469      314.9933       9725.415       0.88588493     0.80505973   
     25700  -4108.2941     -4143.1354      34.841331      1892.706       312.33403      9719.4513      0.88642849     0.80505973   
     25800  -4108.5696     -4143.7203      35.150675      2202.9112      315.10713      9703.5311      0.88788282     0.80505973   
     25900  -4108.3193     -4144.4798      36.1605        177.15106      324.15967      9677.4641      0.8902744      0.80505973   
     26000  -4110.4517     -4144.3386      33.886898     -818.07546      303.77804      9644.52        0.89331544     0.82907187   
     26100  -4110.2238     -4144.5984      34.374596      1897.1152      308.15         9611.3795      0.89639563     0.82907187   
     26200  -4109.4736     -4144.5078      35.034138      1580.0789      314.06244      9583.2442      0.89902734     0.82907187   
     26300  -4109.2324     -4143.095       33.862613     -217.36343      303.56034      9566.5636      0.90059492     0.82907187   
     26400  -4110.2821     -4145.0854      34.803259      29.700357      311.99273      9564.2296      0.9008147      0.82907187   
     26500  -4109.7365     -4145.201       35.46447       525.77863      317.92014      9573.4935      0.89994302     0.82907187   
     26600  -4110.465      -4146.1307      35.665698      885.8117       319.72404      9599.0118      0.89755058     0.82907187   
     26700  -4109.2894     -4144.073       34.783674      1731.2813      311.81717      9640.2417      0.89371188     0.82907187   
     26800  -4108.0784     -4142.9623      34.883882     -21.399696      312.71548      9689.2816      0.88918859     0.82907187   
     26900  -4109.0544     -4144.276       35.221658      956.27446      315.74346      9731.5072      0.88533034     0.82907187   
     27000  -4110.831      -4143.8295      32.99849      -712.08233      295.81394      9759.4451      0.88279595     0.70889846   
     27100  -4108.9477     -4144.6335      35.685844     -3003.4144      319.90464      9773.4309      0.88153267     0.70889846   
     27200  -4109.8836     -4144.2715      34.387854     -2576.9554      308.26885      9772.4554      0.88162066     0.70889846   
     27300  -4110.1731     -4144.0078      33.834743     -2932.3478      303.3105       9753.3547      0.88334721     0.70889846   
     27400  -4110.283      -4145.4346      35.151558      1751.869       315.11505      9714.6235      0.88686902     0.70889846   
     27500  -4109.5867     -4144.8976      35.310821      1697.0193      316.54275      9659.8631      0.89189656     0.70889846   
     27600  -4108.6345     -4143.9701      35.33564       559.42163      316.76525      9601.3916      0.89732811     0.70889846   
     27700  -4109.2581     -4144.023       34.764892      192.24713      311.64879      9550.9526      0.90206694     0.70889846   
     27800  -4109.3253     -4145.8201      36.494827      1705.6471      327.15674      9515.5284      0.90542513     0.70889846   
     27900  -4108.9964     -4142.1513      33.15492       2797.6304      297.21625      9499.9278      0.90691201     0.70889846   
     28000  -4108.1769     -4144.1494      35.972428      1833.0325      322.47371      9510.0843      0.90594345     0.65480693   
     28100  -4109.5558     -4145.9589      36.403083     -2713.0443      326.3343       9541.8077      0.90293149     0.65480693   
     28200  -4108.3831     -4144.1661      35.783037      124.90318      320.77592      9590.4819      0.89834887     0.65480693   
     28300  -4110.6025     -4145.306       34.703512     -1089.98        311.09856      9651.0211      0.89271368     0.65480693   
     28400  -4109.6578     -4144.0837      34.425945     -1432.1981      308.61032      9714.2517      0.88690296     0.65480693   
     28500  -4111.3491     -4145.3366      33.987454     -1043.1273      304.67948      9768.2219      0.88200275     0.65480693   
     28600  -4111.1838     -4143.9299      32.74616       608.17432      293.55193      9798.5485      0.87927294     0.65480693   
     28700  -4110.9639     -4145.5055      34.541605     -2401.1974      309.64715      9802.1539      0.87894953     0.65480693   
     28800  -4110.5625     -4144.2168      33.654377     -2383.4327      301.69362      9774.5799      0.88142904     0.65480693   
     28900  -4111.6567     -4146.1459      34.489207     -2396.8294      309.17743      9715.8607      0.88675609     0.65480693   
     29000  -4111.3108     -4146.3667      35.055973      374.44331      314.25818      9636.8104      0.8940301      0.66779348   
     29100  -4111.7974     -4145.7581      33.960717      319.35097      304.43979      9554.4456      0.90173715     0.66779348   
     29200  -4111.3967     -4144.3183      32.921583      2300.2358      295.1245       9484.5215      0.90838516     0.66779348   
     29300  -4110.8884     -4144.3058      33.417384      319.52807      299.5691       9437.3612      0.91292453     0.66779348   
     29400  -4109.8908     -4145.3054      35.414599     -2065.6735      317.47308      9418.2813      0.91477397     0.66779348   
     29500  -4110.7941     -4144.9678      34.173654      885.18872      306.34866      9431.5537      0.91348667     0.66779348   
     29600  -4110.0215     -4145.5692      35.547659      358.12663      318.66588      9478.6786      0.90894512     0.66779348   
     29700  -4110.3011     -4144.7466      34.445449     -136.34875      308.78516      9548.3714      0.90231079     0.66779348   
     29800  -4110.4861     -4144.7068      34.220652      2835.3481      306.76997      9630.0889      0.89465411     0.66779348   
     29900  -4112.4712     -4145.1291      32.657876     -3110.4339      292.76051      9703.5791      0.88787843     0.66779348   
     30000  -4112.1348     -4145.2911      33.156223     -954.65521      297.22793      9750.8169      0.88357711     0.69975241   
     30100  -4110.9246     -4145.8451      34.920508     -583.99718      313.0438       9768.9185      0.88193986     0.69975241   
     30200  -4110.0905     -4142.9899      32.899398     -223.49813      294.92563      9758.555       0.88287647     0.69975241   
     30300  -4108.7303     -4144.4369      35.706634     -1389.0216      320.09101      9724.3125      0.88598537     0.69975241   
     30400  -4108.7507     -4144.3003      35.549606     -1598.7477      318.68334      9674.86        0.89051403     0.69975241   
     30500  -4108.192      -4143.7482      35.556114     -239.72524      318.74168      9624.4724      0.8951762      0.69975241   
     30600  -4108.8909     -4143.9217      35.030748      2668.4233      314.03205      9583.7433      0.89898053     0.69975241   
     30700  -4109.6288     -4145.9422      36.313379      1740.9442      325.53016      9560.2875      0.90118614     0.69975241   
     30800  -4108.4225     -4144.7914      36.368926      2384.6539      326.02811      9556.2216      0.90156957     0.69975241   
     30900  -4108.9659     -4143.7022      34.73632       1351.9959      311.39266      9574.4137      0.89985652     0.69975241   
     31000  -4109.3122     -4144.0478      34.735642      1670.7498      311.38658      9606.3006      0.89686956     0.76147128   
     31100  -4109.9093     -4144.9463      35.036943      3211.366       314.08759      9642.3745      0.89351421     0.76147128   
     31200  -4110.1517     -4145.2414      35.089663     -366.28489      314.56019      9676.9331      0.89032325     0.76147128   
     31300  -4111.7152     -4144.8573      33.142129     -2592.828       297.10158      9707.4795      0.88752168     0.76147128   
     31400  -4110.3179     -4144.5389      34.220971     -873.89347      306.77283      9723.5646      0.88605352     0.76147128   
     31500  -4109.9845     -4144.2832      34.2987        503.39173      307.46963      9723.7355      0.88603794     0.76147128   
     31600  -4109.5759     -4144.7401      35.164238      19.438952      315.22872      9710.0726      0.88728467     0.76147128   
     31700  -4109.6263     -4143.9242      34.297898      894.11003      307.46244      9685.6827      0.88951898     0.76147128   
     31800  -4108.4234     -4143.4596      35.036212      1688.1513      314.08104      9657.8947      0.89207834     0.76147128   
     31900  -4108.5618     -4143.7143      35.152444     -1856.5159      315.12299      9634.7454      0.89422172     0.76147128   
     32000  -4108.1715     -4144.0382      35.8667        789.59999      321.52592      9621.4568      0.89545677     0.74772184   
     32100  -4108.5105     -4143.7263      35.215774     -652.26866      315.69071      9619.7284      0.89561766     0.74772184   
     32200  -4109.2686     -4143.9241      34.655552     -265.30181      310.66862      9630.8987      0.89457888     0.74772184   
     32300  -4109.0108     -4144.1415      35.130712      1665.2036      314.92818      9649.2399      0.89287847     0.74772184   
     32400  -4109.6712     -4143.9249      34.253704      124.91629      307.06627      9669.2029      0.89103504     0.74772184   
     32500  -4109.9497     -4145.3013      35.351513      915.56279      316.90754      9690.2218      0.88910231     0.74772184   
     32600  -4109.6459     -4144.9714      35.325477      955.2005       316.67414      9704.3912      0.88780413     0.74772184   
     32700  -4110.0773     -4145.645       35.567642     -1412.5648      318.84502      9711.623       0.88714302     0.74772184   
     32800  -4109.4646     -4145.4746      36.010011      1848.6477      322.81063      9708.948       0.88738745     0.74772184   
     32900  -4109.7402     -4144.2735      34.533304      711.47234      309.57273      9695.8413      0.88858701     0.74772184   
     33000  -4110.4236     -4144.5584      34.134794      2064.1868      306.0003       9672.6772      0.89071499     0.65196135   
     33100  -4109.2436     -4144.0589      34.815244     -1003.5904      312.10017      9642.4582      0.89350645     0.65196135   
     33200  -4107.8905     -4144.285       36.394465     -125.7874       326.25705      9610.9629      0.89643448     0.65196135   
     33300  -4108.789      -4143.3911      34.602159      1291.2761      310.18998      9589.1292      0.89847559     0.65196135   
     33400  -4110.1075     -4143.3176      33.210071     -236.73923      297.71065      9584.9422      0.89886808     0.65196135   
     33500  -4109.7515     -4143.7453      33.993814     -1107.0049      304.73648      9594.0525      0.89801453     0.65196135   
     33600  -4109.7336     -4144.5325      34.798875      2762.4312      311.95343      9613.1607      0.89622954     0.65196135   
     33700  -4110.6939     -4145.3426      34.648703      1084.9999      310.60722      9638.9499      0.89383166     0.65196135   
     33800  -4109.8993     -4144.7885      34.889237     -1277.0702      312.76348      9669.4699      0.89101044     0.65196135   
     33900  -4108.7709     -4142.7379      33.966995     -1514.2129      304.49607      9702.1127      0.88801263     0.65196135   
     34000  -4109.8247     -4143.5263      33.701652     -2079.8461      302.11741      9728.1671      0.88563432     0.70293895   
     34100  -4109.3857     -4144.2765      34.89083      -264.58662      312.77776      9736.7211      0.88485626     0.70293895   
     34200  -4109.1055     -4143.2219      34.116443      2026.4151      305.83579      9726.8436      0.88575482     0.70293895   
     34300  -4109.6896     -4144.1991      34.509525     -3257.4902      309.35957      9702.5707      0.88797071     0.70293895   
     34400  -4110.0707     -4144.3902      34.319542     -427.65825      307.65647      9668.0528      0.89114104     0.70293895   
     34500  -4110.6534     -4145.2869      34.63353      -825.21456      310.4712       9631.6925      0.89450516     0.70293895   
     34600  -4110.7448     -4146.0158      35.271        -492.03139      316.18578      9596.6751      0.89776912     0.70293895   
     34700  -4109.8137     -4144.7742      34.960531      1358.1235      313.40259      9567.0223      0.90055174     0.70293895   
     34800  -4110.0742     -4144.2603      34.18615      -132.11848      306.46068      9550.9688      0.90206541     0.70293895   
     34900  -4110.5912     -4145.1527      34.561491     -891.97441      309.82541      9543.5989      0.90276202     0.70293895   
     35000  -4110.6995     -4144.8266      34.127124      837.02455      305.93154      9546.1636      0.90251948     0.66813369   
     35100  -4110.2208     -4144.6527      34.431901     -2405.3717      308.66371      9560.6959      0.90114765     0.66813369   
     35200  -4109.4205     -4145.3946      35.974153      48.725672      322.48918      9586.1219      0.89875746     0.66813369   
     35300  -4108.578      -4143.9935      35.415489      1673.7521      317.48105      9622.9547      0.89531738     0.66813369   
     35400  -4110.7226     -4144.1619      33.439294     -984.27884      299.76551      9665.3666      0.8913887      0.66813369   
     35500  -4110.0077     -4144.1331      34.125486     -955.24148      305.91685      9697.6029      0.88842559     0.66813369   
     35600  -4108.3624     -4143.5709      35.208454     -1832.4062      315.62509      9715.3706      0.88680081     0.66813369   
     35700  -4109.8984     -4144.9728      35.074406     -2533.9477      314.42342      9726.0164      0.88583015     0.66813369   
     35800  -4108.8747     -4144.2976      35.42282      -514.16747      317.54676      9721.3913      0.8862516      0.66813369   
     35900  -4108.5012     -4143.9297      35.428502      1783.0287      317.5977       9700.4867      0.88816148     0.66813369   
     36000  -4109.6261     -4144.9438      35.317667     -646.82859      316.60413      9670.0464      0.89095731     0.73151552   
     36100  -4109.8128     -4144.8313      35.018483      993.29205      313.9221       9634.5197      0.89424267     0.73151552   
     36200  -4111.5363     -4145.4664      33.930096      713.82844      304.16529      9598.0744      0.89763824     0.73151552   
     36300  -4110.0916     -4143.8206      33.728948      556.45414      302.36211      9568.4396      0.90041835     0.73151552   
     36400  -4109.8959     -4144.8598      34.963898      608.24772      313.43278      9553.3871      0.90183707     0.73151552   
     36500  -4111.8383     -4146.386       34.547659      1182.9115      309.70142      9550.3518      0.90212369     0.73151552   
     36600  -4112.5443     -4144.5846      32.040314     -225.05535      287.2244       9554.7346      0.90170988     0.73151552   
     36700  -4112.5491     -4146.0501      33.500979     -3261.3842      300.31849      9562.0765      0.90101754     0.73151552   
     36800  -4112.1165     -4145.5721      33.45559       2226.6367      299.91159      9575.855       0.89972108     0.73151552   
     36900  -4112.2681     -4144.9086      32.640441     -1437.2375      292.60422      9598.2047      0.89762605     0.73151552   
     37000  -4110.4214     -4143.9573      33.535908      631.2827       300.6316       9624.3804      0.89518475     0.69172883   
     37100  -4111.5269     -4145.6654      34.138461     -1175.939       306.03317      9652.2486      0.89260015     0.69172883   
     37200  -4112.6645     -4145.9417      33.277154      1780.0541      298.31202      9675.4826      0.89045673     0.69172883   
     37300  -4112.6083     -4146.2243      33.615962     -2043.9215      301.34925      9686.4708      0.88944661     0.69172883   
     37400  -4112.2296     -4145.374       33.144473      1670.0315      297.1226       9681.9951      0.88985777     0.69172883   
     37500  -4111.1784     -4145.0019      33.823538     -166.86643      303.21005      9669.7162      0.89098774     0.69172883   
     37600  -4111.1545     -4145.7224      34.567931      1371.6598      309.88315      9655.5781      0.89229236     0.69172883   
     37700  -4111.8367     -4145.7204      33.88372       1877.8674      303.74955      9640.1215      0.89372303     0.69172883   
     37800  -4112.0689     -4145.902       33.833151     -1586.0021      303.29623      9626.3512      0.89500148     0.69172883   
     37900  -4110.6619     -4144.7527      34.090753      419.23815      305.60549      9613.7935      0.89617055     0.69172883   
     38000  -4111.8606     -4145.1555      33.294938      2807.2517      298.47143      9604.3754      0.89704934     0.77396439   
     38100  -4111.5865     -4146.6         35.013596      1143.4861      313.87829      9594.3415      0.89798749     0.77396439   
     38200  -4110.2576     -4144.9455      34.687921     -1222.6095      310.95879      9587.3069      0.89864637     0.77396439   
     38300  -4109.9991     -4144.463       34.463912      2223.7716      308.95067      9589.1411      0.89847449     0.77396439   
     38400  -4110.6247     -4145.2286      34.603948      2964.3876      310.20602      9598.624       0.89758684     0.77396439   
     38500  -4108.7059     -4144.9551      36.249156      71.192843      324.95444      9616.2783      0.89593898     0.77396439   
     38600  -4108.7674     -4143.6308      34.863449      959.40631      312.53231      9638.9783      0.89382902     0.77396439   
     38700  -4110.4114     -4143.153       32.741619     -1120.9972      293.51122      9660.76        0.89181375     0.77396439   
     38800  -4110.3349     -4145.1663      34.831405     -2808.9403      312.24504      9672.5961      0.89072246     0.77396439   
     38900  -4109.8961     -4144.5682      34.672074      2696.6054      310.81673      9677.6651      0.89025591     0.77396439   
     39000  -4109.8356     -4145.1345      35.2989        2754.5254      316.43589      9675.9557      0.89041319     0.71133694   
     39100  -4109.8449     -4144.7951      34.95017      -831.31119      313.30971      9669.7045      0.89098882     0.71133694   
     39200  -4109.0034     -4143.9965      34.993076      1838.9572      313.69434      9661.4034      0.89175436     0.71133694   
     39300  -4107.6685     -4144.4722      36.803672      1481.0577      329.92537      9654.3576      0.89240517     0.71133694   
     39400  -4107.6775     -4141.3229      33.645403      148.98122      301.61317      9649.6469      0.89284082     0.71133694   
     39500  -4107.0521     -4142.1848      35.132738     -3990.9232      314.94634      9647.6003      0.89303021     0.71133694   
     39600  -4106.5981     -4141.7405      35.142377      828.11482      315.03274      9647.6371      0.89302681     0.71133694   
     39700  -4106.4963     -4142.2792      35.782969     -110.51043      320.77531      9649.5585      0.89284899     0.71133694   
     39800  -4107.4607     -4141.9245      34.463806      1221.4549      308.94972      9650.0369      0.89280473     0.71133694   
     39900  -4108.3143     -4143.7517      35.437436     -295.00984      317.6778       9650.6248      0.89275034     0.71133694   
     40000  -4108.3549     -4143.8312      35.476357      58.07099       318.0267       9653.4192      0.89249192     0.70242183   
     40100  -4107.6636     -4143.3125      35.648897      2491.7981      319.57343      9657.8376      0.8920836      0.70242183   
     40200  -4108.8441     -4143.6776      34.833432      4248.9117      312.26322      9665.2541      0.89139907     0.70242183   
     40300  -4109.0949     -4143.7276      34.632671      1516.1921      310.4635       9672.7605      0.89070732     0.70242183   
     40400  -4108.9424     -4142.8241      33.881693     -277.46838      303.73139      9676.769       0.89033835     0.70242183   
     40500  -4108.6079     -4143.3699      34.762044     -606.05025      311.62326      9672.4225      0.89073845     0.70242183   
     40600  -4107.6736     -4142.6931      35.019452     -1461.2259      313.93079      9669.7455      0.89098504     0.70242183   
     40700  -4108.5608     -4144.0013      35.440525     -1698.3156      317.70548      9671.5404      0.89081969     0.70242183   
     40800  -4107.9939     -4143.2218      35.227892     -1378.5311      315.79934      9670.3396      0.8909303      0.70242183   
     40900  -4109.3266     -4142.3613      33.034712     -2758.8353      296.13865      9665.7911      0.89134955     0.70242183   
     41000  -4108.2644     -4143.1574      34.892952     -767.3832       312.79678      9655.3634      0.8923122      0.74145162   
     41100  -4108.7602     -4144.6579      35.897663     -849.68894      321.80349      9641.4158      0.89360306     0.74145162   
     41200  -4108.8242     -4143.5131      34.68887       1560.7507      310.9673       9632.7931      0.89440295     0.74145162   
     41300  -4109.3981     -4143.8338      34.435795      510.52414      308.69862      9630.8681      0.89458172     0.74145162   
     41400  -4109.6375     -4143.9786      34.341121      834.00088      307.84991      9632.8858      0.89439435     0.74145162   
     41500  -4111.0155     -4143.8391      32.823671      241.85791      294.24677      9641.7485      0.89357221     0.74145162   
     41600  -4111.3228     -4144.4498      33.126974      469.33597      296.96573      9651.7647      0.89264491     0.74145162   
     41700  -4110.6066     -4145.0095      34.402858     -1409.4897      308.40335      9658.8892      0.89198648     0.74145162   
     41800  -4111.7463     -4146.2823      34.535957     -641.14546      309.59652      9665.0933      0.89141391     0.74145162   
     41900  -4110.4191     -4145.0824      34.663256      761.39294      310.73768      9670.4508      0.89092005     0.74145162   
     42000  -4109.4597     -4144.5238      35.064012      997.84515      314.33024      9671.781       0.89079753     0.63754308   
     42100  -4109.8259     -4145.3451      35.519208     -3697.4596      318.41084      9677.1846      0.89030012     0.63754308   
     42200  -4110.4625     -4144.9038      34.441306      58.48192       308.74802      9682.9887      0.88976646     0.63754308   
     42300  -4110.0568     -4144.3068      34.249969     -302.4702       307.03278      9678.7204      0.89015884     0.63754308   
     42400  -4109.4256     -4143.8938      34.468124     -1767.1117      308.98842      9663.4607      0.89156451     0.63754308   
     42500  -4110.5826     -4143.9875      33.404892      2806.5909      299.45712      9646.2225      0.89315777     0.63754308   
     42600  -4111.1006     -4144.9518      33.851185     -2509.9751      303.45789      9632.5671      0.89442394     0.63754308   
     42700  -4110.9217     -4145.2635      34.341861     -1481.9556      307.85655      9625.4763      0.89508283     0.63754308   
     42800  -4110.3203     -4144.8521      34.531768      2141.3256      309.55896      9626.8518      0.89495494     0.63754308   
     42900  -4109.8253     -4144.5187      34.693374      2426.3809      311.00767      9638.2592      0.89389571     0.63754308   
     43000  -4110.7363     -4147.0314      36.295083     -264.11923      325.36614      9656.7942      0.89218        0.84490651   
     43100  -4109.8545     -4144.8341      34.979587     -1457.5762      313.57342      9678.3827      0.8901899      0.84490651   
     43200  -4108.8827     -4145.0522      36.169537     -2132.2012      324.24069      9705.6344      0.88769041     0.84490651   
     43300  -4108.5914     -4144.0143      35.422928     -1247.8457      317.54774      9735.7195      0.88494729     0.84490651   
     43400  -4107.4585     -4142.7483      35.289885      833.02136      316.35508      9764.1456      0.88237097     0.84490651   
     43500  -4108.632      -4142.9218      34.289744     -4376.9064      307.38935      9783.3711      0.880637       0.84490651   
     43600  -4110.2228     -4144.8124      34.589631     -2611.5002      310.07768      9783.0993      0.88066147     0.84490651   
     43700  -4108.5553     -4143.0473      34.491958     -548.42159      309.20208      9759.2665      0.8828121      0.84490651   
     43800  -4109.2023     -4143.4645      34.262193     -1213.6038      307.14236      9719.1336      0.88645747     0.84490651   
     43900  -4110.2291     -4144.9927      34.76361      -733.41407      311.6373       9668.3022      0.89111805     0.84490651   
     44000  -4109.3526     -4145.3971      36.044588      991.88227      323.12059      9618.6908      0.89571427     0.78045702   
     44100  -4109.5195     -4144.4927      34.973149     -2977.3136      313.5157       9580.1644      0.89931636     0.78045702   
     44200  -4109.151      -4144.8283      35.677338      3253.2921      319.82839      9553.0643      0.90186754     0.78045702   
     44300  -4107.5973     -4143.2345      35.637215      1480.7442      319.4687       9545.3232      0.90259893     0.78045702   
     44400  -4108.8628     -4144.2407      35.37795       824.05278      317.14453      9560.5866      0.90115794     0.78045702   
     44500  -4110.5355     -4145.1685      34.633009      396.40664      310.46654      9593.0367      0.89810962     0.78045702   
     44600  -4111.0555     -4146.2938      35.238352      2230.7076      315.89311      9637.4333      0.89397232     0.78045702   
     44700  -4111.5987     -4146.6411      35.042387      1047.6579      314.13639      9687.356       0.88936533     0.78045702   
     44800  -4111.4645     -4146.0633      34.598887      950.33423      310.16064      9731.5171      0.88532944     0.78045702   
     44900  -4108.868      -4144.38        35.512005     -3057.8932      318.34626      9761.3407      0.88262452     0.78045702   
     45000  -4109.5342     -4143.5961      34.06197      -1117.2593      305.34747      9768.0816      0.88201542     0.73634533   
     45100  -4109.7782     -4144.7236      34.94532      -1602.6792      313.26624      9751.5299      0.8835125      0.73634533   
     45200  -4110.8336     -4145.683       34.849432     -1082.0503      312.40665      9718.7914      0.88648868     0.73634533   
     45300  -4110.2767     -4145.0921      34.815436      368.17487      312.10189      9676.2484      0.89038626     0.73634533   
     45400  -4110.9839     -4144.5849      33.601036     -536.52577      301.21544      9635.9308      0.89411171     0.73634533   
     45500  -4110.4888     -4146.158       35.669229     -1273.3948      319.75569      9601.0543      0.89735963     0.73634533   
     45600  -4110.9521     -4144.8576      33.905502      367.36022      303.94482      9574.2878      0.89986835     0.73634533   
     45700  -4110.8167     -4145.1906      34.373883      637.01101      308.14361      9556.5323      0.90154026     0.73634533   
     45800  -4108.7491     -4143.3035      34.55434       2221.8791      309.76131      9549.084       0.90224346     0.73634533   
     45900  -4111.1583     -4145.0198      33.861558     -2338.1174      303.55089      9552.9923      0.90187434     0.73634533   
     46000  -4112.0769     -4146.0319      33.955066      87.973824      304.38913      9566.5883      0.9005926      0.77721697   
     46100  -4112.2511     -4146.7552      34.504191      2209.1562      309.31175      9587.2315      0.89865344     0.77721697   
     46200  -4111.6509     -4145.7886      34.137603      1035.5847      306.02548      9615.7356      0.89598955     0.77721697   
     46300  -4111.2541     -4144.7437      33.489656      116.28102      300.21698      9649.6466      0.89284084     0.77721697   
     46400  -4110.6352     -4145.0366      34.401364     -814.87443      308.38996      9685.5552      0.88953069     0.77721697   
     46500  -4111.1642     -4143.7117      32.547548      963.76358      291.77148      9712.9439      0.88702237     0.77721697   
     46600  -4110.6172     -4146.2432      35.626044      665.22473      319.36857      9723.1373      0.88609245     0.77721697   
     46700  -4109.7892     -4146.1579      36.368706     -539.46642      326.02613      9722.086       0.88618827     0.77721697   
     46800  -4111.1827     -4144.9889      33.80619      -1023.2056      303.05454      9713.1858      0.88700029     0.77721697   
     46900  -4109.741      -4143.4549      33.713939     -877.51686      302.22755      9695.1249      0.88865266     0.77721697   
     47000  -4108.819      -4144.251       35.431982      1886.8473      317.6289       9669.6151      0.89099705     0.68944063   
     47100  -4108.8969     -4144.3845      35.487641      1062.9744      318.12786      9643.5799      0.89340252     0.68944063   
     47200  -4109.5511     -4144.862       35.310904     -789.0682       316.5435       9622.4227      0.89536688     0.68944063   
     47300  -4109.6008     -4143.7581      34.157321      1457.7678      306.20224      9606.4979      0.89685114     0.68944063   
     47400  -4109.2899     -4144.1977      34.9078        399.07674      312.92989      9598.6039      0.89758872     0.68944063   
     47500  -4109.6147     -4143.7625      34.147796      2562.3168      306.11685      9601.4118      0.89732623     0.68944063   
     47600  -4108.8813     -4144.5673      35.685954     -2186.0109      319.90562      9616.1145      0.89595425     0.68944063   
     47700  -4109.1564     -4143.9422      34.785873     -540.93786      311.83688      9641.1464      0.89362802     0.68944063   
     47800  -4107.5606     -4144.0504      36.489856      2530.7917      327.11218      9668.627       0.89108812     0.68944063   
     47900  -4107.3983     -4142.857       35.45863       2829.8846      317.86778      9694.0549      0.88875076     0.68944063   
     48000  -4108.7084     -4143.8083      35.099903      211.68995      314.65199      9715.6652      0.88677393     0.68758409   
     48100  -4109.8664     -4144.7259      34.859534      2691.0114      312.49721      9723.8139      0.8860308      0.68758409   
     48200  -4110.7886     -4145.6444      34.855829     -2650.7029      312.46399      9722.4563      0.88615452     0.68758409   
     48300  -4109.2873     -4144.6177      35.33036      -4098.6252      316.71791      9710.4999      0.88724563     0.68758409   
     48400  -4108.9946     -4143.0193      34.024767     -722.20183      305.01396      9684.8356      0.88959678     0.68758409   
     48500  -4108.7199     -4143.0155      34.295592      1302.3868      307.44177      9650.1928      0.8927903      0.68758409   
     48600  -4107.8924     -4144.4896      36.597235      2160.7615      328.07478      9616.0336      0.89596178     0.68758409   
     48700  -4108.3127     -4144.1663      35.853639      2557.1637      321.40884      9592.8151      0.89813037     0.68758409   
     48800  -4108.6578     -4143.3355      34.677763     -775.63403      310.86773      9586.5698      0.89871547     0.68758409   
     48900  -4108.1155     -4144.8434      36.727896     -3110.7018      329.24608      9594.4965      0.89797297     0.68758409   
     49000  -4106.4324     -4141.6731      35.240747      465.73329      315.91458      9613.9172      0.89615902     0.84431814   
     49100  -4106.3935     -4142.034       35.640514      1135.1928      319.49828      9645.0904      0.8932626      0.84431814   
     49200  -4106.9247     -4142.8073      35.882563      71.03027       321.66812      9682.0637      0.88985147     0.84431814   
     49300  -4107.98       -4143.6939      35.713851      757.11725      320.1557       9718.0876      0.88655289     0.84431814   
     49400  -4109.3705     -4144.7437      35.373131     -1699.9274      317.10133      9751.9141      0.88347769     0.84431814   
     49500  -4110.2783     -4143.4254      33.147196      849.89383      297.14701      9777.2184      0.88119118     0.84431814   
     49600  -4111.7297     -4144.605       32.875225     -1309.2899      294.70894      9788.5916      0.88016734     0.84431814   
     49700  -4110.4789     -4144.6984      34.21951      -498.20611      306.75973      9777.2875      0.88118495     0.84431814   
     49800  -4110.8072     -4144.78        33.972733     -1860.9415      304.54751      9746.2908      0.88398744     0.84431814   
     49900  -4111.5522     -4145.6941      34.141906     -1352.8178      306.06406      9702.131       0.88801096     0.84431814   
     50000  -4111.2909     -4144.7486      33.457721     -607.81023      299.9307       9648.0862      0.89298524     0.63824051   
     50100  -4108.7639     -4143.8159      35.051964     -1474.3625      314.22224      9593.9496      0.89802417     0.63824051   
     50200  -4108.9773     -4145.4627      36.485429     -1186.0407      327.07249      9554.9998      0.90168485     0.63824051   
     50300  -4108.6559     -4144.2347      35.578869     -1148.7978      318.94567      9530.5644      0.90399668     0.63824051   
     50400  -4109.424      -4145.2234      35.79936       4677.0009      320.92225      9528.7467      0.90416913     0.63824051   
     50500  -4110.4463     -4145.4862      35.03992       1311.0929      314.11427      9549.7227      0.90218312     0.63824051   
     50600  -4110.6556     -4144.0942      33.438617     -1014.4754      299.75945      9586.7372      0.89869978     0.63824051   
     50700  -4109.3122     -4145.1274      35.81517       830.99625      321.06398      9635.9051      0.8941141      0.63824051   
     50800  -4110.8842     -4144.4149      33.530738     -464.87618      300.58526      9686.1071      0.88948        0.63824051   
     50900  -4109.1497     -4142.9566      33.806946     -565.32234      303.06132      9732.56        0.88523457     0.63824051   
     51000  -4107.897      -4143.5989      35.701853      291.97366      320.04815      9767.7922      0.88204155     0.70084004   
     51100  -4108.2461     -4143.6064      35.360349      460.50046      316.98675      9787.6079      0.8802558      0.70084004   
     51200  -4108.1414     -4143.0263      34.884933     -529.01998      312.7249       9792.8087      0.87978831     0.70084004   
     51300  -4106.2        -4142.5228      36.322733      785.47601      325.61401      9778.0061      0.88112019     0.70084004   
     51400  -4108.075      -4142.4034      34.328377     -1588.1966      307.73567      9743.5496      0.88423613     0.70084004   
     51500  -4108.3367     -4145.2672      36.9305       -591.34439      331.06232      9690.1948      0.88910478     0.70084004   
     51600  -4109.4337     -4144.7417      35.308036     -2028.7344      316.51779      9625.4076      0.89508923     0.70084004   
     51700  -4109.1198     -4144.3521      35.232297      1963.8168      315.83884      9560.4925      0.90116681     0.70084004   
     51800  -4108.6514     -4144.5624      35.910997      3275.6443      321.92302      9502.3037      0.90668525     0.70084004   
     51900  -4109.8466     -4144.5348      34.688204      798.51671      310.96133      9463.0294      0.91044826     0.70084004   
     52000  -4110.6921     -4145.0341      34.342001      1116.5192      307.8578       9453.3641      0.91137912     0.73646145   
     52100  -4110.034      -4144.1777      34.143649      4131.5707      306.07968      9480.4471      0.90877556     0.73646145   
     52200  -4109.8136     -4144.5246      34.711033     -1771.5532      311.16598      9543.2932      0.90279093     0.73646145   
     52300  -4110.7355     -4144.8414      34.105864      1846.3689      305.74096      9630.1072      0.89465241     0.73646145   
     52400  -4109.3142     -4143.1923      33.878081     -2254.8834      303.69901      9722.2026      0.88617765     0.73646145   
     52500  -4109.2021     -4143.6839      34.481783     -3528.2315      309.11087      9801.853       0.87897651     0.73646145   
     52600  -4109.4823     -4144.0476      34.565351      388.99067      309.86002      9856.0273      0.87414516     0.73646145   
     52700  -4110.1554     -4144.0165      33.861149     -1232.3014      303.54722      9879.7515      0.87204608     0.73646145   
     52800  -4108.8774     -4143.0704      34.192959     -3069.0085      306.52172      9866.0237      0.87325946     0.73646145   
     52900  -4106.9682     -4142.6656      35.697421     -838.61236      320.00842      9819.0916      0.87743336     0.73646145   
     53000  -4108.2632     -4142.9847      34.721512     -4941.4206      311.25992      9756.2019      0.88308941     0.73477105   
     53100  -4109.4785     -4142.3923      32.913817     -538.72484      295.05489      9685.524       0.88953355     0.73477105   
     53200  -4109.1416     -4144.0135      34.871895     -1141.0319      312.60802      9617.5408      0.89582137     0.73477105   
     53300  -4108.9304     -4145.2375      36.307189      1496.3092      325.47467      9559.6229      0.90124879     0.73477105   
     53400  -4109.6451     -4144.4803      34.835166      2498.9943      312.27876      9524.3817      0.90458351     0.73477105   
     53500  -4109.7135     -4143.9194      34.205937     -171.47325      306.63806      9517.7094      0.90521766     0.73477105   
     53600  -4110.6945     -4145.7432      35.04868       1130.473       314.1928       9532.8276      0.90378206     0.73477105   
     53700  -4109.7818     -4144.8773      35.095474      1997.1465      314.61228      9563.5625      0.90087753     0.73477105   
     53800  -4110.8997     -4146.0333      35.133574      1635.3911      314.95383      9609.8344      0.89653976     0.73477105   
     53900  -4111.7954     -4144.5682      32.772713     -139.33597      293.78996      9661.4967      0.89174574     0.73477105   
     54000  -4111.5083     -4144.4035      32.895168     -3923.0634      294.88771      9704.8994      0.88775764     0.82835766   
     54100  -4111.1372     -4144.3576      33.220377     -2372.8044      297.80304      9734.4194      0.88506548     0.82835766   
     54200  -4110.0995     -4144.0985      33.999028     -1980.5627      304.78323      9745.6017      0.88404994     0.82835766   
     54300  -4109.677      -4143.5509      33.873866     -484.99897      303.66122      9737.7681      0.88476112     0.82835766   
     54400  -4110.6831     -4144.608       33.924868     -1671.7559      304.11843      9717.5663      0.88660044     0.82835766   
     54500  -4110.8326     -4144.9155      34.082901      230.73365      305.5351       9688.32        0.88927684     0.82835766   
     54600  -4111.5184     -4144.9413      33.422892      2173.7267      299.61848      9654.8366      0.89236089     0.82835766   
     54700  -4110.0398     -4145.1824      35.142628      1242.6298      315.035        9621.4508      0.89545733     0.82835766   
     54800  -4110.1534     -4144.7772      34.623778      447.13484      310.38379      9592.6229      0.89814837     0.82835766   
     54900  -4109.5612     -4144.2034      34.642189      418.85301      310.54882      9568.0454      0.90045545     0.82835766   
     55000  -4111.4118     -4143.3334      31.92155       1526.2675      286.15974      9551.8812      0.90197924     0.64861341   
     55100  -4110.8        -4146.302       35.501995      1603.1614      318.25653      9549.9392      0.90216266     0.64861341   
     55200  -4111.953      -4146.5012      34.548167      2362.5672      309.70597      9559.2266      0.90128615     0.64861341   
     55300  -4112.1329     -4145.8028      33.66992       4254.5169      301.83295      9580.6362      0.89927207     0.64861341   
     55400  -4111.7035     -4146.9631      35.259571      73.084039      316.08333      9613.1561      0.89622997     0.64861341   
     55500  -4111.6891     -4145.5018      33.812639     -1362.9322      303.11235      9651.6447      0.89265601     0.64861341   
     55600  -4111.5625     -4145.5091      33.946645     -2749.4424      304.31364      9685.4092      0.8895441      0.64861341   
     55700  -4111.4463     -4145.0245      33.578245     -2273.9014      301.01113      9708.9649      0.88738591     0.64861341   
[...]
    386100  -4111.5883     -4144.7032      33.114874     -1846.3453      296.85726      9570.8481      0.90019176     0.75170847   
    386200  -4111.0401     -4145.3722      34.332085      782.09581      307.76891      9597.7999      0.89766391     0.75170847   
    386300  -4110.7009     -4144.5537      33.852748     -620.07109      303.47191      9629.0539      0.89475027     0.75170847   
    386400  -4109.3262     -4144.0106      34.684424     -1300.0563      310.92744      9661.936       0.8917052      0.75170847   
    386500  -4109.2131     -4143.6189      34.40586       27.671056      308.43026      9696.667       0.88851134     0.75170847   
    386600  -4108.6418     -4143.5675      34.925661      394.39991      313.09         9727.6472      0.88568165     0.75170847   
    386700  -4109.7311     -4143.5497      33.818615     -1599.8922      303.16592      9745.467       0.88406216     0.75170847   
    386800  -4110.2324     -4144.5747      34.34228      -1912.9871      307.8603       9745.5301      0.88405644     0.75170847   
    386900  -4109.8614     -4144.4148      34.553429     -4751.1112      309.75314      9728.1103      0.88563949     0.75170847   
    387000  -4109.879      -4145.1089      35.229843      130.4248       315.81683      9702.5246      0.88797493     0.7153399    
    387100  -4110.9419     -4145.8021      34.860151     -464.40257      312.50274      9673.877       0.89060452     0.7153399    
    387200  -4111.1013     -4143.6338      32.53254      -1446.5531      291.63694      9645.6413      0.89321159     0.7153399    
    387300  -4110.7745     -4144.8566      34.082098      43.617147      305.52791      9620.73        0.89552441     0.7153399    
    387400  -4110.6371     -4144.9755      34.338464      1558.6149      307.8261       9606.4813      0.89685269     0.7153399    
    387500  -4108.8365     -4143.9434      35.10691       893.03213      314.7148       9603.8896      0.89709472     0.7153399    
    387600  -4109.0639     -4144.5816      35.517671     -568.65983      318.39706      9610.8144      0.89644834     0.7153399    
    387700  -4108.7774     -4143.5291      34.751697      2835.1728      311.53051      9624.6674      0.89515806     0.7153399    
    387800  -4108.29       -4143.26        34.97          266.41096      313.48748      9644.7527      0.89329388     0.7153399    
    387900  -4107.9156     -4143.7544      35.838782      584.92956      321.27565      9662.6173      0.89164232     0.7153399    
    388000  -4109.8374     -4144.8578      35.020394     -457.49432      313.93923      9679.1058      0.8901234      0.70462809   
    388100  -4109.1181     -4144.0069      34.888748     -522.80665      312.75909      9696.5052      0.88852617     0.70462809   
    388200  -4107.9928     -4143.0944      35.101578     -892.90877      314.66701      9709.1134      0.88737233     0.70462809   
    388300  -4108.0577     -4143.1905      35.132764     -189.55025      314.94657      9715.7655      0.88676477     0.70462809   
    388400  -4106.8824     -4143.1758      36.29332       188.11791      325.35034      9713.9944      0.88692645     0.70462809   
    388500  -4107.0031     -4141.5774      34.574337     -284.10628      309.94057      9703.5639      0.88787982     0.70462809   
    388600  -4108.2348     -4143.2826      35.047722      449.3486       314.18422      9688.3859      0.88927079     0.70462809   
    388700  -4108.6255     -4143.1469      34.521304     -648.34715      309.46516      9670.274       0.89093635     0.70462809   
    388800  -4109.0824     -4143.094       34.011587     -2218.4715      304.89581      9651.9475      0.892628       0.70462809   
    388900  -4110.9859     -4145.3159      34.330034     -479.87146      307.75052      9632.5529      0.89442525     0.70462809   
    389000  -4110.6527     -4145.5279      34.875207      803.42329      312.63771      9614.9842      0.89605957     0.68247856   
    389100  -4110.2452     -4144.4681      34.222884      1324.7426      306.78998      9602.8095      0.89719562     0.68247856   
    389200  -4108.9502     -4144.0208      35.070601      2984.3222      314.38932      9596.3193      0.89780241     0.68247856   
    389300  -4107.4219     -4142.9451      35.523151     -1623.6914      318.44618      9598.6623      0.89758326     0.68247856   
    389400  -4108.8936     -4143.7937      34.900079      47.040239      312.86068      9610.9339      0.89643719     0.68247856   
    389500  -4110.876      -4144.6805      33.804559      2197.8721      303.03992      9626.5142      0.89498633     0.68247856   
    389600  -4110.0296     -4145.2297      35.200053      217.73127      315.54978      9644.0256      0.89336124     0.68247856   
    389700  -4109.6519     -4143.7039      34.051936      2702.0094      305.25752      9663.6761      0.89154463     0.68247856   
    389800  -4110.0958     -4143.8274      33.731639     -1539.7846      302.38623      9683.7914      0.8896927      0.68247856   
    389900  -4109.0679     -4143.5462      34.478259     -1171.6724      309.07928      9697.9406      0.88839465     0.68247856   
    390000  -4109.1234     -4144.2243      35.100884      3248.3653      314.66078      9700.3919      0.88817015     0.69921382   
    390100  -4109.5602     -4144.7464      35.186203      3165.7894      315.42562      9696.3277      0.88854243     0.69921382   
    390200  -4108.9791     -4144.74        35.760929     -1919.7202      320.57773      9687.269       0.88937332     0.69921382   
    390300  -4109.0136     -4143.9989      34.985236      1068.847       313.62406      9673.2599      0.89066134     0.69921382   
    390400  -4107.509      -4142.1222      34.613189     -965.59782      310.28886      9660.36        0.89185068     0.69921382   
    390500  -4109.4528     -4144.3393      34.88643       64.57728       312.73832      9654.7122      0.89237239     0.69921382   
    390600  -4109.676      -4143.9582      34.282175      426.55199      307.32149      9649.8038      0.8928263      0.69921382   
    390700  -4109.5439     -4144.8681      35.324208      600.56116      316.66276      9647.1083      0.89307576     0.69921382   
    390800  -4110.234      -4144.6279      34.393869      1500.5681      308.32277      9650.7845      0.89273557     0.69921382   
    390900  -4109.1989     -4143.7246      34.52568       1661.9328      309.50439      9661.6092      0.89173537     0.69921382   
    391000  -4111.0042     -4144.9214      33.917175     -564.33327      304.04946      9677.8226      0.89024143     0.66689554   
    391100  -4110.0502     -4144.415       34.364793     -1754.4453      308.06212      9689.4775      0.88917061     0.66689554   
    391200  -4109.6041     -4143.1703      33.566241     -805.62515      300.90353      9692.0373      0.88893576     0.66689554   
    391300  -4110.1586     -4143.1337      32.975069     -1137.728       295.60398      9691.0583      0.88902556     0.66689554   
    391400  -4110.7004     -4144.3282      33.627826     -436.9638       301.4556       9685.8585      0.88950284     0.66689554   
    391500  -4110.6069     -4145.4769      34.870014     -2150.2285      312.59115      9677.313       0.8902883      0.66689554   
    391600  -4109.6246     -4145.4494      35.824821      1088.6593      321.15049      9670.2322      0.89094019     0.66689554   
    391700  -4110.4169     -4145.5997      35.182756     -1193.7816      315.39472      9667.1866      0.89122089     0.66689554   
    391800  -4110.5068     -4144.3814      33.874664     -2628.9252      303.66837      9667.6045      0.89118236     0.66689554   
    391900  -4109.8397     -4144.0061      34.166331     -1608.7298      306.28301      9668.4916      0.89110059     0.66689554   
    392000  -4109.315      -4143.868       34.553085      965.76214      309.75005      9666.1825      0.89131346     0.79427709   
    392100  -4109.3694     -4143.6747      34.305377     -2091.9724      307.52948      9663.0232      0.89160487     0.79427709   
    392200  -4108.1873     -4142.323       34.135667     -2102.9943      306.00813      9658.7666      0.8919978      0.79427709   
    392300  -4107.0828     -4143.3509      36.268112     -1612.6514      325.12436      9655.6813      0.89228282     0.79427709   
    392400  -4106.0333     -4142.4329      36.399647      1981.1077      326.3035       9659.1992      0.89195786     0.79427709   
    392500  -4105.5009     -4141.9959      36.49496      -546.51621      327.15793      9675.1703      0.89048547     0.79427709   
    392600  -4105.4505     -4140.0266      34.576124      754.6028       309.95659      9700.9094      0.88812277     0.79427709   
    392700  -4106.3573     -4142.5497      36.192389     -892.03015      324.44554      9730.8959      0.88538596     0.79427709   
    392800  -4105.627      -4142.4561      36.829133     -2039.3232      330.15362      9752.6573      0.88341037     0.79427709   
    392900  -4107.1445     -4143.1139      35.969366     -1132.7836      322.44627      9767.2001      0.88209502     0.79427709   
    393000  -4107.2029     -4142.7173      35.514409      581.14957      318.36782      9768.1514      0.88200912     0.76501011   
    393100  -4107.6405     -4142.5168      34.876336     -573.43219      312.64783      9753.605       0.88332454     0.76501011   
    393200  -4107.1178     -4142.7569      35.639108      135.10577      319.48568      9725.3591      0.88589002     0.76501011   
    393300  -4107.8335     -4142.3435      34.509976     -671.64994      309.36361      9686.7579      0.88942025     0.76501011   
    393400  -4105.7163     -4143.665       37.948729      834.6372       340.1902       9642.8339      0.89347164     0.76501011   
    393500  -4106.6667     -4143.4623      36.795647     -576.57107      329.85343      9608.6108      0.89665392     0.76501011   
    393600  -4106.8183     -4144.2778      37.459466      1.1208361      335.80422      9593.0465      0.89810871     0.76501011   
    393700  -4106.4178     -4141.785       35.367281      376.81359      317.04889      9594.9438      0.89793112     0.76501011   
    393800  -4106.4772     -4140.8038      34.326632      1546.6196      307.72002      9608.9824      0.89661925     0.76501011   
    393900  -4107.2663     -4143.286       36.019677      1332.1465      322.89728      9630.2907      0.89463536     0.76501011   
    394000  -4108.0247     -4142.7117      34.686994     -699.61886      310.95048      9654.4603      0.89239567     0.6588645    
    394100  -4107.6451     -4143.7899      36.144749      2255.5593      324.01848      9677.0377      0.89031363     0.6588645    
    394200  -4108.0689     -4143.5471      35.478219      192.63896      318.04339      9694.3461      0.88872406     0.6588645    
    394300  -4107.7776     -4142.2601      34.482544     -833.04757      309.1177       9705.3433      0.88771704     0.6588645    
    394400  -4108.8407     -4143.4268      34.586146      1087.3502      310.04643      9703.6562      0.88787138     0.6588645    
    394500  -4109.4772     -4143.009       33.531859     -1994.6332      300.59531      9693.9492      0.88876044     0.6588645    
    394600  -4108.734      -4143.3626      34.62859      -1010.6951      310.42692      9673.6355      0.89062675     0.6588645    
    394700  -4108.2546     -4143.9075      35.652829     -1925.3753      319.60868      9645.6566      0.89321017     0.6588645    
    394800  -4108.6696     -4144.4737      35.804112     -427.6685       320.96485      9617.912       0.8957868      0.6588645    
    394900  -4109.209      -4143.6586      34.449551      855.56282      308.82193      9600.472       0.89741406     0.6588645    
    395000  -4109.3044     -4144.3054      35.000967     -1164.4637      313.76508      9592.3229      0.89817646     0.70161579   
    395100  -4109.8702     -4143.8109      33.940617     -852.44833      304.25961      9589.4245      0.89844793     0.70161579   
    395200  -4109.6812     -4145.0501      35.368924      736.83889      317.06362      9589.6911      0.89842296     0.70161579   
    395300  -4109.6758     -4143.6931      34.017305      1967.2732      304.94708      9590.7554      0.89832326     0.70161579   
    395400  -4110.0741     -4145.7396      35.665481     -1586.1813      319.72209      9597.2593      0.89771448     0.70161579   
    395500  -4111.2095     -4146.6804      35.470883     -2930.4116      317.97762      9605.1978      0.89697253     0.70161579   
    395600  -4110.4751     -4144.3481      33.872919     -1070.5731      303.65273      9611.922       0.89634503     0.70161579   
    395700  -4111.2164     -4144.6764      33.460058      1325.0126      299.95165      9618.4233      0.89573917     0.70161579   
    395800  -4110.7769     -4144.6496      33.872695      93.220682      303.65073      9623.4817      0.89526835     0.70161579   
    395900  -4110.1072     -4144.4294      34.322176      1799.3965      307.68008      9633.3783      0.89434862     0.70161579   
    396000  -4110.1918     -4144.2765      34.084701     -2706.3244      305.55124      9645.2975      0.89324342     0.68896074   
    396100  -4108.814      -4144.1009      35.286857      1518.8768      316.32793      9650.6317      0.89274971     0.68896074   
    396200  -4108.3431     -4143.4927      35.149596      674.98928      315.09746      9652.0973      0.89261415     0.68896074   
    396300  -4107.0043     -4142.6966      35.692291     -2007.7922      319.96243      9651.738       0.89264738     0.68896074   
    396400  -4107.4302     -4143.2216      35.791417     -834.05033      320.85105      9650.83        0.89273136     0.68896074   
    396500  -4107.472      -4142.8887      35.41671       296.63956      317.492        9649.7129      0.89283471     0.68896074   
    396600  -4108.1762     -4143.6121      35.435956     -887.16383      317.66452      9653.8347      0.8924535      0.68896074   
    396700  -4107.5559     -4143.1793      35.623414     -1364.7202      319.34499      9660.5481      0.89183331     0.68896074   
    396800  -4107.5274     -4143.1545      35.627158      2237.6574      319.37855      9668.1676      0.89113046     0.68896074   
    396900  -4107.6209     -4142.6411      35.020241     -2350.2355      313.93786      9673.0106      0.89068429     0.68896074   
    397000  -4106.5683     -4142.5603      35.992019     -2102.9466      322.64933      9672.2936      0.89075032     0.74039183   
    397100  -4107.5741     -4142.2143      34.640261     -938.41946      310.53154      9667.5487      0.89118751     0.74039183   
    397200  -4106.6088     -4142.3597      35.750903      1871.2591      320.48786      9662.9474      0.89161187     0.74039183   
    397300  -4105.8903     -4142.9834      37.093196      357.17679      332.5208       9664.4584      0.89147247     0.74039183   
    397400  -4106.8156     -4143.2861      36.470498     -793.13052      326.93864      9670.4867      0.89091675     0.74039183   
    397500  -4106.7789     -4143.1531      36.374214     -1904.8933      326.07551      9678.2623      0.89020098     0.74039183   
    397600  -4109.3061     -4143.0783      33.772208     -3261.0937      302.74991      9684.4371      0.88963339     0.74039183   
    397700  -4109.7669     -4142.2733      32.506381     -687.71576      291.40245      9675.0434      0.89049715     0.74039183   
    397800  -4110.3069     -4145.643       35.336083      696.50936      316.76922      9652.9802      0.8925325      0.74039183   
    397900  -4110.7833     -4145.2462      34.462897      472.71104      308.94157      9630.2746      0.89463685     0.74039183   
    398000  -4109.5542     -4144.6677      35.113558     -415.319        314.7744       9606.342       0.8968657      0.70936268   
    398100  -4109.0174     -4143.6844      34.66692       1919.7034      310.77053      9589.6533      0.89842649     0.70936268   
    398200  -4108.2076     -4143.6337      35.426023      2561.6721      317.57548      9582.5884      0.89908887     0.70936268   
    398300  -4107.7482     -4143.6264      35.878292     -73.502349      321.62983      9588.2183      0.89856095     0.70936268   
    398400  -4108.1693     -4143.5547      35.385351      3139.3364      317.21088      9611.06        0.89642543     0.70936268   
    398500  -4106.1434     -4142.727       36.583646     -2601.6224      327.95296      9649.4503      0.89285901     0.70936268   
    398600  -4106.4514     -4142.1911      35.739754      4404.6089      320.38791      9691.6454      0.88897171     0.70936268   
    398700  -4108.3706     -4144.6542      36.283612     -1623.6927      325.26331      9730.6404      0.88540921     0.70936268   
    398800  -4108.0546     -4142.3131      34.258498     -1380.8746      307.10924      9755.6504      0.88313934     0.70936268   
    398900  -4107.9965     -4143.0834      35.086929     -1012.9487      314.53569      9762.7568      0.88249649     0.70936268   
    399000  -4107.7504     -4143.176       35.425631     -1341.9044      317.57196      9745.0918      0.8840962      0.71853127   
    399100  -4107.1547     -4142.0626      34.907936     -2048.6226      312.93111      9711.5575      0.88714901     0.71853127   
    399200  -4107.0944     -4142.1094      35.014966     -2146.9289      313.89058      9669.3604      0.89102053     0.71853127   
    399300  -4106.7358     -4142.1807      35.444903      435.66281      317.74474      9621.9422      0.89541159     0.71853127   
    399400  -4107.6318     -4142.1556      34.523803      1213.1415      309.48756      9578.5519      0.89946776     0.71853127   
    399500  -4107.6637     -4144.4529      36.789209     -779.03677      329.79572      9542.3905      0.90287634     0.71853127   
    399600  -4109.7473     -4143.4643      33.716974     -2723.1523      302.25477      9517.7147      0.90521715     0.71853127   
    399700  -4110.3252     -4145.1655      34.840304      3.3220902      312.32482      9513.2543      0.90564157     0.71853127   
    399800  -4110.9063     -4146.0875      35.181171      2120.2155      315.38051      9532.6023      0.90380342     0.71853127   
    399900  -4112.1958     -4144.6287      32.432895      840.58731      290.74368      9571.5913      0.90012187     0.71853127   
    400000  -4111.5707     -4143.8074      32.236673     -1.134265       288.98465      9619.1308      0.89567329     0.73930213   
    400100  -4109.0088     -4145.1857      36.176853      749.25984      324.30627      9667.0991      0.89122895     0.73930213   
    400191  -4109.4576     -4142.4803      33.022696      1038.0118      296.03093      9703.4812      0.88788739     0.73930213   
Loop time of 496.679 on 2 procs for 200000 steps with 864 atoms

Performance: 17.396 ns/day, 1.380 hours/ns, 402.675 timesteps/s, 347.911 katom-step/s
99.7% CPU use with 2 MPI tasks x 1 OpenMP threads

MPI task timing breakdown:
Section |  min time  |  avg time  |  max time  |%varavg| %total
---------------------------------------------------------------
Pair    | 258.32     | 258.75     | 259.19     |   2.7 | 52.10
Neigh   | 7.4491     | 7.4901     | 7.5311     |   1.5 |  1.51
Comm    | 39.015     | 40.326     | 41.637     |  20.6 |  8.12
Output  | 0.29126    | 0.29428    | 0.29731    |   0.6 |  0.06
Modify  | 187.02     | 187.86     | 188.7      |   6.2 | 37.82
Other   |            | 1.955      |            |       |  0.39

Nlocal:            432 ave         434 max         430 min
Histogram: 1 0 0 0 0 0 0 0 0 1
Nghost:         2134.5 ave        2140 max        2129 min
Histogram: 1 0 0 0 0 0 0 0 0 1
Neighs:              0 ave           0 max           0 min
Histogram: 2 0 0 0 0 0 0 0 0 0
FullNghs:        44062 ave       44287 max       43837 min
Histogram: 1 0 0 0 0 0 0 0 0 1

Total # of neighbors = 88124
Ave neighs/atom = 101.99537
Neighbor list builds = 19975
Dangerous builds = 19852

unfix		3
unfix		4
Total wall time: 0:16:35
