LAMMPS (7 Feb 2024 - Update 1)
KOKKOS mode with Kokkos version 4.2.0 is enabled (src/KOKKOS/kokkos.cpp:72)
  will use up to 2 GPU(s) per node
  using 1 OpenMP thread(s) per MPI task
package kokkos
package kokkos newton on neigh half

units		metal						## E in [eV], t in [ps], P in [10000 Pa], l in [A]
atom_style	atomic						## mass x y z vx vy vz

neighbor	0.5 bin						## neighbor list, skin = 0.5 Angstrom
neigh_modify	every 2 delay 10 check yes			## update of neighbor list

############################## main variables
variable        seed equal 52966

variable	temperature equal 285
variable	tempDamp equal 0.1

variable        pressure equal 1000
variable        pressureDamp equal 1.0 				# This is 1 ps

##############################

read_data water.dat
Reading data file ...
  orthogonal box = (0 0 0) to (18.207572 23.629178 22.213196)
  1 by 2 by 1 MPI processor grid
  reading atoms ...
  864 atoms
  read_data CPU = 0.009 seconds

mass		1 1.008    # H
mass		2 15.9994  # O


pair_style	pace/extrapolation
ACE/AL version: 2023.11.25
pair_coeff	* * /home/cicn/cicn607503/pd/pot_dir/interim_potential_ladder_step_5.yaml /home/cicn/cicn607503/pd/pot_dir/interim_potential_ladder_step_5.asi H O
Loading /home/cicn/cicn607503/pd/pot_dir/interim_potential_ladder_step_5.yaml
Total number of basis functions
	H: 24 (r=1) 863 (r>1)
	O: 24 (r=1) 863 (r>1)
Mapping LAMMPS atom type #1(H) -> ACE species type #0
Mapping LAMMPS atom type #2(O) -> ACE species type #1
Loading ASI /home/cicn/cicn607503/pd/pot_dir/interim_potential_ladder_step_5.asi
LINEAR ASI is loaded

fix pace_gamma all pair 1000 pace/extrapolation gamma 1
compute max_pace_gamma all reduce max f_pace_gamma
variable dump_skip equal "c_max_pace_gamma < 10"

dump pace_dump all custom 1000 extrapolative_structures.dump id type x y z f_pace_gamma
dump_modify pace_dump skip v_dump_skip
dump_modify pace_dump element H O

variable max_pace_gamma equal c_max_pace_gamma

timestep	0.0005						## timestep = 0.0005*ps = 0.5 fs

thermo		100
thermo_style custom step etotal pe ke press temp vol density c_max_pace_gamma


min_style cg/kk
minimize 0.0 5.0e-4 10000 100000
Switching to 'neigh_modify every 1 delay 0 check yes' setting during minimization
Neighbor list info ...
  update: every = 1 steps, delay = 0 steps, check = yes
  max neighbors/atom: 2000, page size: 100000
  master list distance cutoff = 6.5
  ghost atom cutoff = 6.5
  binsize = 6.5, bins = 3 4 4
  1 neighbor lists, perpetual/occasional/extra = 1 0 0
  (1) pair pace/extrapolation/kk, perpetual
      attributes: full, newton on, kokkos_device
      pair build: full/bin/kk/device
      stencil: full/bin/3d
      bin: kk/device
WARNING: Fix with atom-based arrays not compatible with sending data in Kokkos communication, switching to classic exchange/border communication (src/KOKKOS/comm_kokkos.cpp:666)
WARNING: Fix with atom-based arrays not compatible with Kokkos sorting on device, switching to classic host sorting (src/KOKKOS/atom_kokkos.cpp:218)
Per MPI rank memory allocation (min/avg/max) = 449.3 | 453 | 456.7 Mbytes
   Step         TotEng         PotEng         KinEng         Press           Temp          Volume        Density     c_max_pace_gamma
         0  -4180.7249     -4180.7249      0              931.57303      0              9556.7825      0.90151666     0.51848277   
       100  -4182.8568     -4182.8568      0             -5818.1351      0              9556.7825      0.90151666     0.51848277   
       191  -4182.8571     -4182.8571      0             -5809.5218      0              9556.7825      0.90151666     0.51848277   
Loop time of 0.674586 on 2 procs for 191 steps with 864 atoms

99.2% CPU use with 2 MPI tasks x 1 OpenMP threads

Minimization stats:
  Stopping criterion = force tolerance
  Energy initial, next-to-last, final = 
      -4180.7249004513  -4182.85708343912  -4182.85708344366
  Force two-norm initial, final = 6.5563152 0.00040677855
  Force max component initial, final = 0.28078875 3.6224289e-05
  Final line search alpha, max atom move = 1 3.6224289e-05
  Iterations, force evaluations = 191 382

MPI task timing breakdown:
Section |  min time  |  avg time  |  max time  |%varavg| %total
---------------------------------------------------------------
Pair    | 0.46029    | 0.46254    | 0.46478    |   0.3 | 68.57
Neigh   | 0          | 0          | 0          |   0.0 |  0.00
Comm    | 0.068597   | 0.071984   | 0.075371   |   1.3 | 10.67
Output  | 0.00015177 | 0.00015238 | 0.00015299 |   0.0 |  0.02
Modify  | 0.089765   | 0.091933   | 0.094101   |   0.7 | 13.63
Other   |            | 0.04798    |            |       |  7.11

Nlocal:            432 ave         436 max         428 min
Histogram: 1 0 0 0 0 0 0 0 0 1
Nghost:           2169 ave        2174 max        2164 min
Histogram: 1 0 0 0 0 0 0 0 0 1
Neighs:              0 ave           0 max           0 min
Histogram: 2 0 0 0 0 0 0 0 0 0
FullNghs:        45636 ave       46083 max       45189 min
Histogram: 1 0 0 0 0 0 0 0 0 1

Total # of neighbors = 91272
Ave neighs/atom = 105.63889
Neighbor list builds = 0
Dangerous builds = 0

################## equilibration of main calculation
# Equilibrate to specified number of ice

fix             3 all nph aniso ${pressure} ${pressure} ${pressureDamp}
fix             3 all nph aniso 1000 ${pressure} ${pressureDamp}
fix             3 all nph aniso 1000 1000 ${pressureDamp}
fix             3 all nph aniso 1000 1000 1
fix             4 all temp/csvr ${temperature} ${temperature} ${tempDamp} ${seed}
fix             4 all temp/csvr 285 ${temperature} ${tempDamp} ${seed}
fix             4 all temp/csvr 285 285 ${tempDamp} ${seed}
fix             4 all temp/csvr 285 285 0.1 ${seed}
fix             4 all temp/csvr 285 285 0.1 52966
velocity 	all create ${temperature} ${seed} dist gaussian
velocity 	all create 285 ${seed} dist gaussian
velocity 	all create 285 52966 dist gaussian

run 200000
WARNING: Fix with atom-based arrays not compatible with sending data in Kokkos communication, switching to classic exchange/border communication (src/KOKKOS/comm_kokkos.cpp:666)
WARNING: Fix with atom-based arrays not compatible with Kokkos sorting on device, switching to classic host sorting (src/KOKKOS/atom_kokkos.cpp:218)
Per MPI rank memory allocation (min/avg/max) = 453.3 | 454.9 | 456.4 Mbytes
   Step         TotEng         PotEng         KinEng         Press           Temp          Volume        Density     c_max_pace_gamma
       191  -4151.0649     -4182.8571      31.792179     -2256.2561      285            9556.7825      0.90151666     0.51848277   
       200  -4150.8733     -4173.9381      23.06485      -10087.243      206.76413      9556.3923      0.90155347     0.51848277   
       300  -4144.197      -4164.141       19.944046     -2846.4062      178.78778      9516.9093      0.90529376     0.51848277   
       400  -4139.969      -4158.5982      18.629186     -2270.4825      167.00076      9430.1851      0.91361924     0.51848277   
       500  -4135.3993     -4157.0241      21.624836      59.061563      193.85517      9305.5236      0.92585855     0.51848277   
       600  -4131.8        -4157.3496      25.54964       2518.9623      229.03895      9180.3698      0.93848056     0.51848277   
       700  -4129.2122     -4154.9558      25.743597      5501.1478      230.77768      9096.6806      0.94711456     0.51848277   
       800  -4126.9665     -4154.1488      27.182299      4297.5515      243.67487      9074.7257      0.94940595     0.51848277   
       900  -4125.2981     -4152.9488      27.650637      3708.3423      247.87327      9115.1858      0.94519177     0.51848277   
      1000  -4124.2652     -4153.8449      29.579696      2878.5154      265.16627      9208.1982      0.93564435     0.81770988   
      1100  -4123.7434     -4152.9648      29.22141       1865.3606      261.95442      9329.2406      0.92350481     0.81770988   
      1200  -4123.4724     -4151.4232      27.950779      3009.6327      250.56389      9447.8555      0.9119105      0.81770988   
      1300  -4122.6231     -4150.7091      28.085992      1257.7766      251.776        9541.8929      0.90292342     0.81770988   
      1400  -4119.5752     -4150.6945      31.119297     -72.181484      278.96797      9597.1691      0.89772291     0.81770988   
      1500  -4119.1222     -4150.4859      31.363643     -347.0945       281.1584       9612.3743      0.89630286     0.81770988   
      1600  -4119.6316     -4150.2623      30.630654      2250.8732      274.58754      9594.342       0.89798744     0.81770988   
      1700  -4118.0035     -4149.3462      31.342658     -764.72346      280.97028      9551.8333      0.90198377     0.81770988   
      1800  -4118.1382     -4149.4882      31.350035      1471.0633      281.03641      9493.2397      0.90755094     0.81770988   
      1900  -4117.1035     -4149.1526      32.049052      4277.9975      287.30273      9433.7183      0.91327707     0.81770988   
      2000  -4118.374      -4149.9137      31.539761      2827.8405      282.73721      9388.1157      0.91771329     0.81563244   
      2100  -4117.5099     -4149.4319      31.92199       1367.3032      286.16369      9361.0858      0.92036317     0.81563244   
      2200  -4117.4581     -4147.8085      30.350336      2738.6507      272.07465      9360.0508      0.92046494     0.81563244   
      2300  -4116.431      -4148.1589      31.727917      2412.0061      284.42392      9385.1061      0.91800758     0.81563244   
      2400  -4116.201      -4148.2807      32.079696      1059.3611      287.57744      9428.2829      0.91380357     0.81563244   
      2500  -4115.6033     -4147.4018      31.798463      665.76148      285.05634      9477.3892      0.90906877     0.81563244   
      2600  -4114.9646     -4148.413       33.448374      1103.6425      299.8469       9527.4873      0.90428865     0.81563244   
      2700  -4116.1292     -4148.139       32.009844      3327.0057      286.95125      9575.0456      0.89979714     0.81563244   
      2800  -4116.8613     -4148.843       31.981728      844.3936       286.69921      9608.2953      0.89668337     0.81563244   
      2900  -4116.1248     -4148.5604      32.435639     -427.86305      290.76828      9625.407       0.89508928     0.81563244   
      3000  -4116.4832     -4148.408       31.924814     -1515.0393      286.189        9620.6843      0.89552866     0.62101057   
      3100  -4114.4716     -4145.4833      31.011763      1433.9963      278.00398      9590.7274      0.89832587     0.62101057   
      3200  -4114.5989     -4146.2108      31.611945     -993.34751      283.3843       9544.1645      0.90270852     0.62101057   
      3300  -4114.5881     -4147.0346      32.446513      3781.5046      290.86576      9492.6719      0.90760522     0.62101057   
      3400  -4115.229      -4148.5849      33.355834      1379.2104      299.01734      9450.7145      0.91163463     0.62101057   
      3500  -4115.0297     -4147.1111      32.081429      2262.3661      287.59298      9425.3492      0.914088       0.62101057   
      3600  -4115.175      -4146.6425      31.467477      1009.0138      282.08922      9424.2309      0.91419647     0.62101057   
      3700  -4115.186      -4148.92        33.733985      2444.6109      302.40726      9443.9982      0.91228295     0.62101057   
      3800  -4115.0643     -4148.5193      33.455005      3585.5487      299.90636      9482.0451      0.90862241     0.62101057   
      3900  -4116.0022     -4148.546       32.543773      1217.8719      291.73764      9538.0873      0.90328368     0.62101057   
      4000  -4116.0416     -4147.8814      31.839779     -212.29814      285.42671      9595.8225      0.89784889     0.72008731   
      4100  -4116.231      -4147.906       31.674965     -737.54383      283.94924      9638.6757      0.89385709     0.72008731   
      4200  -4115.9501     -4147.5115      31.561431     -242.98952      282.93147      9656.6367      0.89219455     0.72008731   
      4300  -4115.8521     -4148.0089      32.156757     -572.0536       288.26825      9645.3873      0.89323511     0.72008731   
      4400  -4115.263      -4146.9513      31.68835       183.92634      284.06923      9608.3533      0.89667796     0.72008731   
      4500  -4114.7668     -4147.8891      33.122292      847.98689      296.92376      9551.643       0.90200173     0.72008731   
      4600  -4115.6242     -4148.0243      32.400074      4944.7982      290.44946      9489.6305      0.90789611     0.72008731   
      4700  -4116.1013     -4147.3599      31.258554      2147.2308      280.21634      9434.9891      0.91315406     0.72008731   
      4800  -4116.8752     -4148.3565      31.481266      1819.3031      282.21283      9395.5591      0.91698625     0.72008731   
      4900  -4116.748      -4148.7272      31.9792        1813.087       286.67654      9379.0593      0.91859944     0.72008731   
      5000  -4116.2668     -4147.2079      30.941113      3440.1066      277.37065      9385.1388      0.91800439     0.83161483   
      5100  -4115.1407     -4145.417       30.276245      812.03873      271.41046      9410.422       0.91553796     0.83161483   
      5200  -4115.5976     -4147.8146      32.217076      1518.7209      288.80897      9453.1265      0.91140202     0.83161483   
      5300  -4115.9913     -4149.5104      33.519079      1694.5973      300.48074      9510.4105      0.90591237     0.83161483   
      5400  -4117.2275     -4148.2376      31.010068     -29.047787      277.98879      9575.138       0.89978845     0.83161483   
      5500  -4118.1704     -4149.0673      30.896871     -927.25803      276.97404      9628.1141      0.89483761     0.83161483   
      5600  -4117.9972     -4148.2092      30.211988     -1780.2921      270.83443      9650.627       0.89275014     0.83161483   
      5700  -4118.6274     -4149.3009      30.673478     -1702.0232      274.97144      9638.7108      0.89385384     0.83161483   
      5800  -4116.8453     -4149.2313      32.386031      221.39562      290.32357      9593.2946      0.89808548     0.83161483   
      5900  -4117.9018     -4148.9175      31.015638      793.87114      278.03872      9525.2902      0.90449723     0.83161483   
      6000  -4117.2364     -4149.5532      32.316801      1019.8262      289.70296      9447.4019      0.91195428     0.68711182   
      6100  -4116.9884     -4148.9243      31.935842      653.0605       286.28786      9374.5399      0.91904228     0.68711182   
      6200  -4118.4504     -4150.1777      31.727312      2157.7328      284.4185       9321.7826      0.92424368     0.68711182   
      6300  -4118.691      -4150.1024      31.411458      3224.4241      281.58704      9295.8298      0.92682405     0.68711182   
      6400  -4119.1015     -4149.2779      30.17645       3954.8887      270.51585      9300.1282      0.92639568     0.68711182   
      6500  -4118.138      -4150.1676      32.029573      3062.2201      287.12811      9338.3044      0.92260846     0.68711182   
      6600  -4118.4643     -4148.7686      30.304266      1627.1889      271.66165      9404.5943      0.91610529     0.68711182   
      6700  -4118.9229     -4150.3583      31.435412      934.89547      281.80177      9481.2772      0.90869599     0.68711182   
      6800  -4117.1709     -4148.4811      31.310254     -654.01623      280.67979      9548.489       0.90229968     0.68711182   
      6900  -4115.3682     -4148.9962      33.627956     -1914.7721      301.45677      9597.8329      0.89766083     0.68711182   
      7000  -4114.9799     -4146.9246      31.944689     -1247.4517      286.36717      9620.8133      0.89551666     0.91428618   
      7100  -4113.7931     -4146.9641      33.171067      2273.1534      297.361        9618.7172      0.89571181     0.91428618   
      7200  -4115.321      -4147.3025      31.981514      1990.5597      286.69729      9594.1312      0.89800717     0.91428618   
      7300  -4115.2253     -4146.5579      31.332596     -1839.0314      280.88008      9546.0231      0.90253276     0.91428618   
      7400  -4116.0381     -4148.2665      32.228456      3629.8721      288.91099      9486.796       0.90816737     0.91428618   
      7500  -4114.5232     -4148.3801      33.8569        742.16855      303.50912      9430.1872      0.91361904     0.91428618   
      7600  -4115.21       -4147.7812      32.571172      4211.4496      291.98326      9385.3382      0.91798488     0.91428618   
      7700  -4115.2908     -4148.2147      32.923982      2401.3245      295.14602      9363.0538      0.92016972     0.91428618   
      7800  -4115.5588     -4149.0074      33.448622      3130.8806      299.84913      9368.5699      0.91962794     0.91428618   
      7900  -4115.562      -4147.3499      31.78789       1329.3342      284.96155      9399.867       0.91656601     0.91428618   
      8000  -4114.4592     -4146.9432      32.484071      1941.6632      291.20245      9450.7491      0.91163129     0.77955173   
      8100  -4115.6499     -4147.6086      31.958761      2575.5563      286.49332      9509.8338      0.90596731     0.77955173   
      8200  -4115.4474     -4146.703       31.255555      824.97347      280.18945      9566.7789      0.90057465     0.77955173   
      8300  -4114.8287     -4147.4102      32.581466     -2343.596       292.07554      9607.3782      0.89676896     0.77955173   
      8400  -4114.1843     -4147.4073      33.222959      19.727253      297.82618      9618.6144      0.89572138     0.77955173   
      8500  -4113.9256     -4146.5645      32.638827      521.11746      292.58975      9603.5776      0.89712386     0.77955173   
      8600  -4115.121      -4146.8635      31.742528     -47.514659      284.5549       9572.9943      0.89998994     0.77955173   
      8700  -4116.3811     -4148.7314      32.350228      1777.6761      290.00261      9535.0096      0.90357524     0.77955173   
      8800  -4117.8918     -4148.6405      30.748631      874.08278      275.64515      9493.8698      0.90749071     0.77955173   
      8900  -4117.8851     -4148.8511      30.965977      1087.073       277.59354      9450.3474      0.91167004     0.77955173   
      9000  -4118.3687     -4148.3279      29.959171      2575.9738      268.56806      9411.9833      0.91538609     0.75382388   
      9100  -4118.9113     -4150.164       31.25262       919.89136      280.16314      9388.6134      0.91766464     0.75382388   
      9200  -4118.5289     -4149.9592      31.43033       919.16998      281.75621      9379.4449      0.91856167     0.75382388   
      9300  -4119.9394     -4148.6848      28.74538       1879.6805      257.68707      9387.9309      0.91773136     0.75382388   
      9400  -4121.4662     -4150.7923      29.326094      816.92435      262.89286      9412.5211      0.91533379     0.75382388   
      9500  -4120.2093     -4150.364       30.154739      2587.2718      270.32122      9444.0679      0.91227622     0.75382388   
      9600  -4119.135      -4150.778       31.643028      1196.6623      283.66294      9475.534       0.90924676     0.75382388   
      9700  -4119.3037     -4149.3159      30.012148      242.24026      269.04297      9502.1893      0.90669617     0.75382388   
      9800  -4118.3528     -4149.1549      30.802098      1179.7166      276.12445      9519.4633      0.90505088     0.75382388   
      9900  -4119.0654     -4150.5372      31.471797      510.41042      282.12794      9523.9618      0.90462339     0.75382388   
     10000  -4119.2134     -4150.4351      31.22168      -301.27658      279.88578      9515.8722      0.90539242     0.78445226   
     10100  -4117.6399     -4148.7783      31.138459      1392.8433      279.13975      9497.1284      0.90717933     0.78445226   
     10200  -4117.8071     -4149.3717      31.564661      3640.3736      282.96042      9473.9684      0.90939701     0.78445226   
     10300  -4118.6605     -4150.0676      31.40705       151.02436      281.54753      9453.4377      0.91137202     0.78445226   
     10400  -4117.6623     -4149.526       31.86369       3003.9815      285.64106      9437.9148      0.91287098     0.78445226   
     10500  -4117.7439     -4147.3708      29.626917      1626.382       265.58958      9433.8924      0.91326022     0.78445226   
     10600  -4116.7216     -4148.093       31.371382      1017.79        281.22778      9443.7406      0.91230784     0.78445226   
     10700  -4115.2616     -4147.3403      32.078729      1298.6063      287.56877      9463.4254      0.91041016     0.78445226   
     10800  -4115.9045     -4147.6756      31.771119     -2927.2987      284.81121      9488.806       0.90797499     0.78445226   
     10900  -4116.6859     -4148.2681      31.582188      494.95716      283.11754      9515.5592      0.9054222      0.78445226   
     11000  -4115.026      -4147.7275      32.701501      1538.183       293.15159      9532.9138      0.90377389     0.6913652    
     11100  -4114.8539     -4148.6825      33.828559      1416.4175      303.25507      9541.5287      0.90295788     0.6913652    
     11200  -4116.2094     -4149.3277      33.118309      2421.2763      296.88805      9541.1584      0.90299293     0.6913652    
     11300  -4115.1791     -4147.6112      32.432136     -659.22812      290.73688      9530.7992      0.90397441     0.6913652    
     11400  -4116.0909     -4147.8116      31.720658      374.05148      284.35886      9514.7784      0.90549651     0.6913652    
     11500  -4116.2499     -4148.7107      32.46084       622.51904      290.99419      9495.6904      0.90731671     0.6913652    
     11600  -4115.4386     -4148.0992      32.660594      3001.8313      292.78488      9472.4702      0.90954085     0.6913652    
     11700  -4116.1076     -4149.3189      33.211311      3204.9868      297.72176      9449.402       0.91176125     0.6913652    
     11800  -4116.1287     -4148.3826      32.253913      256.94745      289.1392       9434.77        0.91317526     0.6913652    
     11900  -4115.0835     -4147.1468      32.063258     -1757.7871      287.43008      9427.7841      0.91385192     0.6913652    
     12000  -4115.9072     -4148.0512      32.143963      3432.3758      288.15356      9427.8559      0.91384496     0.73542705   
     12100  -4115.9189     -4149.4555      33.536647      401.95263      300.63823      9441.8063      0.91249474     0.73542705   
     12200  -4116.7225     -4148.2485      31.526013     -193.38317      282.61396      9465.0668      0.91025227     0.73542705   
     12300  -4118.6413     -4148.4836      29.842303     -43.455581      267.52039      9492.6054      0.90761158     0.73542705   
     12400  -4117.708      -4149.6348      31.926817      735.77665      286.20696      9515.7338      0.90540559     0.73542705   
     12500  -4117.6928     -4149.2157      31.522882     -1950.3323      282.58589      9531.2765      0.90392915     0.73542705   
     12600  -4116.868      -4148.1366      31.268573     -1086.6918      280.30615      9536.8073      0.90340492     0.73542705   
     12700  -4117.0959     -4149.2986      32.20265       616.54472      288.67965      9530.0469      0.90404577     0.73542705   
     12800  -4116.8185     -4148.878       32.05948      -224.04197      287.39621      9513.5795      0.90561061     0.73542705   
     12900  -4117.1466     -4149.8083      32.66166       3802.1256      292.79444      9490.5522      0.90780793     0.73542705   
     13000  -4118.2244     -4148.6925      30.468189     -842.26795      273.13114      9469.3632      0.90983928     0.753674     
     13100  -4117.5771     -4148.9515      31.374464     -74.131149      281.25541      9451.6162      0.91154765     0.753674     
     13200  -4118.4538     -4149.2961      30.842307      2152.9005      276.4849       9437.9435      0.91286821     0.753674     
     13300  -4118.1714     -4149.4107      31.239255     -241.47119      280.04333      9427.4228      0.91388694     0.753674     
     13400  -4116.5164     -4148.9698      32.453394      1031.4291      290.92744      9423.3823      0.91427879     0.753674     
     13500  -4116.4629     -4147.9495      31.486613      1828.6503      282.26076      9429.2292      0.91371187     0.753674     
     13600  -4115.9287     -4149.3375      33.408829      2403.7832      299.49241      9440.4064      0.91263005     0.753674     
     13700  -4116.4563     -4148.1671      31.710773     -607.64967      284.27024      9456.7699      0.91105088     0.753674     
     13800  -4118.0444     -4149.3761      31.331707     -753.45467      280.87212      9476.3577      0.90916773     0.753674     
     13900  -4118.2679     -4148.3685      30.100519      626.30774      269.83517      9491.3004      0.90773637     0.753674     
     14000  -4119.2175     -4149.5689      30.351452      248.92098      272.08465      9499.6824      0.90693543     0.72427668   
     14100  -4118.7378     -4149.41        30.672248      61.370488      274.96041      9497.0822      0.90718374     0.72427668   
     14200  -4119.0466     -4149.9536      30.90702      -206.95043      277.06502      9485.4784      0.90829352     0.72427668   
     14300  -4117.7004     -4149.8649      32.164569     -1366.3255      288.33827      9466.7828      0.91008728     0.72427668   
     14400  -4116.2705     -4148.7206      32.450097      2039.7388      290.89789      9453.0096      0.9114133      0.72427668   
     14500  -4116.3138     -4147.8918      31.577978      4176.7277      283.0798       9448.333       0.91186441     0.72427668   
     14600  -4116.4629     -4147.6566      31.193632      822.98735      279.63434      9451.3066      0.91157751     0.72427668   
     14700  -4116.7955     -4148.2072      31.411673     -631.43973      281.58897      9460.2369      0.910717       0.72427668   
     14800  -4115.2973     -4148.2488      32.95145       2194.6858      295.39225      9478.4714      0.90896498     0.72427668   
     14900  -4115.6496     -4148.2711      32.621471     -764.00657      292.43416      9502.9771      0.906621       0.72427668   
     15000  -4116.6771     -4149.8052      33.128097      498.19876      296.9758       9531.2644      0.90393029     0.72981378   
     15100  -4116.8506     -4149.8564      33.005826      1716.7668      295.8797       9552.2586      0.90194361     0.72981378   
     15200  -4115.8319     -4148.6672      32.835307      1377.2446      294.35109      9557.4062      0.90145783     0.72981378   
     15300  -4115.8871     -4148.6743      32.787185     -946.27053      293.9197       9554.2448      0.90175611     0.72981378   
     15400  -4116.643      -4148.1761      31.533096      1252.2497      282.67746      9540.4355      0.90306135     0.72981378   
     15500  -4116.0963     -4148.2656      32.169321      1100.0039      288.38088      9520.3039      0.90497096     0.72981378   
     15600  -4115.9545     -4149.5649      33.610462     -1081.8736      301.29995      9496.5368      0.90723585     0.72981378   
     15700  -4116.8938     -4148.0723      31.178467     -520.87079      279.4984       9473.7616      0.90941686     0.72981378   
     15800  -4117.9933     -4149.3983      31.404983      556.83823      281.529        9455.2803      0.91119441     0.72981378   
     15900  -4117.6037     -4149.7491      32.145396     -577.88468      288.1664       9440.1244      0.91265732     0.72981378   
     16000  -4116.3996     -4148.1182      31.718583      1164.5284      284.34025      9431.2301      0.91351801     0.744155     
     16100  -4116.1679     -4147.915       31.747039      3583.7498      284.59534      9435.2442      0.91312937     0.744155     
     16200  -4116.2112     -4148.0952      31.884051      1576.3756      285.82358      9456.3195      0.91109428     0.744155     
     16300  -4115.9593     -4147.4543      31.495011      1862.5639      282.33604      9488.8344      0.90797228     0.744155     
     16400  -4115.7311     -4147.231       31.499919     -1834.2257      282.38004      9519.0449      0.90509065     0.744155     
     16500  -4115.2549     -4148.6523      33.397372     -1314.6797      299.3897       9541.9258      0.90292031     0.744155     
     16600  -4116.6544     -4148.2915      31.637169      79.601585      283.61041      9554.3831      0.90174306     0.744155     
     16700  -4116.8741     -4148.7797      31.905687      927.08964      286.01754      9554.3298      0.90174808     0.744155     
     16800  -4116.2887     -4148.7189      32.430156      2024.2841      290.71912      9543.0166      0.9028171      0.744155     
     16900  -4115.9545     -4147.192       31.237458      57.318915      280.02722      9519.5377      0.9050438      0.744155     
     17000  -4114.45       -4146.6959      32.245852     -1819.1128      289.06694      9484.5815      0.90837942     0.70054873   
     17100  -4113.0217     -4146.0884      33.066672      940.46406      296.42515      9444.3347      0.91225045     0.70054873   
     17200  -4114.5449     -4146.9009      32.355976      1417.8625      290.05414      9411.3889      0.91544391     0.70054873   
     17300  -4113.8241     -4147.9372      34.113013      2229.9468      305.80505      9397.4332      0.91680339     0.70054873   
     17400  -4115.7273     -4148.0054      32.278111      2089.1061      289.35612      9413.7672      0.91521262     0.70054873   
     17500  -4116.8138     -4147.4816      30.667821      742.99997      274.92073      9453.8326      0.91133394     0.70054873   
     17600  -4116.673      -4148.483       31.810022      599.00019      285.15995      9508.3769      0.90610613     0.70054873   
     17700  -4116.5522     -4148.9183      32.366162      1245.2213      290.14546      9564.5372      0.90078573     0.70054873   
     17800  -4117.3729     -4149.39        32.017152      644.21755      287.01676      9612.6539      0.89627679     0.70054873   
     17900  -4117.1928     -4148.6078      31.415069      1427.1421      281.61941      9642.2573      0.89352506     0.70054873   
     18000  -4118.1692     -4148.4058      30.236605     -1131.1324      271.0551       9647.1244      0.89307427     0.66929212   
     18100  -4116.3975     -4148.097       31.699513     -1516.3951      284.1693       9619.6284      0.89562697     0.66929212   
     18200  -4117.072      -4149.3552      32.283132      1420.6264      289.40113      9570.7672      0.90019937     0.66929212   
     18300  -4119.1304     -4150.4305      31.30007       4154.4379      280.58851      9511.0653      0.90585001     0.66929212   
     18400  -4118.7912     -4149.8518      31.060592      345.06806      278.44171      9447.2454      0.91196938     0.66929212   
     18500  -4117.29       -4148.6619      31.37189       3159.3868      281.23233      9391.0681      0.91742478     0.66929212   
     18600  -4116.6687     -4148.7963      32.127605      1471.4581      288.00692      9356.7226      0.92079235     0.66929212   
     18700  -4115.9006     -4149.5987      33.698094      3653.7398      302.08552      9350.8646      0.92136919     0.66929212   
     18800  -4115.7216     -4148.7876      33.066059      4026.0689      296.41966      9373.7268      0.91912201     0.66929212   
     18900  -4116.9308     -4148.4598      31.529014      3836.7927      282.64087      9418.6027      0.91474276     0.66929212   
     19000  -4115.4774     -4148.1709      32.693448      2722.6372      293.0794       9472.3832      0.9095492      0.72310769   
     19100  -4116.5974     -4149.9998      33.402403      2564.9029      299.4348       9525.9424      0.9044353      0.72310769   
     19200  -4116.5737     -4148.8671      32.293411      1111.3389      289.49328      9574.6303      0.89983617     0.72310769   
     19300  -4116.493      -4148.3577      31.864741     -2166.8212      285.65048      9610.9876      0.89643218     0.72310769   
     19400  -4117.6348     -4148.0347      30.399929     -843.6008       272.51921      9622.9788      0.89531514     0.72310769   
     19500  -4117.7848     -4148.5982      30.813398     -220.12537      276.22575      9606.3469      0.89686524     0.72310769   
     19600  -4117.744      -4148.86        31.115915      2329.0453      278.93765      9566.4657      0.90060413     0.72310769   
     19700  -4118.4606     -4149.8033      31.342753      469.92476      280.97113      9510.9192      0.90586392     0.72310769   
     19800  -4117.7079     -4150.2157      32.507763      1906.0104      291.41483      9453.6798      0.91134867     0.72310769   
     19900  -4117.656      -4148.6893      31.033254      1541.14        278.19664      9407.9934      0.9157743      0.72310769   
     20000  -4116.5887     -4148.6892      32.100521      4080.9931      287.76412      9379.4444      0.91856172     0.67663862   
     20100  -4115.7418     -4147.7122      31.970398      1417.8142      286.59764      9369.6636      0.91952059     0.67663862   
     20200  -4116.2046     -4147.5318      31.327218      5210.2264      280.83187      9381.508       0.91835967     0.67663862   
     20300  -4116.6514     -4148.5774      31.925985      1135.3408      286.1995       9409.0478      0.91567168     0.67663862   
     20400  -4116.414      -4149.4223      33.008274      202.73386      295.90165      9444.7006      0.91221511     0.67663862   
     20500  -4118.1024     -4149.0633      30.960892      1114.2063      277.54795      9482.9693      0.90853385     0.67663862   
     20600  -4116.5348     -4148.835       32.300198     -701.26217      289.55412      9514.8092      0.90549358     0.67663862   
     20700  -4116.0271     -4147.9752      31.948107     -1119.9749      286.39781      9536.1738      0.90346493     0.67663862   
     20800  -4115.8655     -4148.5391      32.67368      -204.95141      292.90219      9549.9384      0.90216274     0.67663862   
     20900  -4115.8689     -4148.6597      32.790826      1614.9371      293.95234      9553.0715      0.90186686     0.67663862   
     21000  -4115.0366     -4147.3341      32.297523      1187.4658      289.53014      9546.8937      0.90245046     0.72743856   
     21100  -4115.5623     -4147.2888      31.726503     -830.21149      284.41125      9533.6155      0.90370737     0.72743856   
     21200  -4114.787      -4148.0112      33.224207     -1397.0808      297.83737      9516.6354      0.90531981     0.72743856   
     21300  -4115.2757     -4147.9334      32.657723      421.19554      292.75914      9497.3426      0.90715887     0.72743856   
     21400  -4115.7528     -4148.1832      32.430413      1885.1628      290.72143      9478.3683      0.90897487     0.72743856   
     21500  -4116.5678     -4148.5122      31.944407      1497.2788      286.36464      9461.6916      0.91057698     0.72743856   
     21600  -4117.2534     -4149.003       31.749531      617.51074      284.61768      9450.7126      0.91163481     0.72743856   
     21700  -4118.1543     -4149.251       31.096771     -326.60595      278.76604      9452.1372      0.91149741     0.72743856   
     21800  -4119.324      -4148.8465      29.522558      2954.0074      264.65405      9464.2757      0.91032837     0.72743856   
     21900  -4119.0971     -4149.8225      30.725414      3627.614       275.43702      9481.2532      0.90869829     0.72743856   
     22000  -4118.6676     -4149.597       30.929409      2148.5678      277.26573      9494.265       0.90745293     0.78926133   
     22100  -4118.5578     -4150.491       31.933151     -1349.213       286.26374      9504.7853      0.90644852     0.78926133   
     22200  -4118.249      -4150.5293      32.280293      1253.6088      289.37569      9513.0625      0.90565983     0.78926133   
     22300  -4116.4573     -4148.6999      32.242617      3910.0468      289.03793      9518.8988      0.90510455     0.78926133   
     22400  -4119.2379     -4150.7291      31.491168     -1708.4356      282.3016       9525.6358      0.90446441     0.78926133   
     22500  -4118.554      -4150.8641      32.310145     -1740.4831      289.64329      9525.3087      0.90449547     0.78926133   
     22600  -4119.4385     -4150.0958      30.657358      2590.5259      274.82694      9518.8162      0.90511241     0.78926133   
     22700  -4117.8614     -4149.535       31.673651      2803.3327      283.93746      9509.4314      0.90600565     0.78926133   
     22800  -4116.6062     -4148.1167      31.510464      1075.9613      282.47457      9501.9912      0.90671506     0.78926133   
     22900  -4116.2562     -4147.801       31.544781      386.56501      282.78221      9494.7998      0.90740182     0.78926133   
     23000  -4116.9737     -4149.8541      32.880448     -733.82414      294.75576      9486.4507      0.90820043     0.75445986   
     23100  -4115.1608     -4148.7075      33.546678      2322.2127      300.72815      9477.31        0.90907637     0.75445986   
     23200  -4115.0968     -4147.1208      32.02404      -2223.3478      287.07851      9475.7192      0.90922899     0.75445986   
     23300  -4114.8047     -4150.0469      35.242212      356.11094      315.92772      9477.704       0.90903858     0.75445986   
     23400  -4116.1525     -4148.4697      32.317228      202.19066      289.70678      9483.0399      0.90852709     0.75445986   
     23500  -4116.4257     -4148.5428      32.117121      4265.4477      287.91294      9497.4674      0.90714695     0.75445986   
     23600  -4116.2829     -4148.6304      32.347519      746.01515      289.97833      9519.9293      0.90500657     0.75445986   
     23700  -4116.8755     -4148.8998      32.024358      1160.6758      287.08136      9547.1353      0.90242762     0.75445986   
     23800  -4117.5543     -4149.2464      31.692096     -2046.1661      284.10281      9569.8948      0.90028143     0.75445986   
     23900  -4116.7176     -4148.7004      31.982858      32.156275      286.70934      9582.1084      0.89913391     0.75445986   
     24000  -4117.8466     -4149.4501      31.603533     -863.70165      283.30889      9583.1671      0.89903458     0.80321551   
     24100  -4118.6706     -4149.2228      30.552182      26.125014      273.88409      9567.3961      0.90051656     0.80321551   
     24200  -4119.4202     -4150.0621      30.641845     -263.52638      274.68787      9534.7163      0.90360303     0.80321551   
     24300  -4119.3738     -4149.2755      29.901715      700.49281      268.05299      9491.8583      0.90768302     0.80321551   
     24400  -4118.2445     -4149.5545      31.309932      2259.3392      280.67692      9449.3503      0.91176624     0.80321551   
     24500  -4119.1598     -4149.099       29.939228      1383.6448      268.38928      9411.9833      0.91538609     0.80321551   
     24600  -4117.2597     -4149.1908      31.931009      1400.0191      286.24454      9387.3963      0.91778362     0.80321551   
     24700  -4117.2542     -4149.3476      32.09337       2833.0063      287.70002      9386.3199      0.91788887     0.80321551   
     24800  -4116.8752     -4148.7883      31.913068      4607.4742      286.08371      9410.6487      0.91551591     0.80321551   
     24900  -4116.3635     -4149.3718      33.008271      3359.5057      295.90162      9457.7999      0.91095166     0.80321551   
     25000  -4116.9704     -4148.8675      31.897086      184.17115      285.94044      9516.413       0.90534097     0.67113563   
     25100  -4116.9434     -4149.5594      32.616023     -671.70368      292.38532      9573.0333      0.89998628     0.67113563   
     25200  -4117.9845     -4149.0579      31.07348       1376.2218      278.55725      9616.3375      0.89593346     0.67113563   
     25300  -4117.8248     -4147.9456      30.120843     -26.234589      270.01736      9633.24        0.89436146     0.67113563   
     25400  -4116.2695     -4147.4282      31.158724      2111.1127      279.32141      9619.5332      0.89563583     0.67113563   
     25500  -4116.2491     -4148.9159      32.666769     -37.533648      292.84024      9585.4012      0.89882504     0.67113563   
     25600  -4117.643      -4149.289       31.645981      443.23178      283.68941      9536.4291      0.90344075     0.67113563   
     25700  -4117.6206     -4149.4801      31.859435      1524.017       285.60291      9480.6022      0.90876069     0.67113563   
     25800  -4118.3011     -4149.8078      31.506718      255.84579      282.44099      9428.6908      0.91376404     0.67113563   
     25900  -4119.0898     -4149.545       30.455212     -1015.861       273.0148       9389.4433      0.91758354     0.67113563   
     26000  -4119.7948     -4150.4058      30.610986      2443.091       274.41123      9368.3372      0.91965078     0.85238201   
     26100  -4119.9945     -4149.2269      29.232379      4723.9038      262.05276      9369.548       0.91953193     0.85238201   
     26200  -4120.7075     -4150.2753      29.567783      3400.2091      265.05947      9390.9075      0.91744047     0.85238201   
     26300  -4120.7375     -4150.6415      29.904025      3108.1143      268.07371      9423.2605      0.91429061     0.85238201   
     26400  -4118.9042     -4148.8765      29.972294      1634.8195      268.6857       9461.2104      0.91062329     0.85238201   
     26500  -4120.2608     -4150.414       30.153205     -1177.8111      270.30747      9505.7267      0.90635875     0.85238201   
     26600  -4120.6206     -4150.9196      30.299028     -1258.8637      271.6147       9543.0168      0.90281708     0.85238201   
     26700  -4119.4981     -4149.9048      30.40661       1883.0004      272.57911      9566.0635      0.900642       0.85238201   
     26800  -4119.0531     -4150.1433      31.090205      549.56836      278.70718      9574.4337      0.89985464     0.85238201   
     26900  -4119.3204     -4149.9433      30.622881     -1280.2413      274.51787      9567.1013      0.9005443      0.85238201   
     27000  -4119.7803     -4149.3895      29.6092        1378.6058      265.43075      9541.423       0.90296789     0.7023002    
     27100  -4120.1067     -4150.2127      30.106045     -2157.081       269.8847       9502.8751      0.90663073     0.7023002    
     27200  -4119.4703     -4150.7984      31.328139      1228.163       280.84013      9458.7725      0.910858       0.7023002    
     27300  -4118.7192     -4148.815       30.095705      3303.3555      269.79201      9420.7594      0.91453334     0.7023002    
     27400  -4117.5499     -4148.8658      31.315863      6586.1904      280.73008      9400.3666      0.9165173      0.7023002    
     27500  -4117.8914     -4149.6087      31.717215     -653.70067      284.32798      9401.0242      0.91645319     0.7023002    
     27600  -4118.4293     -4149.6752      31.245923      761.27122      280.1031       9418.2939      0.91477275     0.7023002    
     27700  -4118.1373     -4149.2335      31.096243      2768.4382      278.7613       9445.9537      0.91209409     0.7023002    
     27800  -4117.6858     -4149.9017      32.215942      3904.0964      288.79881      9479.265       0.90888888     0.7023002    
     27900  -4116.2067     -4147.7823      31.575632      2350.0115      283.05877      9513.3209      0.90563523     0.7023002    
     28000  -4116.9413     -4149.123       32.181757     -1676.2836      288.49236      9546.6443      0.90247403     0.74405621   
     28100  -4117.053      -4149.2564      32.203397     -1016.7965      288.68635      9568.5263      0.90041019     0.74405621   
     28200  -4117.6108     -4149.799       32.188107     -182.37943      288.54928      9580.1641      0.89931639     0.74405621   
     28300  -4116.5461     -4149.5307      32.984664      1886.7906      295.69         9581.472       0.89919363     0.74405621   
     28400  -4117.3128     -4148.9371      31.624304      459.16959      283.49509      9571.4633      0.9001339      0.74405621   
     28500  -4117.2721     -4148.5799      31.307776      332.46569      280.65759      9549.4999      0.90220417     0.74405621   
     28600  -4115.6529     -4147.1652      31.512226     -649.58399      282.49037      9522.5954      0.90475319     0.74405621   
     28700  -4116.1253     -4147.9213      31.796007      653.63051      285.03432      9494.7334      0.90740817     0.74405621   
     28800  -4115.8103     -4148.4481      32.637789      938.46943      292.58044      9471.8474      0.90960065     0.74405621   
     28900  -4117.216      -4147.5344      30.318368     -1298.4671      271.78807      9458.155       0.91091747     0.74405621   
     29000  -4117.0591     -4149.2874      32.228325      2114.2462      288.90982      9451.9824      0.91151233     0.70708001   
     29100  -4116.3206     -4149.1867      32.866075      1680.2094      294.62691      9452.0526      0.91150557     0.70708001   
     29200  -4115.1406     -4147.3754      32.234795      975.79231      288.96782      9459.3855      0.91079897     0.70708001   
     29300  -4114.9229     -4147.872       32.94905       81.099181      295.37074      9480.0525      0.90881338     0.70708001   
     29400  -4113.9524     -4148.0881      34.135697      901.88245      306.00839      9508.435       0.90610059     0.70708001   
     29500  -4114.6335     -4147.9068      33.2733        1795.6879      298.27746      9540.2359      0.90308024     0.70708001   
     29600  -4115.343      -4146.9149      31.57183       1382.3153      283.02469      9569.6202      0.90030727     0.70708001   
     29700  -4115.6656     -4146.836       31.170379      786.51817      279.4259       9585.8176      0.89878599     0.70708001   
     29800  -4116.0553     -4148.1033      32.047972     -1211.0647      287.29305      9585.5044      0.89881536     0.70708001   
     29900  -4117.1408     -4148.7911      31.650292     -31.824618      283.72806      9569.3354      0.90033406     0.70708001   
     30000  -4118.3954     -4149.091       30.695564     -2023.9294      275.16943      9540.3176      0.90307251     0.64051523   
     30100  -4118.1798     -4149.7491      31.569372     -603.96132      283.00265      9500.5348      0.90685406     0.64051523   
     30200  -4119.039      -4148.9478      29.908741      1863.5763      268.11598      9452.6801      0.91144506     0.64051523   
     30300  -4119.8577     -4150.1892      30.331585      2704.3175      271.90655      9409.4891      0.91562873     0.64051523   
     30400  -4119.7399     -4150.9513      31.211451      3302.464       279.79408      9375.4418      0.91895388     0.64051523   
     30500  -4119.0246     -4150.3742      31.34965       27.814713      281.03296      9357.3565      0.92072997     0.64051523   
     30600  -4118.7644     -4150.5724      31.808047      2364.6437      285.14224      9357.4196      0.92072376     0.64051523   
     30700  -4118.3493     -4149.0407      30.691392      1948.4184      275.13203      9379.4343      0.91856271     0.64051523   
     30800  -4117.4464     -4148.7359      31.289482      856.96476      280.49359      9427.6421      0.91386568     0.64051523   
     30900  -4116.0987     -4148.3926      32.293885      353.74653      289.49753      9493.0753      0.90756665     0.64051523   
     31000  -4114.5612     -4146.4634      31.90216       329.1767       285.98592      9558.9974      0.90130776     0.698925     
     31100  -4113.8948     -4147.0152      33.120361      146.73412      296.90644      9613.1506      0.89623048     0.698925     
     31200  -4115.0767     -4147.6841      32.607413     -1712.6222      292.30814      9645.7032      0.89320586     0.698925     
     31300  -4114.6379     -4147.7951      33.157201      852.83089      297.23669      9653.2567      0.89250694     0.698925     
     31400  -4114.1913     -4147.0608      32.869566     -564.08003      294.65821      9630.9871      0.89457067     0.698925     
     31500  -4115.383      -4146.9377      31.554667      832.28758      282.87083      9580.5817      0.89927719     0.698925     
     31600  -4115.0527     -4147.6185      32.565776      1508.5132      291.93488      9505.8544      0.90634657     0.698925     
     31700  -4116.4414     -4148.2495      31.808077      3041.4948      285.14252      9420.7754      0.91453179     0.698925     
     31800  -4115.633      -4149.0145      33.381429      3936.7905      299.24678      9345.3747      0.92191044     0.698925     
     31900  -4116.2436     -4148.7739      32.53027       2800.1786      291.61659      9301.043       0.92630456     0.698925     
     32000  -4116.8632     -4148.1322      31.269076      5297.6578      280.31066      9295.5114      0.9268558      0.75932695   
     32100  -4116.9239     -4149.9911      33.067247      240.40097      296.43031      9330.328       0.92339718     0.75932695   
     32200  -4116.9222     -4149.4021      32.479915      2001.355       291.16519      9395.7765      0.91696505     0.75932695   
     32300  -4118.4862     -4148.656       30.1698        3345.7529      270.45623      9480.1245      0.90880648     0.75932695   
     32400  -4117.8159     -4149.4369      31.620989      1804.9032      283.46537      9565.2873      0.90071509     0.75932695   
     32500  -4118.2004     -4149.7492      31.548863      42.647576      282.8188       9629.5871      0.89470072     0.75932695   
     32600  -4117.2378     -4148.5144      31.2766       -708.58526      280.37811      9662.7588      0.89162927     0.75932695   
     32700  -4118.1835     -4148.7192      30.535698      1049.2407      273.73632      9659.0907      0.89196788     0.75932695   
     32800  -4118.4237     -4148.0263      29.602594     -2100.4063      265.37153      9619.6734      0.89562277     0.75932695   
     32900  -4116.9754     -4149.0258      32.050406     -1287.1851      287.31487      9557.5692      0.90144245     0.75932695   
     33000  -4117.4632     -4149.3448      31.881557     -986.77834      285.80123      9485.5207      0.90828948     0.71293297   
     33100  -4118.1832     -4149.2358      31.052632     -209.28593      278.37035      9416.7026      0.91492733     0.71293297   
     33200  -4118.3201     -4148.9708      30.650664      1511.9406      274.76692      9364.5459      0.92002311     0.71293297   
     33300  -4117.2506     -4148.9497      31.699109      1590.7658      284.16567      9338.6378      0.92257551     0.71293297   
     33400  -4117.6237     -4149.5053      31.881609      2654.3165      285.80169      9340.3163      0.92240972     0.71293297   
     33500  -4116.3645     -4148.6559      32.291442      3541.7605      289.47563      9373.0012      0.91919316     0.71293297   
     33600  -4119.3107     -4148.8201      29.509409      1889.8376      264.53618      9424.4931      0.91417104     0.71293297   
     33700  -4119.7006     -4149.8109      30.110257      2411.5304      269.92246      9477.3292      0.90907453     0.71293297   
     33800  -4119.567      -4149.9748      30.407773      1233.7135      272.58953      9518.4676      0.90514555     0.71293297   
     33900  -4120.2439     -4149.5594      29.315527      1331.3213      262.79813      9546.4216      0.90249509     0.71293297   
     34000  -4119.5962     -4149.8362      30.24005      -1023.3543      271.08599      9555.8019      0.90160917     0.79846506   
     34100  -4117.7411     -4149.4369      31.695851      1773.0414      284.13647      9546.7848      0.90246075     0.79846506   
     34200  -4118.3141     -4148.9558      30.641667     -1821.16        274.68627      9526.0415      0.90442589     0.79846506   
     34300  -4118.2604     -4148.3559      30.095512      1376.5541      269.79029      9495.5709      0.90732813     0.79846506   
     34400  -4117.4758     -4149.5234      32.047553     -967.32607      287.28929      9462.7496      0.91047518     0.79846506   
     34500  -4116.8609     -4149.4667      32.605799     -175.38981      292.29367      9431.912       0.91345197     0.79846506   
     34600  -4116.3859     -4148.9958      32.609864      1378.1716      292.33011      9411.6395      0.91541953     0.79846506   
     34700  -4117.8904     -4150.2488      32.358364      2000.312       290.07555      9405.166       0.9160496      0.79846506   
     34800  -4117.5938     -4150.7421      33.148328      3079.1806      297.15715      9410.7242      0.91550856     0.79846506   
     34900  -4116.1402     -4148.212       32.071839     -1249.3716      287.507        9428.3624      0.91379586     0.79846506   
     35000  -4116.0444     -4148.259       32.214637      3425.5064      288.78711      9454.1246      0.9113058      0.67537966   
     35100  -4115.8135     -4147.5593      31.745778     -15.910639      284.58404      9481.6107      0.90866403     0.67537966   
     35200  -4115.2844     -4147.5177      32.233219     -382.96096      288.95369      9505.2667      0.90640262     0.67537966   
     35300  -4116.1314     -4148.9331      32.801777     -1807.9445      294.05051      9527.9007      0.90424941     0.67537966   
     35400  -4115.7302     -4146.2678      30.537566      1298.0542      273.75306      9546.3317      0.90250359     0.67537966   
     35500  -4115.6041     -4147.8044      32.200393      3316.0743      288.65942      9561.2559      0.90109486     0.67537966   
     35600  -4116.7419     -4147.5659      30.823997     -884.96437      276.32077      9566.4758      0.90060319     0.67537966   
     35700  -4115.1994     -4146.7954      31.595967     -724.37351      283.24106      9557.0396      0.9014924      0.67537966   
     35800  -4115.7275     -4147.9571      32.229619      97.829361      288.92142      9537.3604      0.90335253     0.67537966   
     35900  -4115.9377     -4147.7565      31.818786     -2250.2497      285.23852      9506.0503      0.9063279      0.67537966   
     36000  -4116.6726     -4149.0918      32.419265     -188.80373      290.62149      9467.0903      0.91005772     0.77775207   
     36100  -4115.1154     -4147.8971      32.781693      2373.4624      293.87047      9428.8694      0.91374673     0.77775207   
     36200  -4115.5736     -4147.2472      31.67365       1815.4383      283.93745      9398.0883      0.91673948     0.77775207   
     36300  -4114.5331     -4147.6436      33.11055      -47.76464       296.8185       9380.6419      0.91844446     0.77775207   
     36400  -4114.5562     -4147.6256      33.069433      1820.4123      296.44991      9379.9823      0.91850904     0.77775207   
     36500  -4117.0439     -4148.6052      31.561257      3994.8109      282.92991      9400.7263      0.91648223     0.77775207   
     36600  -4117.0988     -4147.6267      30.527941      70.981025      273.66678      9436.2084      0.91303607     0.77775207   
     36700  -4119.1715     -4150.1801      31.008604     -1058.1454      277.97566      9474.8429      0.90931308     0.77775207   
     36800  -4118.1475     -4149.4372      31.289689      571.07039      280.49544      9504.8676      0.90644067     0.77775207   
     36900  -4118.1523     -4149.6464      31.494049     -1.2184777      282.32742      9525.5942      0.90446837     0.77775207   
     37000  -4118.3443     -4149.1418      30.797508      109.09021      276.0833       9537.2371      0.9033642      0.72835152   
     37100  -4119.3084     -4148.5178      29.209345     -546.87353      261.84626      9537.4508      0.90334396     0.72835152   
     37200  -4119.1587     -4149.9162      30.757516     -2129.8389      275.72479      9517.0991      0.90527571     0.72835152   
     37300  -4119.251      -4150.3306      31.079613      858.25815      278.61223      9475.9059      0.90921107     0.72835152   
     37400  -4119.1239     -4149.3852      30.261337      4232.6648      271.27681      9426.1416      0.91401116     0.72835152   
     37500  -4117.4296     -4149.8049      32.375314      3772.4502      290.22749      9384.5331      0.91806364     0.72835152   
     37600  -4117.6798     -4149.0812      31.401429      2899.2198      281.49713      9358.693       0.92059848     0.72835152   
     37700  -4117.7544     -4149.1351      31.380675     -1052.9996      281.31108      9355.5154      0.92091117     0.72835152   
     37800  -4117.843      -4148.9207      31.077696      2094.4618      278.59504      9370.4011      0.91944822     0.72835152   
     37900  -4116.9228     -4148.8711      31.948333      3537.4514      286.39984      9401.5487      0.91640206     0.72835152   
     38000  -4118.6188     -4148.6715      30.052634      612.94809      269.40591      9446.4956      0.91204177     0.7437639    
     38100  -4118.5324     -4149.1686      30.63625       1338.6882      274.63771      9494.2828      0.90745123     0.7437639    
     38200  -4119.0176     -4148.6192      29.601651     -462.73129      265.36308      9534.6989      0.90360469     0.7437639    
     38300  -4118.7425     -4149.4318      30.689277     -1656.5593      275.11307      9559.3194      0.90127741     0.7437639    
     38400  -4118.8474     -4149.627       30.77964       562.40514      275.92312      9558.5323      0.90135162     0.7437639    
     38500  -4118.5495     -4149.1877      30.638181      1096.1388      274.65502      9532.5956      0.90380406     0.7437639    
     38600  -4119.2906     -4150.1071      30.816554     -338.85842      276.25404      9487.4802      0.90810188     0.7437639    
     38700  -4118.3009     -4149.4971      31.196187      2607.2893      279.65725      9429.0591      0.91372835     0.7437639    
     38800  -4117.9085     -4148.8955      30.98696       4233.1409      277.78164      9371.5545      0.91933505     0.7437639    
     38900  -4117.4148     -4148.8216      31.406841      2974.3823      281.54565      9326.9775      0.92372889     0.7437639    
     39000  -4117.6399     -4149.3824      31.742527      1516.449       284.5549       9309.8174      0.92543153     0.72022441   
     39100  -4116.5657     -4148.6573      32.091616      3348.0739      287.68429      9323.4195      0.92408141     0.72022441   
     39200  -4118.4127     -4150.3053      31.892625      1230.5353      285.90045      9370.4697      0.91944149     0.72022441   
     39300  -4118.3897     -4149.7207      31.33108       1053.8755      280.86649      9437.3419      0.91292641     0.72022441   
     39400  -4118.1392     -4148.8144      30.675177      509.3086       274.98667      9506.5606      0.90627924     0.72022441   
     39500  -4117.7976     -4150.1007      32.303083      195.97124      289.57998      9564.2832      0.90080965     0.72022441   
     39600  -4116.1064     -4148.0321      31.925677     -2156.2465      286.19674      9600.274       0.89743257     0.72022441   
     39700  -4114.6315     -4148.1731      33.541576     -1320.4649      300.68241      9610.8428      0.89644569     0.72022441   
     39800  -4114.6621     -4147.1664      32.504335      22.983495      291.3841       9596.7003      0.89776677     0.72022441   
     39900  -4115.8251     -4145.8469      30.021867      1242.8478      269.13009      9564.3565      0.90080274     0.72022441   
     40000  -4116.1574     -4147.5845      31.427133      1594.8555      281.72756      9516.0595      0.90537461     0.76864616   
     40100  -4116.4906     -4148.32        31.829451      1797.7339      285.33413      9456.8867      0.91103963     0.76864616   
     40200  -4115.2181     -4147.3624      32.144232      1279.8741      288.15597      9396.731       0.9168719      0.76864616   
     40300  -4116.1218     -4147.8803      31.758592      3809.1658      284.69891      9354.7141      0.92099005     0.76864616   
     40400  -4115.315      -4148.2581      32.94315       700.73522      295.31785      9339.4023      0.9225         0.76864616   
     40500  -4115.7808     -4147.6557      31.874966      572.90378      285.74214      9353.6645      0.92109339     0.76864616   
     40600  -4114.9801     -4146.8695      31.889344      2681.6952      285.87103      9395.6291      0.91697943     0.76864616   
     40700  -4115.9561     -4147.5531      31.597028     -691.1311       283.25058      9456.5567      0.91107143     0.76864616   
     40800  -4115.6413     -4147.11        31.468618      784.44777      282.09945      9519.2409      0.90507202     0.76864616   
     40900  -4116.8362     -4148.9489      32.112767      17.981172      287.8739       9570.0729      0.90026468     0.76864616   
     41000  -4116.2931     -4150.1898      33.896661      1185.6536      303.86557      9599.5502      0.89750024     0.68493388   
     41100  -4115.8594     -4147.8254      31.966018     -1104.9441      286.55837      9607.0879      0.89679606     0.68493388   
     41200  -4117.1964     -4148.2324      31.035983      1019.2938      278.2211       9590.026       0.89839158     0.68493388   
     41300  -4116.7606     -4147.1603      30.399717      3050.2289      272.51732      9546.7529      0.90246377     0.68493388   
     41400  -4116.6378     -4147.5274      30.889604     -1112.9454      276.9089       9491.1682      0.90774902     0.68493388   
     41500  -4116.253      -4148.0858      31.832859     -1292.1555      285.36468      9437.2918      0.91293125     0.68493388   
     41600  -4115.469      -4148.3488      32.879793      4655.7863      294.74989      9396.4401      0.91690028     0.68493388   
     41700  -4116.342      -4148.7834      32.441345      3815.6174      290.81942      9378.2587      0.91867785     0.68493388   
     41800  -4117.2235     -4148.9431      31.719597      1038.7142      284.34934      9382.9091      0.91822254     0.68493388   
     41900  -4116.5408     -4149.6885      33.147625      255.8012       297.15086      9403.09        0.91625185     0.68493388   
     42000  -4115.7975     -4147.5671      31.76962       2025.2448      284.79777      9430.3772      0.91360063     0.71833271   
     42100  -4115.2216     -4149.4292      34.207591      1825.0403      306.65289      9463.4062      0.91041201     0.71833271   
     42200  -4114.7108     -4146.7904      32.079619      1959.6902      287.57674      9497.9712      0.90709884     0.71833271   
     42300  -4114.658      -4147.8899      33.231858     -895.99455      297.90596      9528.6729      0.90417613     0.71833271   
     42400  -4115.7121     -4147.8207      32.10864       2061.5684      287.8369       9550.2439      0.90213388     0.71833271   
     42500  -4115.6839     -4147.1856      31.501662     -716.78959      282.39567      9562.4513      0.90098222     0.71833271   
     42600  -4116.1354     -4147.8835      31.748095     -2182.4149      284.60481      9558.2668      0.90137666     0.71833271   
     42700  -4115.8177     -4148.0523      32.234568     -79.484669      288.96578      9533.2484      0.90374216     0.71833271   
     42800  -4115.2517     -4147.7034      32.451745      1798.2182      290.91266      9494.8546      0.90739658     0.71833271   
     42900  -4116.5706     -4149.2667      32.696152      508.41637      293.10363      9460.1149      0.91072875     0.71833271   
     43000  -4116.9748     -4149.0892      32.114442      1453.5973      287.88892      9434.7163      0.91318047     0.74603788   
     43100  -4116.723      -4147.9224      31.199399      4.5934679      279.68605      9421.7801      0.91443427     0.74603788   
     43200  -4116.669      -4147.3034      30.634359      1568.6007      274.62076      9419.8675      0.91461993     0.74603788   
     43300  -4115.8114     -4147.3423      31.530905      541.9012       282.65781      9422.0359      0.91440945     0.74603788   
     43400  -4114.435      -4146.4727      32.037751     -2103.025       287.20142      9430.1355      0.91362405     0.74603788   
     43500  -4114.5619     -4146.0977      31.535826     -533.05448      282.70193      9443.6254      0.91231897     0.74603788   
     43600  -4115.2859     -4146.6289      31.34302       1632.6123      280.97352      9463.065       0.91044483     0.74603788   
     43700  -4115.2419     -4147.7254      32.48351       837.51879      291.19741      9486.5852      0.90818756     0.74603788   
     43800  -4115.1011     -4147.0509      31.949841      2077.7494      286.41336      9515.21        0.90545543     0.74603788   
     43900  -4116.217      -4149.2347      33.017645     -107.9425       295.98565      9543.1976      0.90279998     0.74603788   
     44000  -4115.8046     -4147.3238      31.519196      1035.1619      282.55285      9559.5384      0.90125676     0.82889553   
     44100  -4116.298      -4147.5523      31.25438      -325.09665      280.17892      9559.5066      0.90125976     0.82889553   
     44200  -4116.3827     -4148.7946      32.41186      -695.84215      290.55511      9542.488       0.90286712     0.82889553   
     44300  -4116.3574     -4148.2082      31.850791     -108.93507      285.52542      9512.6766      0.90569658     0.82889553   
     44400  -4116.9573     -4148.8082      31.850992      1599.7861      285.52722      9473.2584      0.90946517     0.82889553   
     44500  -4116.4171     -4148.1384      31.721351      2517.3662      284.36507      9429.6618      0.91366994     0.82889553   
     44600  -4116.9206     -4149.3031      32.382489      1089.1769      290.29182      9394.7473      0.9170655      0.82889553   
     44700  -4116.5145     -4149.0091      32.494681      4074.3354      291.29756      9378.6314      0.91864134     0.82889553   
     44800  -4116.4548     -4148.5899      32.135169      3217.3997      288.07473      9384.3859      0.91807804     0.82889553   
     44900  -4116.3006     -4149.8588      33.558209     -405.58863      300.83152      9414.5544      0.9151361      0.82889553   
     45000  -4115.8978     -4148.9511      33.0533        1538.038       296.30528      9462.7978      0.91047053     0.73819596   
     45100  -4116.3279     -4149.3299      33.002011      3238.6137      295.84551      9521.0643      0.90489869     0.73819596   
     45200  -4116.1289     -4146.5929      30.464027     -746.45029      273.09382      9573.755       0.89991843     0.73819596   
     45300  -4117.1001     -4147.8274      30.727243     -2867.2536      275.45341      9606.9609      0.89680792     0.73819596   
     45400  -4116.2821     -4147.5884      31.306331     -1069.941       280.64463      9606.4167      0.89685872     0.73819596   
     45500  -4115.9286     -4148.3037      32.375114      1828.6596      290.2257       9579.2764      0.89939973     0.73819596   
     45600  -4118.0838     -4149.0312      30.947427      2208.5816      277.42725      9528.2643      0.9042149      0.73819596   
     45700  -4117.1783     -4148.7062      31.527828      3650.3827      282.63024      9460.8213      0.91066075     0.73819596   
     45800  -4117.5444     -4149.2826      31.738251      453.28471      284.51657      9389.2482      0.9176026      0.73819596   
     45900  -4118.0719     -4148.427       30.355006      2957.416       272.11651      9335.7502      0.92286087     0.73819596   
     46000  -4118.5871     -4149.7733      31.186139      5532.3496      279.56717      9312.9219      0.92512303     0.69876856   
     46100  -4118.5212     -4149.695       31.173785      2580.8697      279.45643      9322.0857      0.92421362     0.69876856   
     46200  -4118.0937     -4148.6658      30.572168      3846.2395      274.06325      9357.7452      0.92069172     0.69876856   
     46300  -4118.5669     -4148.8162      30.249292      3699.3557      271.16883      9410.5322      0.91552724     0.69876856   
     46400  -4118.3792     -4149.5979      31.218699      2466.817       279.85905      9467.1802      0.91004907     0.69876856   
     46500  -4118.4286     -4149.4727      31.044056     -1145.6714      278.29347      9517.9331      0.90519638     0.69876856   
     46600  -4118.3515     -4149.3237      30.972169     -1885.776       277.64905      9553.3579      0.90183982     0.69876856   
     46700  -4117.0492     -4148.8399      31.79065       949.68341      284.98629      9569.1645      0.90035014     0.69876856   
     46800  -4117.1673     -4148.0983      30.931022      2.7829626      277.28019      9566.6402      0.90058771     0.69876856   
     46900  -4115.9905     -4148.1668      32.176362      594.2916       288.444        9547.9253      0.90235295     0.69876856   
     47000  -4115.8291     -4146.9984      31.169361     -710.04461      279.41677      9519.0043      0.90509452     0.77409629   
     47100  -4115.4523     -4147.0665      31.614145      2501.4362      283.40402      9489.4763      0.90791086     0.77409629   
     47200  -4116.6036     -4148.391       31.787404      542.09922      284.95719      9466.3572      0.91012819     0.77409629   
     47300  -4116.7549     -4149.3951      32.640193      1474.7184      292.602        9451.4485      0.91156383     0.77409629   
     47400  -4115.6355     -4147.8944      32.258891      877.63102      289.18383      9443.3392      0.91234662     0.77409629   
     47500  -4116.5244     -4147.5667      31.042366      4068.0617      278.27833      9444.3514      0.91224884     0.77409629   
     47600  -4117.5061     -4148.4489      30.942794      2716.3351      277.38571      9452.9702      0.91141709     0.77409629   
     47700  -4118.2276     -4149.7052      31.47766      -1.9304048      282.1805       9466.0355      0.91015912     0.77409629   
     47800  -4117.5245     -4148.4867      30.962252      302.98162      277.56015      9479.4485      0.90887129     0.77409629   
     47900  -4117.9555     -4148.8252      30.869675      2069.7467      276.73024      9494.0844      0.90747019     0.77409629   
     48000  -4116.2772     -4148.2175      31.940338      670.772        286.32817      9508.9265      0.90605375     0.75990524   
     48100  -4116.3243     -4148.2303      31.905982      3180.6019      286.02018      9523.2151      0.90469432     0.75990524   
     48200  -4116.9018     -4148.4513      31.549469     -1628.3777      282.82423      9531.5124      0.90390677     0.75990524   
     48300  -4116.1392     -4147.2246      31.085416     -552.68862      278.66425      9530.982       0.90395708     0.75990524   
     48400  -4117.2382     -4149.32        32.081793      629.05768      287.59624      9523.0016      0.9047146      0.75990524   
     48500  -4117.3334     -4148.6756      31.342183      219.74569      280.96603      9506.6028      0.90627522     0.75990524   
     48600  -4116.8985     -4147.8979      30.99935       2985.5287      277.89271      9491.3105      0.9077354      0.75990524   
     48700  -4116.7315     -4147.4854      30.753855     -785.16274      275.69198      9477.7298      0.90903611     0.75990524   
     48800  -4116.5306     -4147.7827      31.252093      1779.7999      280.15841      9464.6888      0.91028863     0.75990524   
     48900  -4116.1847     -4149.4303      33.24565       2771.9384      298.02959      9454.6313      0.91125696     0.75990524   
     49000  -4116.6123     -4148.3784      31.766062      3066.5122      284.76587      9447.5011      0.91194471     0.69606755   
     49100  -4116.473      -4148.7997      32.32672       1668.5866      289.79187      9445.4701      0.91214079     0.69606755   
     49200  -4116.1708     -4148.3307      32.159891      3393.1771      288.29634      9448.9777      0.91180219     0.69606755   
     49300  -4117.2857     -4148.9651      31.67946      -527.40681      283.98954      9463.6879      0.9103849      0.69606755   
     49400  -4115.5451     -4147.9288      32.383725      560.44173      290.3029       9483.648       0.90846883     0.69606755   
     49500  -4116.4814     -4148.2568      31.775404      1842.5295      284.84962      9508.7017      0.90607517     0.69606755   
     49600  -4116.6855     -4148.1317      31.446154      1629.6408      281.89807      9533.908       0.90367965     0.69606755   
     49700  -4116.18       -4147.6402      31.460214      455.55928      282.02411      9549.2649      0.90222636     0.69606755   
     49800  -4116.1644     -4147.8286      31.664217      1177.4942      283.85289      9547.5067      0.90239252     0.69606755   
     49900  -4115.8114     -4146.8432      31.031809     -1588.4859      278.18369      9529.696       0.90407906     0.69606755   
     50000  -4116.8254     -4147.9443      31.118906     -595.86218      278.96447      9502.744       0.90664323     0.82722178   
     50100  -4118.9209     -4149.2959      30.375001      188.04787      272.29575      9474.3932      0.90935624     0.82722178   
     50200  -4119.1913     -4149.579       30.387748     -1141.7911      272.41002      9443.5942      0.91232198     0.82722178   
     50300  -4119.4645     -4150.2258      30.76133       1731.7584      275.75898      9412.4378      0.91534188     0.82722178   
     50400  -4118.1301     -4149.1858      31.055662      1096.2363      278.39752      9390.7189      0.91745889     0.82722178   
     50500  -4118.4087     -4148.6513      30.242637      1249.8985      271.10918      9386.7755      0.91784432     0.82722178   
     50600  -4118.1871     -4150.1026      31.915497      364.9426       286.10548      9403.8176      0.91618095     0.82722178   
     50700  -4119.7192     -4149.7803      30.061069      2066.9964      269.48152      9434.0382      0.9132461      0.82722178   
     50800  -4117.8978     -4149.2891      31.391313      2888.1702      281.40645      9471.2055      0.9096623      0.82722178   
     50900  -4118.7893     -4148.6788      29.889504     -1954.4576      267.94353      9512.1349      0.90574815     0.82722178   
     51000  -4118.5802     -4149.1664      30.586215     -59.781827      274.18918      9546.7973      0.90245957     0.71674684   
     51100  -4118.076      -4149.9116      31.835673      843.77434      285.3899       9570.2902      0.90024423     0.71674684   
     51200  -4118.2655     -4149.1869      30.921437     -157.12946      277.19426      9578.8749      0.89943742     0.71674684   
     51300  -4117.5293     -4147.5764      30.047045     -1572.813       269.3558       9573.5383      0.89993881     0.71674684   
     51400  -4119.074      -4149.2501      30.176063     -691.18827      270.51238      9548.8936      0.90226145     0.71674684   
     51500  -4119.1744     -4149.7103      30.535914      406.95785      273.73826      9502.4838      0.90666807     0.71674684   
     51600  -4118.8907     -4149.7196      30.828946     -1035.6778      276.36513      9441.9826      0.91247771     0.71674684   
     51700  -4118.4948     -4149.5677      31.072931      1863.6553      278.55232      9383.0301      0.91821069     0.71674684   
     51800  -4117.5759     -4149.0987      31.522746      1200.0183      282.58468      9345.1868      0.92192898     0.71674684   
     51900  -4117.3883     -4148.3821      30.993762      4830.5993      277.84262      9336.6848      0.9227685      0.71674684   
     52000  -4117.7346     -4148.5203      30.785745      2196.4635      275.97785      9358.5193      0.92061557     0.78258764   
     52100  -4118.9044     -4150.4583      31.553908     -1205.323       282.86403      9401.0308      0.91645255     0.78258764   
     52200  -4118.312      -4150.2809      31.968917     -1373.8653      286.58436      9456.5724      0.91106991     0.78258764   
     52300  -4117.7865     -4148.3388      30.552324     -200.49557      273.88536      9517.4372      0.90524354     0.78258764   
     52400  -4119.0203     -4149.3658      30.345522      2548.9994      272.03149      9571.6767      0.90011383     0.78258764   
     52500  -4117.3824     -4149.5424      32.159963     -2889.9192      288.29699      9607.5615      0.89675185     0.78258764   
     52600  -4117.1685     -4148.3488      31.180333      536.06662      279.51512      9618.5111      0.895731       0.78258764   
     52700  -4116.0914     -4147.2792      31.187786      268.94147      279.58194      9602.4548      0.89722875     0.78258764   
     52800  -4115.7606     -4148.4453      32.68478       1304.1731      293.00169      9567.5899      0.90049832     0.78258764   
     52900  -4115.9381     -4149.29        33.351864      2502.5376      298.98175      9525.3738      0.90448929     0.78258764   
     53000  -4116.4086     -4148.7542      32.345655      2663.2784      289.96162      9482.5641      0.90857267     0.71646585   
     53100  -4117.0096     -4148.5527      31.543075      708.1295       282.76692      9444.2672      0.91225697     0.71646585   
     53200  -4117.1841     -4150.068       32.88386       3100.0329      294.78634      9417.5442      0.91484557     0.71646585   
     53300  -4119.5107     -4149.484       29.973352      3778.0547      268.69519      9403.7153      0.91619092     0.71646585   
     53400  -4118.7631     -4150.2167      31.453614      1168.4016      281.96494      9402.9323      0.91626721     0.71646585   
     53500  -4117.8607     -4148.408       30.54729       1774.4657      273.84023      9413.4015      0.91524818     0.71646585   
     53600  -4117.5873     -4149.099       31.511748      2465.0231      282.48609      9438.8505      0.91278049     0.71646585   
     53700  -4118.8787     -4149.6199      30.741131      683.31103      275.57792      9469.6333      0.90981333     0.71646585   
     53800  -4117.8557     -4150.5088      32.653122      538.97387      292.71789      9498.8378      0.90701608     0.71646585   
     53900  -4118.2393     -4150.0188      31.779504     -681.84808      284.88637      9524.4715      0.90457497     0.71646585   
     54000  -4118.8176     -4149.3879      30.570301      883.17351      274.04651      9542.6943      0.9028476      0.74005496   
     54100  -4119.1962     -4149.1152      29.919028     -1120.8256      268.20819      9545.7289      0.90256057     0.74005496   
     54200  -4119.6603     -4149.3699      29.70957      -507.99081      266.33052      9534.9339      0.90358241     0.74005496   
     54300  -4119.8998     -4150.5883      30.688571     -452.59025      275.10674      9515.2977      0.90544709     0.74005496   
     54400  -4119.5571     -4149.981       30.423969      1383.3031      272.73472      9492.207       0.90764967     0.74005496   
     54500  -4117.5353     -4149.6967      32.161439      1107.6891      288.31022      9477.1102      0.90909554     0.74005496   
     54600  -4117.1734     -4147.6481      30.474675     -331.34787      273.18928      9471.2341      0.90965955     0.74005496   
     54700  -4116.1187     -4147.194       31.075285      2186.2129      278.57342      9473.9817      0.90939574     0.74005496   
     54800  -4117.1681     -4148.0127      30.844537      1406.5086      276.50489      9486.2736      0.90821739     0.74005496   
     54900  -4117.6534     -4148.4939      30.840432      2043.3476      276.4681       9498.9091      0.90700927     0.74005496   
     55000  -4117.4605     -4148.9169      31.456335      3365.1577      281.98934      9508.7243      0.90607302     0.68663376   
     55100  -4117.9423     -4149.1291      31.186762      2454.0797      279.57276      9520.4259      0.90495936     0.68663376   
     55200  -4117.627      -4149.3744      31.747445     -973.31426      284.59898      9529.8118      0.90406807     0.68663376   
     55300  -4117.16       -4149.4202      32.260196      1421.4435      289.19552      9533.9153      0.90367895     0.68663376   
     55400  -4115.9157     -4147.509       31.593257     -1205.4559      283.21677      9532.5314      0.90381014     0.68663376   
     55500  -4117.185      -4148.6686      31.483611      782.60783      282.23385      9527.1676      0.90431899     0.68663376   
     55600  -4117.0361     -4148.8354      31.799309      2284.687       285.06392      9517.035       0.9052818      0.68663376   
     55700  -4116.9623     -4148.4032      31.440873      182.2994       281.85073      9504.7709      0.90644989     0.68663376   
[...]
    386100  -4117.3265     -4148.7597      31.433169      1295.3101      281.78167      9465.3748      0.91022265     0.80223434   
    386200  -4118.1165     -4148.7077      30.591252      162.14982      274.23433      9435.536       0.91310114     0.80223434   
    386300  -4118.2147     -4148.6151      30.400418     -154.47148      272.5236       9408.1978      0.9157544      0.80223434   
    386400  -4119.457      -4150.6026      31.145665      2152.591       279.20435      9388.6647      0.91765963     0.80223434   
    386500  -4118.8605     -4151.2894      32.428973      1965.1656      290.70852      9386.4167      0.91787941     0.80223434   
    386600  -4117.8981     -4149.1898      31.291643      1253.4315      280.51296      9406.905       0.91588026     0.80223434   
    386700  -4117.2398     -4148.0377      30.797871      117.17706      276.08655      9441.4044      0.91253358     0.80223434   
    386800  -4118.1933     -4148.8994      30.706142      1155.064       275.26426      9479.9652      0.90882176     0.80223434   
    386900  -4117.3865     -4148.0958      30.709343      849.31104      275.29295      9511.3917      0.90581892     0.80223434   
    387000  -4116.4008     -4147.4566      31.055823      384.5374       278.39896      9532.6628      0.90379769     0.69436986   
    387100  -4116.4595     -4147.9252      31.465729      384.61173      282.07355      9541.486       0.90296193     0.69436986   
    387200  -4117.3457     -4149.0647      31.718967     -2536.0002      284.34369      9538.377       0.90325625     0.69436986   
    387300  -4118.1134     -4149.0275      30.914105      2949.9419      277.12853      9522.0252      0.90480737     0.69436986   
    387400  -4116.3029     -4148.8892      32.586369      536.39474      292.11949      9497.4768      0.90714605     0.69436986   
    387500  -4117.5466     -4150.7339      33.187315      3314.3713      297.50665      9471.7072      0.90961411     0.69436986   
    387600  -4118.2737     -4149.1218      30.84811       1156.7628      276.53692      9444.4168      0.91224252     0.69436986   
    387700  -4118.3124     -4149.3362      31.023822      2074.6124      278.11209      9422.1214      0.91440115     0.69436986   
    387800  -4116.5592     -4148.0088      31.449636      1816.4088      281.92928      9409.2867      0.91564843     0.69436986   
    387900  -4116.7198     -4149.1021      32.382208      4712.1932      290.28929      9414.6916      0.91512276     0.69436986   
    388000  -4116.7442     -4148.5195      31.775297      2297.3649      284.84866      9439.5029      0.91271741     0.74152863   
    388100  -4117.193      -4147.067       29.874039      975.4354       267.8049       9482.3976      0.90858863     0.74152863   
    388200  -4116.4427     -4147.5566      31.113816      2684.2565      278.91884      9534.1249      0.90365909     0.74152863   
    388300  -4115.5405     -4146.6031      31.062664      849.57227      278.46028      9583.2757      0.89902439     0.74152863   
    388400  -4115.2997     -4147.261       31.961331     -858.23322      286.51636      9615.8862      0.89597551     0.74152863   
    388500  -4114.1823     -4146.1847      32.002336     -517.96946      286.88395      9623.4962      0.895267       0.74152863   
    388600  -4114.4773     -4147.1962      32.718904      1992.9172      293.3076       9611.3671      0.89639679     0.74152863   
    388700  -4115.0173     -4146.7508      31.733557      384.55647      284.47448      9576.19        0.8996896      0.74152863   
    388800  -4113.9485     -4146.7473      32.798822      472.5572       294.02402      9521.9641      0.90481318     0.74152863   
    388900  -4115.2663     -4147.881       32.614681      3432.0527      292.37329      9462.8616      0.9104644      0.74152863   
    389000  -4115.6257     -4149.0027      33.376926      2386.2764      299.20642      9415.5419      0.91504012     0.86949622   
    389100  -4116.3346     -4149.5212      33.186636      1005.393       297.50056      9388.4639      0.91767926     0.86949622   
    389200  -4117.9971     -4149.635       31.637976      2611.0607      283.61765      9389.679       0.9175605      0.86949622   
    389300  -4119.7197     -4150.0753      30.355544      3223.2395      272.12133      9407.954       0.91577813     0.86949622   
    389400  -4119.7265     -4150.3853      30.658786      2204.4489      274.83973      9431.0216      0.91353821     0.86949622   
    389500  -4119.4647     -4149.5573      30.092604     -1237.9337      269.76421      9458.346       0.91089907     0.86949622   
    389600  -4120.0496     -4149.7378      29.688248     -41.605219      266.13937      9488.2727      0.90802603     0.86949622   
    389700  -4118.7687     -4148.8669      30.098137      2519.0293      269.81381      9511.7421      0.90578556     0.86949622   
    389800  -4118.5905     -4150.424       31.833515      1776.1699      285.37056      9528.1315      0.90422751     0.86949622   
    389900  -4117.3674     -4148.4942      31.126784     -938.5019       279.03509      9533.8207      0.90368792     0.86949622   
    390000  -4116.3693     -4147.976       31.606739      1929.0976      283.33763      9527.4699      0.9042903      0.69413437   
    390100  -4116.3518     -4146.0279      29.676062      3682.0175      266.03014      9506.7899      0.90625739     0.69413437   
    390200  -4116.5017     -4147.675       31.17329       1667.3932      279.45199      9475.4943      0.90925057     0.69413437   
    390300  -4117.1908     -4148.7682      31.577465      901.48446      283.0752       9437.1171      0.91294815     0.69413437   
    390400  -4116.4987     -4148.2246      31.725867     -292.90605      284.40555      9401.1539      0.91644054     0.69413437   
    390500  -4117.3869     -4149.9813      32.594444      2636.273       292.19188      9378.1075      0.91869266     0.69413437   
    390600  -4116.5371     -4148.5475      32.010388      1957.1422      286.95612      9374.6471      0.91903178     0.69413437   
    390700  -4115.9973     -4148.5239      32.526636     -492.18906      291.58402      9392.0775      0.91732618     0.69413437   
    390800  -4115.4444     -4147.323       31.878565      144.63655      285.77441      9424.5055      0.91416983     0.69413437   
    390900  -4116.1833     -4147.9166      31.733205      635.59535      284.47133      9466.4903      0.9101154      0.69413437   
    391000  -4115.5378     -4146.8068      31.269008     -539.16594      280.31005      9507.7217      0.90616857     0.7663462    
    391100  -4114.3207     -4147.6885      33.36773       2223.9067      299.12398      9545.8055      0.90255334     0.7663462    
    391200  -4114.5597     -4148.1653      33.605584      39.481182      301.25622      9578.5196      0.89947079     0.7663462    
    391300  -4115.8248     -4147.7906      31.965788     -2059.3563      286.55631      9595.6348      0.89786645     0.7663462    
    391400  -4115.324      -4147.0212      31.697192     -969.631        284.14849      9588.9855      0.89848906     0.7663462    
    391500  -4115.9474     -4148.2194      32.27202      -948.94245      289.30152      9560.1191      0.90120201     0.7663462    
    391600  -4115.954      -4148.007       32.052984     -776.44803      287.33798      9511.8241      0.90577774     0.7663462    
    391700  -4116.4696     -4147.9531      31.483507      1952.4944      282.23292      9451.6406      0.9115453      0.7663462    
    391800  -4116.8076     -4148.6574      31.849815      824.00923      285.51667      9393.5855      0.91717892     0.7663462    
    391900  -4115.5822     -4147.2976      31.715434      1473.426       284.31202      9346.1843      0.92183059     0.7663462    
    392000  -4116.227      -4148.5798      32.352772      1536.0837      290.02542      9317.5528      0.92466325     0.73142323   
    392100  -4117.163      -4148.9058      31.742822      805.30586      284.55755      9316.9177      0.92472627     0.73142323   
    392200  -4117.9395     -4147.9994      30.059833      1780.8043      269.47043      9346.7508      0.92177471     0.73142323   
    392300  -4117.3201     -4148.6254      31.305217      6804.8349      280.63464      9401.2055      0.91643551     0.73142323   
    392400  -4118.0155     -4149.3736      31.358063      2034.4985      281.10838      9466.2878      0.91013486     0.73142323   
    392500  -4117.848      -4148.2881      30.440092      296.10553      272.87926      9530.1615      0.9040349      0.73142323   
    392600  -4117.7602     -4148.3701      30.609892     -1990.3301      274.40142      9578.3558      0.89948617     0.73142323   
    392700  -4117.3291     -4149.1663      31.837188      121.83438      285.40349      9599.4469      0.8975099      0.73142323   
    392800  -4116.6919     -4148.2411      31.549185      511.07091      282.82169      9592.0605      0.89820103     0.73142323   
    392900  -4117.5223     -4149.1692      31.646958      1056.2576      283.69817      9564.6505      0.90077505     0.73142323   
    393000  -4117.6819     -4148.5338      30.851927      22.711314      276.57114      9522.5769      0.90475495     0.72255471   
    393100  -4116.5666     -4147.2808      30.714184      1637.6547      275.33635      9478.3783      0.90897391     0.72255471   
    393200  -4116.2576     -4147.8472      31.589575     -680.7224       283.18376      9444.215       0.91226202     0.72255471   
    393300  -4116.2469     -4147.6904      31.443555      1743.272       281.87477      9424.9049      0.91413109     0.72255471   
    393400  -4116.1733     -4148.3315      32.158183      2780.7312      288.28103      9419.7903      0.91462743     0.72255471   
    393500  -4116.7528     -4149.7995      33.046734      894.75749      296.24642      9426.7895      0.91394834     0.72255471   
    393600  -4116.5583     -4148.5478      31.989455      2293.2363      286.76848      9442.0636      0.91246988     0.72255471   
    393700  -4117.2948     -4147.7584      30.463539      1683.8635      273.08945      9463.4002      0.91041258     0.72255471   
    393800  -4117.1923     -4148.9887      31.796385     -687.00748      285.03771      9481.8879      0.90863747     0.72255471   
    393900  -4117.7682     -4149.1188      31.350598      1512.1791      281.04146      9497.4374      0.90714981     0.72255471   
    394000  -4116.5323     -4148.5445      32.012192      1362.8598      286.9723       9510.8088      0.90587444     0.69899684   
    394100  -4116.9546     -4147.9747      31.02009       1398.4716      278.07863      9518.7889      0.90511499     0.69899684   
    394200  -4117.8951     -4148.9092      31.014059      949.43473      278.02457      9519.4265      0.90505437     0.69899684   
    394300  -4118.8694     -4149.7846      30.915178     -952.1821       277.13816      9507.9603      0.90614584     0.69899684   
    394400  -4118.1351     -4150.1194      31.984261      3012.7604      286.72191      9489.553       0.90790352     0.69899684   
    394500  -4117.6384     -4148.8093      31.170861     -301.03558      279.43021      9470.9992      0.90968211     0.69899684   
    394600  -4116.4414     -4147.1788      30.737364      3688.0304      275.54415      9452.389       0.91147313     0.69899684   
    394700  -4116.0118     -4147.673       31.661263      2558.6332      283.8264       9439.3443      0.91273275     0.69899684   
    394800  -4117.115      -4148.8867      31.771731     -536.39451      284.8167       9438.9672      0.9127692      0.69899684   
    394900  -4117.4229     -4148.3953      30.972408     -205.41928      277.65119      9445.9544      0.91209403     0.69899684   
    395000  -4117.1895     -4148.3847      31.195172      1063.5345      279.64815      9457.5951      0.9109714      0.77530633   
    395100  -4117.2125     -4148.4952      31.282706      2426.045       280.43285      9473.6267      0.90942982     0.77530633   
    395200  -4117.1236     -4148.0136      30.889976      1077.0533      276.91223      9492.0402      0.90766562     0.77530633   
    395300  -4116.6539     -4148.2979      31.643974      106.0991       283.67142      9508.5774      0.90608702     0.77530633   
    395400  -4117.0956     -4149.3046      32.209061     -2497.1227      288.73712      9520.2595      0.90497518     0.77530633   
    395500  -4117.6883     -4149.0472      31.358895      688.70084      281.11584      9524.1901      0.9046017      0.77530633   
    395600  -4118.6272     -4149.3226      30.695402      2197.7949      275.16797      9517.1789      0.90526811     0.77530633   
    395700  -4118.3579     -4149.1586      30.800663      2291.3088      276.11158      9503.1736      0.90660226     0.77530633   
    395800  -4117.9161     -4149.5548      31.638736      937.8362       283.62446      9488.7248      0.90798277     0.77530633   
    395900  -4118.3091     -4149.3721      31.063058      1109.4081      278.46382      9474.8227      0.90931502     0.77530633   
    396000  -4117.6938     -4150.6504      32.956573      1206.1668      295.43817      9464.1489      0.91034056     0.77048063   
    396100  -4118.4886     -4149.1397      30.651154      433.30642      274.77132      9455.5313      0.91117023     0.77048063   
    396200  -4118.7357     -4149.322       30.586325     -439.87933      274.19016      9458.0985      0.91092291     0.77048063   
    396300  -4118.3837     -4149.7566      31.372821     -79.693689      281.24068      9466.2698      0.9101366      0.77048063   
    396400  -4117.8848     -4149.4687      31.583868      636.46513      283.1326       9474.0447      0.90938969     0.77048063   
    396500  -4118.6353     -4149.614       30.978761      1787.2006      277.70814      9479.7064      0.90884656     0.77048063   
    396600  -4117.5209     -4149.2737      31.752737      826.88111      284.64643      9484.2037      0.9084156      0.77048063   
    396700  -4118.0087     -4148.9347      30.925946      1699.6224      277.23468      9492.3911      0.90763207     0.77048063   
    396800  -4117.6242     -4149.4061      31.781884      720.49074      284.90771      9498.5961      0.90703916     0.77048063   
    396900  -4117.2352     -4149.6477      32.412583      1072.6187      290.56159      9499.0216      0.90699852     0.77048063   
    397000  -4117.1844     -4148.5028      31.318417      1488.8081      280.75297      9496.9557      0.90719583     0.76566364   
    397100  -4116.4105     -4147.8852      31.474745      919.15003      282.15437      9497.1226      0.90717988     0.76566364   
    397200  -4116.0397     -4149.1811      33.141366     -402.52424      297.09475      9496.8791      0.90720315     0.76566364   
    397300  -4114.966      -4147.3003      32.334303      246.69076      289.85985      9497.0868      0.90718331     0.76566364   
    397400  -4114.6415     -4146.381       31.739436      5.6022819      284.52719      9498.9857      0.90700196     0.76566364   
    397500  -4114.765      -4147.3856      32.620634      876.27129      292.42666      9496.8147      0.9072093      0.76566364   
    397600  -4114.0309     -4146.8591      32.82818       2357.7501      294.2872       9493.6389      0.90751278     0.76566364   
    397700  -4114.97       -4147.5883      32.618348      15.79226       292.40616      9491.333       0.90773325     0.76566364   
    397800  -4115.422      -4148.096       32.673967      1300.5372      292.90476      9489.5195      0.90790673     0.76566364   
    397900  -4115.6241     -4148.2805      32.656456      1235.7253      292.74779      9489.5783      0.9079011      0.76566364   
    398000  -4115.8625     -4147.9036      32.041081      3185.999       287.23128      9492.1465      0.90765546     0.74611513   
    398100  -4114.6758     -4148.745       34.069198      1814.4511      305.41226      9499.0105      0.90699958     0.74611513   
    398200  -4115.6952     -4148.2725      32.57726       1761.9581      292.03784      9508.054       0.9061369      0.74611513   
    398300  -4114.3336     -4146.5997      32.26613       3505.2988      289.24872      9514.0653      0.90556438     0.74611513   
    398400  -4114.1293     -4147.2513      33.121978     -2363.0923      296.92094      9519.8147      0.90501747     0.74611513   
    398500  -4115.3035     -4146.8389      31.535444      2555.8379      282.69851      9522.1205      0.90479832     0.74611513   
    398600  -4114.0024     -4147.3197      33.317342      2872.5363      298.67228      9516.5466      0.90532826     0.74611513   
    398700  -4114.4177     -4147.1186      32.700894     -1950.6223      293.14615      9508.3911      0.90610477     0.74611513   
    398800  -4114.3628     -4145.8554      31.49263      -843.90248      282.3147       9500.7923      0.90682949     0.74611513   
    398900  -4116.5184     -4148.343       31.824517     -220.9229       285.28989      9490.2061      0.90784105     0.74611513   
    399000  -4115.3383     -4145.3977      30.059362     -2742.6551      269.46621      9477.289       0.90907838     0.86851049   
    399100  -4114.3485     -4146.5146      32.166103     -909.13738      288.35203      9463.9647      0.91035827     0.86851049   
    399200  -4114.284      -4146.8104      32.526434      2940.3668      291.58221      9451.6628      0.91154316     0.86851049   
    399300  -4113.6573     -4147.3325      33.675282     -38.44988       301.88102      9442.5351      0.91242431     0.86851049   
    399400  -4113.6347     -4147.765       34.130298      2128.7762      305.95999      9441.5617      0.91251838     0.86851049   
    399500  -4114.245      -4147.5365      33.291554      723.42399      298.4411       9447.5256      0.91194234     0.86851049   
    399600  -4115.0374     -4148.699       33.661625      1998.2327      301.75859      9462.2375      0.91052445     0.86851049   
    399700  -4115.4212     -4148.6793      33.258102      1156.9414      298.14122      9481.8945      0.90863684     0.86851049   
    399800  -4116.4791     -4148.1603      31.681279      90.176611      284.00584      9501.3377      0.90677743     0.86851049   
    399900  -4116.002      -4147.7086      31.706656     -699.94809      284.23333      9513.4859      0.90561952     0.86851049   
    400000  -4116.3308     -4147.7565      31.425773      377.32086      281.71536      9521.6503      0.904843       0.8524386    
    400100  -4116.3259     -4148.5306      32.204709     -495.27922      288.69812      9527.5508      0.90428262     0.8524386    
    400191  -4115.7073     -4146.7534      31.046155      2755.8187      278.31229      9528.1167      0.90422891     0.8524386    
Loop time of 502.159 on 2 procs for 200000 steps with 864 atoms

Performance: 17.206 ns/day, 1.395 hours/ns, 398.280 timesteps/s, 344.114 katom-step/s
99.6% CPU use with 2 MPI tasks x 1 OpenMP threads

MPI task timing breakdown:
Section |  min time  |  avg time  |  max time  |%varavg| %total
---------------------------------------------------------------
Pair    | 262.32     | 263.93     | 265.55     |  10.0 | 52.56
Neigh   | 7.3998     | 7.4676     | 7.5353     |   2.5 |  1.49
Comm    | 38.799     | 41.004     | 43.209     |  34.4 |  8.17
Output  | 0.28787    | 0.29097    | 0.29407    |   0.6 |  0.06
Modify  | 186.86     | 187.44     | 188.02     |   4.2 | 37.33
Other   |            | 2.023      |            |       |  0.40

Nlocal:            432 ave         433 max         431 min
Histogram: 1 0 0 0 0 0 0 0 0 1
Nghost:         2170.5 ave        2172 max        2169 min
Histogram: 1 0 0 0 0 0 0 0 0 1
Neighs:              0 ave           0 max           0 min
Histogram: 2 0 0 0 0 0 0 0 0 0
FullNghs:        44808 ave       44832 max       44784 min
Histogram: 1 0 0 0 0 0 0 0 0 1

Total # of neighbors = 89616
Ave neighs/atom = 103.72222
Neighbor list builds = 19800
Dangerous builds = 18800

unfix		3
unfix		4
Total wall time: 0:16:45
