LAMMPS (27 Jun 2024)
KOKKOS mode with Kokkos version 4.3.1 is enabled (src/KOKKOS/kokkos.cpp:72)
  will use up to 1 GPU(s) per node
WARNING: When using a single thread, the Kokkos Serial backend (i.e. Makefile.kokkos_mpi_only) gives better performance than the OpenMP backend (src/KOKKOS/kokkos.cpp:202)
  using 1 OpenMP thread(s) per MPI task
package kokkos
package kokkos newton on neigh half

units		metal						## E in [eV], t in [ps], P in [10000 Pa], l in [A]
atom_style	atomic						## mass x y z vx vy vz

neighbor	0.5 bin						## neighbor list, skin = 0.5 Angstrom
neigh_modify	every 2 delay 10 check yes			## update of neighbor list

############################## main variables
variable        seed equal 16182

variable	temperature equal 470
variable	tempDamp equal 0.1

variable        pressure equal 30000
variable        pressureDamp equal 1.0 				# This is 1 ps

##############################

read_data water.dat
Reading data file ...
  orthogonal box = (0 0 0) to (20.240565 20.335495 35.959838)
  1 by 1 by 1 MPI processor grid
  reading atoms ...
  2160 atoms
  read_data CPU = 0.009 seconds

mass		1 1.008    # H
mass		2 15.9994  # O


pair_style	pace/extrapolation
ACE/AL version: 2023.11.25
pair_coeff	* * /pc2/users/a/acepdw01/work/phase_diagram/pot_dir/interim_potential_ladder_step_1.yaml /pc2/users/a/acepdw01/work/phase_diagram/pot_dir/interim_potential_ladder_step_1.asi H O
Loading /pc2/users/a/acepdw01/work/phase_diagram/pot_dir/interim_potential_ladder_step_1.yaml
Total number of basis functions
	H: 23 (r=1) 664 (r>1)
	O: 23 (r=1) 664 (r>1)
Mapping LAMMPS atom type #1(H) -> ACE species type #0
Mapping LAMMPS atom type #2(O) -> ACE species type #1
Loading ASI /pc2/users/a/acepdw01/work/phase_diagram/pot_dir/interim_potential_ladder_step_1.asi
LINEAR ASI is loaded

fix pace_gamma all pair 1000 pace/extrapolation gamma 1
compute max_pace_gamma all reduce max f_pace_gamma
variable dump_skip equal "c_max_pace_gamma < 10"

dump pace_dump all custom 1000 extrapolative_structures.dump id type x y z f_pace_gamma
dump_modify pace_dump skip v_dump_skip
dump_modify pace_dump element H O

variable max_pace_gamma equal c_max_pace_gamma

timestep	0.0005						## timestep = 0.0005*ps = 0.5 fs

thermo		100
thermo_style custom step etotal pe ke press temp vol density c_max_pace_gamma


min_style cg
minimize 0.0 5.0e-4 10000 100000

CITE-CITE-CITE-CITE-CITE-CITE-CITE-CITE-CITE-CITE-CITE-CITE-CITE

Your simulation uses code contributions which should be cited:

- Type Label Framework: https://doi.org/10.1021/acs.jpcb.3c08419

@Article{Gissinger24,
 author = {Jacob R. Gissinger, Ilia Nikiforov, Yaser Afshar, Brendon Waters, Moon-ki Choi, Daniel S. Karls, Alexander Stukowski, Wonpil Im, Hendrik Heinz, Axel Kohlmeyer, and Ellad B. Tadmor},
 title = {Type Label Framework for Bonded Force Fields in LAMMPS},
 journal = {J. Phys. Chem. B},
 year =    2024,
 volume =  128,
 number =  13,
 pages =   {3282–-3297}
}

CITE-CITE-CITE-CITE-CITE-CITE-CITE-CITE-CITE-CITE-CITE-CITE-CITE

Switching to 'neigh_modify every 1 delay 0 check yes' setting during minimization
Neighbor list info ...
  update: every = 1 steps, delay = 0 steps, check = yes
  max neighbors/atom: 2000, page size: 100000
  master list distance cutoff = 6.5
  ghost atom cutoff = 6.5
  binsize = 6.5, bins = 4 4 6
  1 neighbor lists, perpetual/occasional/extra = 1 0 0
  (1) pair pace/extrapolation/kk, perpetual
      attributes: full, newton on, kokkos_device
      pair build: full/bin/kk/device
      stencil: full/bin/3d
      bin: kk/device
WARNING: Fix with atom-based arrays not compatible with sending data in Kokkos communication, switching to classic exchange/border communication (src/KOKKOS/comm_kokkos.cpp:754)
WARNING: Fix with atom-based arrays not compatible with Kokkos sorting on device, switching to classic host sorting (src/KOKKOS/atom_kokkos.cpp:216)
Per MPI rank memory allocation (min/avg/max) = 1829 | 1829 | 1829 Mbytes
   Step         TotEng         PotEng         KinEng         Press           Temp          Volume        Density     c_max_pace_gamma
         0  -10271.26      -10271.26       0              20515.587      0              14801.138      1.4552257      0.78421743   
       100  -10396.243     -10396.243      0              8389.8292      0              14801.138      1.4552257      0.78421743   
       200  -10399.48      -10399.48       0              8286.4663      0              14801.138      1.4552257      0.78421743   
       300  -10400.86      -10400.86       0              8683.207       0              14801.138      1.4552257      0.78421743   
       400  -10401.161     -10401.161      0              8726.2427      0              14801.138      1.4552257      0.78421743   
       500  -10401.282     -10401.282      0              8795.4548      0              14801.138      1.4552257      0.78421743   
       600  -10401.306     -10401.306      0              8780.213       0              14801.138      1.4552257      0.78421743   
       700  -10401.327     -10401.327      0              8782.0731      0              14801.138      1.4552257      0.78421743   
       800  -10401.33      -10401.33       0              8836.8262      0              14801.138      1.4552257      0.78421743   
       900  -10401.33      -10401.33       0              8845.0371      0              14801.138      1.4552257      0.78421743   
      1000  -10401.341     -10401.341      0              8929.5508      0              14801.138      1.4552257      0.84396846   
      1100  -10401.344     -10401.344      0              8962.9654      0              14801.138      1.4552257      0.84396846   
      1200  -10401.345     -10401.345      0              8994.5766      0              14801.138      1.4552257      0.84396846   
      1300  -10401.495     -10401.495      0              9071.4311      0              14801.138      1.4552257      0.84396846   
      1400  -10401.532     -10401.532      0              8996.5204      0              14801.138      1.4552257      0.84396846   
      1500  -10401.535     -10401.535      0              8991.8318      0              14801.138      1.4552257      0.84396846   
      1600  -10401.535     -10401.535      0              8994.2918      0              14801.138      1.4552257      0.84396846   
      1700  -10401.535     -10401.535      0              8994.0741      0              14801.138      1.4552257      0.84396846   
      1733  -10401.535     -10401.535      0              8993.9459      0              14801.138      1.4552257      0.84396846   
Loop time of 16.7656 on 1 procs for 1733 steps with 2160 atoms

99.8% CPU use with 1 MPI tasks x 1 OpenMP threads

Minimization stats:
  Stopping criterion = force tolerance
  Energy initial, next-to-last, final = 
     -10271.2599764614  -10401.5352701827  -10401.5352701867
  Force two-norm initial, final = 71.431149 0.00048237807
  Force max component initial, final = 4.3904199 7.7310165e-05
  Final line search alpha, max atom move = 1 7.7310165e-05
  Iterations, force evaluations = 1733 3466

MPI task timing breakdown:
Section |  min time  |  avg time  |  max time  |%varavg| %total
---------------------------------------------------------------
Pair    | 15.449     | 15.449     | 15.449     |   0.0 | 92.15
Neigh   | 0.033845   | 0.033845   | 0.033845   |   0.0 |  0.20
Comm    | 0.10214    | 0.10214    | 0.10214    |   0.0 |  0.61
Output  | 0.0024054  | 0.0024054  | 0.0024054  |   0.0 |  0.01
Modify  | 0.73344    | 0.73344    | 0.73344    |   0.0 |  4.37
Other   |            | 0.445      |            |       |  2.65

Nlocal:           2160 ave        2160 max        2160 min
Histogram: 1 0 0 0 0 0 0 0 0 0
Nghost:           5575 ave        5575 max        5575 min
Histogram: 1 0 0 0 0 0 0 0 0 0
Neighs:              0 ave           0 max           0 min
Histogram: 1 0 0 0 0 0 0 0 0 0
FullNghs:       362262 ave      362262 max      362262 min
Histogram: 1 0 0 0 0 0 0 0 0 0

Total # of neighbors = 362262
Ave neighs/atom = 167.71389
Neighbor list builds = 76
Dangerous builds = 0

################## equilibration of main calculation
# Equilibrate to specified number of ice

#fix             1 all plumed plumedfile plumed.equil.dat outfile plumed.out
fix             3 all nph z ${pressure} ${pressure} ${pressureDamp}
fix             3 all nph z 30000 ${pressure} ${pressureDamp}
fix             3 all nph z 30000 30000 ${pressureDamp}
fix             3 all nph z 30000 30000 1
fix             4 all temp/csvr ${temperature} ${temperature} ${tempDamp} ${seed}
fix             4 all temp/csvr 470 ${temperature} ${tempDamp} ${seed}
fix             4 all temp/csvr 470 470 ${tempDamp} ${seed}
fix             4 all temp/csvr 470 470 0.1 ${seed}
fix             4 all temp/csvr 470 470 0.1 16182
velocity 	all create ${temperature} ${seed} dist gaussian
velocity 	all create 470 ${seed} dist gaussian
velocity 	all create 470 16182 dist gaussian

run 2000
WARNING: Fix with atom-based arrays not compatible with Kokkos sorting on device, switching to classic host sorting (src/KOKKOS/atom_kokkos.cpp:216)
Per MPI rank memory allocation (min/avg/max) = 1828 | 1828 | 1828 Mbytes
   Step         TotEng         PotEng         KinEng         Press           Temp          Volume        Density     c_max_pace_gamma
      1733  -10270.371     -10401.535      131.16415      18459.349      470            14801.138      1.4552257      0.84396846   
      1800  -10252.84      -10319.504      66.663992      18655.607      238.87683      14792.283      1.4560968      0.84396846   
      1900  -10222.708     -10307.595      84.886802      23604.877      304.17456      14765.134      1.4587742      0.84396846   
      2000  -10201.756     -10300.784      99.028045      26607.962      354.84682      14728.935      1.4623594      0.79866883   
      2100  -10187.431     -10290.113      102.6823       30784.306      367.9411       14690.837      1.4661517      0.79866883   
      2200  -10176.656     -10285.646      108.9904       29586.195      390.54489      14658.079      1.4694283      0.79866883   
      2300  -10161.886     -10277.459      115.57284      32622.87       414.13174      14631.233      1.4721245      0.79866883   
      2400  -10156.244     -10271.685      115.44036      33231.34       413.657        14612.589      1.4740027      0.79866883   
      2500  -10149.424     -10267.42       117.99589      33704.164      422.81423      14608.229      1.4744427      0.79866883   
      2600  -10141.345     -10262.734      121.38922      36430.983      434.97356      14618.608      1.4733958      0.79866883   
      2700  -10134.918     -10261.394      126.47666      31493.472      453.20334      14642.015      1.4710404      0.79866883   
      2800  -10133.598     -10261.142      127.54424      29866.568      457.02881      14674.789      1.4677551      0.79866883   
      2900  -10135.442     -10258.239      122.7973       31246.613      440.01909      14713.752      1.4638684      0.79866883   
      3000  -10134.365     -10262.367      128.00236      31504.242      458.67037      14757.341      1.4595445      0.77445866   
      3100  -10134.347     -10264.275      129.92879      31443.186      465.57335      14801.068      1.4552326      0.77445866   
      3200  -10132.928     -10259.43       126.50223      30766.278      453.29496      14840.286      1.4513869      0.77445866   
      3300  -10133.534     -10258.304      124.76961      26403.161      447.08647      14874.39       1.4480591      0.77445866   
      3400  -10132.894     -10260.519      127.62527      34536.4        457.31916      14900.233      1.4455476      0.77445866   
      3500  -10131.794     -10257.857      126.06295      29331.429      451.72089      14921.198      1.4435165      0.77445866   
      3600  -10128.648     -10257.75       129.10145      31650.421      462.60875      14937.478      1.4419434      0.77445866   
      3700  -10124.599     -10251.307      126.70743      28912.855      454.03026      14948.547      1.4408756      0.77445866   
      3733  -10127.204     -10257.414      130.21         26500.489      466.58101      14951.274      1.4406128      0.77445866   
Loop time of 11.2564 on 1 procs for 2000 steps with 2160 atoms

Performance: 7.676 ns/day, 3.127 hours/ns, 177.677 timesteps/s, 383.782 katom-step/s
99.8% CPU use with 1 MPI tasks x 1 OpenMP threads

MPI task timing breakdown:
Section |  min time  |  avg time  |  max time  |%varavg| %total
---------------------------------------------------------------
Pair    | 9.1786     | 9.1786     | 9.1786     |   0.0 | 81.54
Neigh   | 0.089243   | 0.089243   | 0.089243   |   0.0 |  0.79
Comm    | 0.096375   | 0.096375   | 0.096375   |   0.0 |  0.86
Output  | 0.0027912  | 0.0027912  | 0.0027912  |   0.0 |  0.02
Modify  | 1.8427     | 1.8427     | 1.8427     |   0.0 | 16.37
Other   |            | 0.0466     |            |       |  0.41

Nlocal:           2160 ave        2160 max        2160 min
Histogram: 1 0 0 0 0 0 0 0 0 0
Nghost:           5628 ave        5628 max        5628 min
Histogram: 1 0 0 0 0 0 0 0 0 0
Neighs:              0 ave           0 max           0 min
Histogram: 1 0 0 0 0 0 0 0 0 0
FullNghs:       360760 ave      360760 max      360760 min
Histogram: 1 0 0 0 0 0 0 0 0 0

Total # of neighbors = 360760
Ave neighs/atom = 167.01852
Neighbor list builds = 199
Dangerous builds = 196

#unfix 1
unfix 3
unfix 4

################## main calculation

dump 		3 all custom 1000 traj.lammpstrj id type element x y z
dump_modify     3 element H O


#fix             1 all plumed plumedfile plumed.start.dat outfile plumed.out
fix             3 all nph z ${pressure} ${pressure} ${pressureDamp}
fix             3 all nph z 30000 ${pressure} ${pressureDamp}
fix             3 all nph z 30000 30000 ${pressureDamp}
fix             3 all nph z 30000 30000 1
fix             4 all temp/csvr ${temperature} ${temperature} ${tempDamp} ${seed}
fix             4 all temp/csvr 470 ${temperature} ${tempDamp} ${seed}
fix             4 all temp/csvr 470 470 ${tempDamp} ${seed}
fix             4 all temp/csvr 470 470 0.1 ${seed}
fix             4 all temp/csvr 470 470 0.1 16182
velocity 	all create ${temperature} ${seed} dist gaussian
velocity 	all create 470 ${seed} dist gaussian
velocity 	all create 470 16182 dist gaussian

run             20000
WARNING: Fix with atom-based arrays not compatible with Kokkos sorting on device, switching to classic host sorting (src/KOKKOS/atom_kokkos.cpp:216)
Per MPI rank memory allocation (min/avg/max) = 1831 | 1831 | 1831 Mbytes
   Step         TotEng         PotEng         KinEng         Press           Temp          Volume        Density     c_max_pace_gamma
      3733  -10126.25      -10257.414      131.16415      26568.654      470            14951.274      1.4406128      0.77445866   
      3800  -10127.215     -10252.623      125.4077       32834.945      449.37296      14950.895      1.4406493      0.77445866   
      3900  -10123.425     -10254.078      130.6523       27300.159      468.16591      14948.999      1.4408321      0.77445866   
      4000  -10122.567     -10253.749      131.18167      29845.034      470.06281      14946.175      1.4411043      0.82477664   
      4100  -10124.725     -10251.294      126.56871      30939.33       453.53317      14942.856      1.4414243      0.82477664   
      4200  -10126.803     -10252.427      125.6237       29964.215      450.14692      14940.675      1.4416348      0.82477664   
      4300  -10121.296     -10253.745      132.4483       30062.034      474.6015       14944.762      1.4412405      0.82477664   
      4400  -10124.19      -10255.23       131.04038      30130.997      469.5565       14952.721      1.4404734      0.82477664   
      4500  -10123.714     -10253.714      130.0006       34551.232      465.83065      14958.745      1.4398933      0.82477664   
      4600  -10121.831     -10253.534      131.70291      29268.374      471.93054      14962.052      1.439575       0.82477664   
      4700  -10118.206     -10249.351      131.1452       31564.309      469.93212      14962.394      1.4395421      0.82477664   
      4800  -10119.677     -10251.699      132.02225      28728.257      473.07484      14962.711      1.4395117      0.82477664   
      4900  -10123.57      -10252.18       128.61018      27781.005      460.84837      14962.634      1.4395191      0.82477664   
      5000  -10123.328     -10252.579      129.25055      27029.336      463.14301      14961.585      1.43962        0.84121261   
      5100  -10124.353     -10254.542      130.18976      29638.754      466.50848      14957.194      1.4400426      0.84121261   
      5200  -10124.393     -10255.076      130.68342      32125.397      468.27742      14951.021      1.4406372      0.84121261   
      5300  -10126.195     -10256.074      129.87928      30326.958      465.39596      14942.69       1.4414404      0.84121261   
      5400  -10125.599     -10253.394      127.79552      29027.253      457.92921      14935.005      1.4421821      0.84121261   
      5500  -10124.862     -10252.626      127.76399      27600.687      457.81624      14929.26       1.442737       0.84121261   
      5600  -10122.124     -10251.231      129.10664      30480.246      462.62735      14928.857      1.442776       0.84121261   
      5700  -10119.742     -10248.789      129.04705      32323.693      462.41382      14932.753      1.4423995      0.84121261   
      5800  -10124.79      -10255.022      130.23145      29964.204      466.65788      14938.877      1.4418083      0.84121261   
      5900  -10128.135     -10253.801      125.66651      27262.52       450.30035      14944.776      1.4412392      0.84121261   
      6000  -10127.369     -10255.507      128.13792      30552.645      459.15615      14951.669      1.4405747      0.80949879   
      6100  -10125.281     -10254.544      129.26294      27528.401      463.1874       14953.937      1.4403563      0.80949879   
      6200  -10123.263     -10250.133      126.86952      34160.662      454.61107      14953.302      1.4404174      0.80949879   
      6300  -10122.647     -10251.51       128.86246      29253.295      461.75236      14953.768      1.4403725      0.80949879   
      6400  -10124.486     -10252.829      128.34372      32386.723      459.89356      14957.747      1.4399893      0.80949879   
      6500  -10116.351     -10248.849      132.49753      33009.253      474.77792      14967.087      1.4390907      0.80949879   
      6600  -10116.434     -10249.499      133.06521      32149.261      476.81208      14984.884      1.4373816      0.80949879   
      6700  -10115.557     -10247.831      132.27416      34130.394      473.97752      15003.854      1.4355643      0.80949879   
      6800  -10116.773     -10247.017      130.24437      33926.292      466.70418      15023.804      1.433658       0.80949879   
      6900  -10119.574     -10253.004      133.4303       30744.557      478.1203       15046.418      1.4315033      0.80949879   
      7000  -10121.693     -10250.289      128.59565      28632.777      460.79633      15066.716      1.4295747      0.80359912   
      7100  -10123.633     -10252.322      128.68957      28738.09       461.13285      15079.228      1.4283885      0.80359912   
      7200  -10122.176     -10251.524      129.34786      31888.597      463.4917       15084.356      1.427903       0.80359912   
      7300  -10119.745     -10250.249      130.50336      32182.08       467.63219      15085.219      1.4278212      0.80359912   
      7400  -10121.11      -10249.436      128.32556      28353.319      459.82852      15081.452      1.4281779      0.80359912   
      7500  -10123.531     -10250.313      126.78224      28327.88       454.29834      15075.629      1.4287296      0.80359912   
      7600  -10123.169     -10254.365      131.19563      30987.552      470.11282      15067.269      1.4295223      0.80359912   
      7700  -10121.075     -10250.255      129.17956      25625.759      462.88862      15054.231      1.4307603      0.80359912   
      7800  -10119.655     -10251.625      131.9707       31157.412      472.89012      15034.984      1.4325919      0.80359912   
      7900  -10122.452     -10253.381      130.92885      26915.19       469.15684      15012.336      1.4347532      0.80359912   
      8000  -10119.688     -10251.143      131.45456      29821.284      471.04062      14990.464      1.4368466      0.96549517   
      8100  -10119.75      -10250.068      130.31813      28525.214      466.96848      14969.351      1.4388731      0.96549517   
      8200  -10118.01      -10251.679      133.66937      30229.33       478.97696      14951.816      1.4405606      0.96549517   
      8300  -10120.915     -10252.801      131.88609      28720.085      472.58692      14941.574      1.441548       0.96549517   
      8400  -10120.063     -10250.764      130.70167      30918.176      468.34281      14939.762      1.4417229      0.96549517   
      8500  -10123.879     -10250.922      127.0424       30389.363      455.23055      14945.411      1.441178       0.96549517   
      8600  -10123.299     -10256.656      133.35728      32378.098      477.85865      14958.655      1.439902       0.96549517   
      8700  -10121.522     -10253.198      131.67591      32994.136      471.83378      14978.113      1.4380314      0.96549517   
      8800  -10127.107     -10255.23       128.12309      32862.916      459.10301      15003.184      1.4356283      0.96549517   
      8900  -10123.517     -10253.582      130.06515      29038.856      466.06197      15032.236      1.4328538      0.96549517   
      9000  -10123.529     -10250.29       126.76022      32058.55       454.21941      15059.344      1.4302745      0.79425145   
      9100  -10122.521     -10247.871      125.34966      30900.869      449.16497      15083.286      1.4280042      0.79425145   
      9200  -10121.429     -10249.956      128.52766      31222.29       460.5527       15097.177      1.4266903      0.79425145   
      9300  -10123.236     -10252.861      129.62483      30634.396      464.48416      15103.919      1.4260535      0.79425145   
      9400  -10123.627     -10252.808      129.18084      27460.453      462.89323      15103.511      1.4260921      0.79425145   
      9500  -10123.658     -10252.331      128.67298      28326.172      461.07342      15096.774      1.4267284      0.79425145   
      9600  -10123.026     -10252.839      129.81229      32469.13       465.15588      15082.646      1.4280649      0.79425145   
      9700  -10121.257     -10251.172      129.91476      34036.154      465.52306      15060.554      1.4301596      0.79425145   
      9800  -10124.746     -10255.502      130.75598      30409.613      468.53741      15037.304      1.4323709      0.79425145   
      9900  -10123.272     -10254.274      131.00173      30656.842      469.41803      15014.503      1.434546       0.79425145   
     10000  -10123.37      -10254.922      131.55255      29167.779      471.39177      14997.574      1.4361654      0.75943246   
     10100  -10126.616     -10253.139      126.52243      29300.245      453.36735      14984.962      1.4373741      0.75943246   
     10200  -10125.96      -10253.721      127.76025      31807.528      457.80284      14977.71       1.4380701      0.75943246   
     10300  -10123.201     -10252.072      128.87111      34831.339      461.78338      14976.844      1.4381532      0.75943246   
     10400  -10127.467     -10254.957      127.49017      29967.771      456.83505      14985.125      1.4373585      0.75943246   
     10500  -10125.862     -10252.361      126.49836      30219.518      453.28111      14998.326      1.4360934      0.75943246   
     10600  -10125.16      -10253.006      127.84556      26920.102      458.10851      15010.939      1.4348867      0.75943246   
     10700  -10123.397     -10253.988      130.59084      29337.972      467.94568      15019.081      1.4341088      0.75943246   
     10800  -10120.698     -10249.963      129.26509      26941.791      463.1951       15024.821      1.4335609      0.75943246   
     10900  -10120.455     -10249.208      128.75279      31902.972      461.35941      15029.039      1.4331586      0.75943246   
     11000  -10120.405     -10249.177      128.77204      29627.392      461.42837      15037.086      1.4323916      0.75126796   
     11100  -10122.52      -10249.276      126.75597      28673.989      454.20418      15047.622      1.4313887      0.75126796   
     11200  -10122.268     -10249.173      126.90458      31829.613      454.7367       15057.091      1.4304886      0.75126796   
     11300  -10120.325     -10250.636      130.31146      30416.223      466.94455      15067.028      1.4295451      0.75126796   
     11400  -10118.169     -10251.041      132.87242      29444.761      476.12126      15077.853      1.4285188      0.75126796   
     11500  -10118.063     -10247.761      129.69817      29608.824      464.74697      15084.22       1.4279159      0.75126796   
     11600  -10119.197     -10249.644      130.44722      33349.785      467.43104      15088.622      1.4274993      0.75126796   
     11700  -10123.37      -10250.949      127.57865      28533.128      457.1521       15094.678      1.4269265      0.75126796   
     11800  -10121.943     -10250.953      129.01019      29664.358      462.28174      15101.225      1.4263079      0.75126796   
     11900  -10120.336     -10245.791      125.45493      30733.599      449.54218      15108.378      1.4256326      0.75126796   
     12000  -10119.532     -10247.449      127.91648      27723.392      458.36264      15116.962      1.4248231      0.78930382   
     12100  -10121.132     -10250.795      129.66327      31709.449      464.6219       15128.41       1.4237449      0.78930382   
     12200  -10118.19      -10250.28       132.09062      32631.609      473.31984      15143.474      1.4223287      0.78930382   
     12300  -10118.488     -10250.921      132.43245      32055.441      474.5447       15157.599      1.4210032      0.78930382   
     12400  -10118.706     -10250.909      132.20267      30573.404      473.72134      15171.313      1.4197186      0.78930382   
     12500  -10121.603     -10247.308      125.70507      29987.995      450.4385       15183.88       1.4185437      0.78930382   
     12600  -10124.008     -10250.774      126.76639      28440.031      454.24153      15190.464      1.4179288      0.78930382   
     12700  -10123.838     -10250.509      126.6707       30709.76       453.89866      15191.227      1.4178576      0.78930382   
     12800  -10120.226     -10250.098      129.87216      32234.961      465.37043      15189.483      1.4180204      0.78930382   
     12900  -10125.574     -10251.835      126.26095      33684.068      452.43041      15183.601      1.4185697      0.78930382   
     13000  -10125.394     -10251.119      125.72454      30579.66       450.50829      15170.193      1.4198235      0.79040002   
     13100  -10123.467     -10252.444      128.97629      29078.722      462.16026      15150.97       1.4216249      0.79040002   
     13200  -10123.174     -10253.823      130.64895      30275.452      468.15389      15130.162      1.42358        0.79040002   
     13300  -10119.496     -10248.755      129.25873      32843.794      463.17233      15107.395      1.4257253      0.79040002   
     13400  -10117.983     -10250.303      132.32044      31745.619      474.14335      15082.753      1.4280547      0.79040002   
     13500  -10118.315     -10245.676      127.36032      32628.158      456.36975      15064.54       1.4297812      0.79040002   
     13600  -10117.231     -10247.569      130.33739      32199.016      467.03748      15056.444      1.43055        0.79040002   
     13700  -10123.134     -10251.175      128.04126      32233.287      458.80976      15056.196      1.4305736      0.79040002   
     13800  -10121.549     -10248.587      127.03803      30036.59       455.2149       15064.138      1.4298194      0.79040002   
     13900  -10117.239     -10246.301      129.06254      31319.794      462.46933      15079.452      1.4283674      0.79040002   
     14000  -10118.99      -10248.104      129.11334      30162.244      462.65136      15101.047      1.4263247      0.78289058   
     14100  -10115.769     -10243.575      127.80602      30093.832      457.96683      15129.059      1.4236838      0.78289058   
     14200  -10116.177     -10243.113      126.93528      30785.399      454.84672      15164.629      1.4203444      0.78289058   
     14300  -10112.253     -10245.345      133.09209      30566.072      476.9084       15205.247      1.4165502      0.78289058   
     14400  -10113.766     -10246.784      133.01764      26824.038      476.64161      15248          1.4125785      0.78289058   
     14500  -10112.177     -10244.346      132.16883      31298.068      473.60009      15287.959      1.4088863      0.78289058   
     14600  -10115.908     -10247.945      132.03797      23940.987      473.13118      15326.807      1.4053153      0.78289058   
     14700  -10121.457     -10251.133      129.67663      27309.963      464.66979      15357.795      1.4024797      0.78289058   
     14800  -10119.454     -10252.177      132.72273      28860.037      475.58486      15374.227      1.4009807      0.78289058   
     14900  -10116.83      -10249.45       132.61992      24913.39       475.21648      15373.062      1.4010869      0.78289058   
     15000  -10116.277     -10247.538      131.26126      28297.582      470.34799      15358.041      1.4024573      0.76887303   
     15100  -10116.221     -10246.527      130.3064       28587.24       466.92645      15331.785      1.404859       0.76887303   
     15200  -10114.874     -10248.075      133.20083      30717.697      477.29803      15297.814      1.4079787      0.76887303   
     15300  -10116.927     -10246.757      129.83009      30663.753      465.21967      15260.709      1.4114021      0.76887303   
     15400  -10117.241     -10247.777      130.53656      28771.435      467.75118      15222.16       1.4149764      0.76887303   
     15500  -10117.706     -10244.34       126.63426      32326.688      453.76806      15183.273      1.4186004      0.76887303   
     15600  -10117.296     -10247.266      129.97035      34477.053      465.72228      15145.778      1.4221123      0.76887303   
     15700  -10115.663     -10246.793      131.12951      30704.001      469.87588      15111.482      1.4253398      0.76887303   
     15800  -10116.643     -10249.268      132.62504      33332.453      475.23483      15083.049      1.4280267      0.76887303   
     15900  -10115.872     -10246.732      130.85974      28397.246      468.90923      15061.527      1.4300672      0.76887303   
     16000  -10116.961     -10251.816      134.85525      30950.613      483.2263       15048.525      1.4313028      0.9008007    
     16100  -10118.854     -10249.248      130.39362      29436.908      467.23896      15041.254      1.4319947      0.9008007    
     16200  -10121.34      -10247.409      126.06921      29168.666      451.74334      15038.217      1.4322839      0.9008007    
     16300  -10123.972     -10252.37       128.39822      29262.194      460.08886      15039.791      1.4321341      0.9008007    
     16400  -10120.642     -10253.86       133.21739      31226.611      477.35737      15047.626      1.4313884      0.9008007    
     16500  -10121.335     -10251.364      130.02954      32169.043      465.93437      15058.611      1.4303441      0.9008007    
     16600  -10122.68      -10251.641      128.96025      30231.012      462.10279      15071.829      1.4290898      0.9008007    
     16700  -10123.367     -10252.69       129.32327      29071.473      463.40358      15086.549      1.4276954      0.9008007    
     16800  -10123.983     -10253.799      129.81621      28715.018      465.16996      15103.304      1.4261116      0.9008007    
     16900  -10126.581     -10253.051      126.47         28706.981      453.17947      15117.964      1.4247286      0.9008007    
     17000  -10124.109     -10251.931      127.82206      28532.949      458.02432      15131.871      1.4234192      0.79796293   
     17100  -10122.466     -10250.642      128.17602      30618.992      459.29265      15145.775      1.4221125      0.79796293   
     17200  -10122.553     -10249.805      127.25166      28862.036      455.98038      15153.99       1.4213416      0.79796293   
     17300  -10120.404     -10251.189      130.78416      31423.13       468.63838      15158.534      1.4209155      0.79796293   
     17400  -10122.645     -10249.411      126.76628      29451.596      454.24112      15164.268      1.4203783      0.79796293   
     17500  -10124.129     -10248.351      124.22251      32407.147      445.12604      15170.09       1.4198331      0.79796293   
     17600  -10123.843     -10251.68       127.83703      27291.886      458.07795      15175          1.4193737      0.79796293   
     17700  -10120.93      -10250.237      129.30664      30779.283      463.34401      15176.055      1.4192751      0.79796293   
     17800  -10121.883     -10248.865      126.98237      31053.15       455.01546      15174.928      1.4193805      0.79796293   
     17900  -10123.815     -10250.261      126.44581      29934.446      453.09281      15170.166      1.4198261      0.79796293   
     18000  -10123.546     -10251.139      127.59306      31306.179      457.20375      15161.196      1.4206661      0.84646522   
     18100  -10121.69      -10248.233      126.5428       24596.15       453.44035      15150.847      1.4216364      0.84646522   
     18200  -10120.23      -10249.805      129.57523      29113.816      464.30643      15137.356      1.4229035      0.84646522   
     18300  -10120.753     -10250.182      129.42888      26387.969      463.78201      15124.254      1.4241362      0.84646522   
     18400  -10114.665     -10247.388      132.72244      30827.632      475.58381      15107.639      1.4257024      0.84646522   
     18500  -10117.408     -10248.478      131.07068      27087.928      469.6651       15090.744      1.4272985      0.84646522   
     18600  -10116.306     -10248.034      131.72837      28393.611      472.02177      15077.56       1.4285465      0.84646522   
     18700  -10118.42      -10248.734      130.31427      30085.639      466.95464      15067.805      1.4294714      0.84646522   
     18800  -10116.794     -10245.515      128.72128      33842.368      461.24648      15064.973      1.4297401      0.84646522   
     18900  -10118.334     -10246.022      127.6882       32377.23       457.54465      15069.976      1.4292655      0.84646522   
     19000  -10116.425     -10246.929      130.50336      27963.997      467.63222      15084.845      1.4278567      0.79260552   
     19100  -10115.663     -10248.205      132.54178      31251.255      474.93647      15102.317      1.4262047      0.79260552   
     19200  -10114.084     -10244.261      130.17712      30799.318      466.46319      15121.347      1.4244099      0.79260552   
     19300  -10111.646     -10246.186      134.5395       29856.581      482.09489      15140.413      1.4226162      0.79260552   
     19400  -10112.745     -10242.316      129.57056      31263.398      464.28969      15159.646      1.4208113      0.79260552   
     19500  -10110.875     -10245.125      134.24986      27902.071      481.05704      15183.609      1.4185689      0.79260552   
     19600  -10114.801     -10247.174      132.37316      32363.088      474.33225      15208.088      1.4162856      0.79260552   
     19700  -10113.45      -10246.558      133.10764      28984.59       476.96411      15231.745      1.414086       0.79260552   
     19800  -10108.078     -10242.717      134.63906      29785.596      482.45166      15253.766      1.4120445      0.79260552   
     19900  -10107.791     -10241.63       133.83827      31127.999      479.58218      15277.352      1.4098645      0.79260552   
     20000  -10109.267     -10244.774      135.50682      28575.154      485.56108      15302.594      1.4075389      0.8914498    
     20100  -10111.97      -10243.353      131.38286      28513.108      470.7837       15322.975      1.4056667      0.8914498    
     20200  -10113.374     -10243.004      129.63005      30573.743      464.50287      15337.087      1.4043734      0.8914498    
     20300  -10112.854     -10242.95       130.09631      29672.46       466.17363      15346.646      1.4034986      0.8914498    
     20400  -10114.902     -10244.152      129.25072      26901.442      463.14364      15354.03       1.4028236      0.8914498    
     20500  -10113.887     -10243.06       129.1726       27168.196      462.8637       15353.703      1.4028535      0.8914498    
     20600  -10113.685     -10242.584      128.89901      26371.956      461.88333      15347.337      1.4034354      0.8914498    
     20700  -10114.935     -10244.859      129.92362      31221.669      465.55481      15338.21       1.4042705      0.8914498    
     20800  -10114.265     -10246.866      132.60019      26157.45       475.14578      15324.401      1.4055359      0.8914498    
     20900  -10116.953     -10246.206      129.25281      28966.38       463.15112      15305.311      1.407289       0.8914498    
     21000  -10116.04      -10247.57       131.53041      27849.283      471.31243      15279.014      1.4097112      0.80319139   
     21100  -10112.286     -10244.115      131.82933      27751.696      472.38353      15249.387      1.41245        0.80319139   
     21200  -10110.711     -10243.955      133.24398      30896.248      477.45265      15221.947      1.4149961      0.80319139   
     21300  -10109.965     -10240.869      130.90395      33666.606      469.06764      15201.735      1.4168775      0.80319139   
     21400  -10107.292     -10237.287      129.9955       32707.021      465.81238      15186.779      1.4182729      0.80319139   
     21500  -10107.593     -10240.831      133.23797      31095.821      477.43113      15181.054      1.4188077      0.80319139   
     21600  -10112.012     -10244.101      132.08849      30531.417      473.31219      15183.767      1.4185542      0.80319139   
     21700  -10110.893     -10242.072      131.17896      31920.343      470.05308      15193.261      1.4176678      0.80319139   
     21800  -10112.51      -10243.782      131.27154      30566.938      470.38482      15208.023      1.4162917      0.80319139   
     21900  -10111.018     -10244.329      133.3111       29180.108      477.69317      15229.162      1.4143258      0.80319139   
     22000  -10112.108     -10239.481      127.37221      31241.621      456.41237      15255.182      1.4119134      0.75478109   
     22100  -10115.771     -10247.035      131.26322      32498.253      470.35501      15279.492      1.4096671      0.75478109   
     22200  -10116.159     -10244.765      128.60566      28355.931      460.8322       15299.421      1.4078308      0.75478109   
     22300  -10116.636     -10245.424      128.78848      27280.062      461.48728      15315.781      1.406327       0.75478109   
     22400  -10117.053     -10246.982      129.92883      27143.446      465.5735       15327.776      1.4052265      0.75478109   
     22500  -10120.04      -10245.193      125.15376      30210.839      448.46301      15338.768      1.4042195      0.75478109   
     22600  -10118.342     -10244.393      126.05124      30411.648      451.67894      15350.926      1.4031073      0.75478109   
     22700  -10120.214     -10244.081      123.86719      29443.549      443.85285      15365.606      1.4017668      0.75478109   
     22800  -10118.529     -10243.406      124.87636      30378.541      447.46899      15380.214      1.4004355      0.75478109   
     22900  -10116.363     -10245.007      128.64374      29419.643      460.96863      15393.541      1.399223       0.75478109   
     23000  -10116.643     -10244.268      127.62522      29575.091      457.31898      15405.145      1.3981691      0.73775795   
     23100  -10115.327     -10245.962      130.63531      28709.369      468.10503      15408.701      1.3978463      0.73775795   
     23200  -10113.605     -10243.521      129.9154       27782.213      465.52537      15398.995      1.3987274      0.73775795   
     23300  -10110.944     -10241.821      130.87699      32265.321      468.97104      15384.502      1.4000451      0.73775795   
     23400  -10111.832     -10239.948      128.11597      28110.517      459.07749      15367.546      1.4015899      0.73775795   
     23500  -10110.935     -10242.62       131.68488      30413.734      471.86596      15354.119      1.4028155      0.73775795   
     23600  -10110.74      -10241.668      130.92786      28235.574      469.1533       15341.944      1.4039287      0.73775795   
     23700  -10115.307     -10245.751      130.44414      30274.482      467.42         15333.709      1.4046827      0.73775795   
     23733  -10115.562     -10245.383      129.82103      28005.973      465.18721      15331.692      1.4048676      0.73775795   
Loop time of 111.948 on 1 procs for 20000 steps with 2160 atoms

Performance: 7.718 ns/day, 3.110 hours/ns, 178.654 timesteps/s, 385.893 katom-step/s
99.8% CPU use with 1 MPI tasks x 1 OpenMP threads

MPI task timing breakdown:
Section |  min time  |  avg time  |  max time  |%varavg| %total
---------------------------------------------------------------
Pair    | 91.314     | 91.314     | 91.314     |   0.0 | 81.57
Neigh   | 0.89219    | 0.89219    | 0.89219    |   0.0 |  0.80
Comm    | 0.95269    | 0.95269    | 0.95269    |   0.0 |  0.85
Output  | 0.072769   | 0.072769   | 0.072769   |   0.0 |  0.07
Modify  | 18.258     | 18.258     | 18.258     |   0.0 | 16.31
Other   |            | 0.4581     |            |       |  0.41

Nlocal:           2160 ave        2160 max        2160 min
Histogram: 1 0 0 0 0 0 0 0 0 0
Nghost:           5623 ave        5623 max        5623 min
Histogram: 1 0 0 0 0 0 0 0 0 0
Neighs:              0 ave           0 max           0 min
Histogram: 1 0 0 0 0 0 0 0 0 0
FullNghs:       351934 ave      351934 max      351934 min
Histogram: 1 0 0 0 0 0 0 0 0 0

Total # of neighbors = 351934
Ave neighs/atom = 162.93241
Neighbor list builds = 2000
Dangerous builds = 2000

#unfix		1
unfix		3
unfix		4
Total wall time: 0:02:21
