ITEM: TIMESTEP
4000
ITEM: NUMBER OF ATOMS
2160
ITEM: BOX BOUNDS pp pp pp
0.0000000000000000e+00 2.0240564857722511e+01
0.0000000000000000e+00 2.0335494929953892e+01
-1.7618548302403461e-01 3.6136023898224089e+01
ITEM: ATOMS id type element x y z
1303 1 H 1.74224 1.9437 2.22603
2092 2 O 2.2911 1.81871 1.43043
1304 1 H 2.11642 0.90246 1.09412
20 1 H 1.12504 2.73955 0.462554
6 1 H 4.56725 0.839472 0.509102
1443 2 O 5.20337 0.20609 0.905798
485 1 H 5.60508 2.23537 1.86284
646 1 H 5.96816 3.67845 1.6858
1763 2 O 6.18384 2.79931 1.26051
35 1 H 3.68349 1.54315 3.29027
1706 2 O 8.1904 2.12094 35.8544
979 1 H 7.89885 1.54989 0.25762
666 1 H 8.32201 3.48111 0.729448
483 1 H 6.93348 2.92151 3.38384
1746 2 O 7.60988 3.27056 3.97159
514 1 H 7.45502 0.344744 2.62469
801 1 H 6.73681 0.249555 1.29011
1150 1 H 10.1808 3.26504 2.28278
1147 1 H 11.1231 2.2386 1.63442
689 1 H 13.1098 2.62625 0.119618
2014 2 O 11.1209 2.92149 2.33874
1432 1 H 10.4025 0.211492 2.08083
2156 2 O 10.6213 0.534052 1.17175
499 1 H 13.3495 1.09133 2.79828
658 1 H 14.3575 2.82632 0.925299
1705 2 O 13.5113 2.43247 0.965418
195 1 H 14.3676 0.540592 0.766977
494 1 H 16.0706 2.5281 3.15198
164 1 H 15.6939 19.9463 0.597311
1294 1 H 20.039 19.6396 1.52744
2087 2 O 19.6358 19.972 0.619489
1440 1 H 16.532 1.68489 -0.110746
1752 2 O 18.6662 3.4005 1.40849
624 1 H 18.627 2.51703 1.01825
1293 1 H 18.9712 0.376829 0.877868
2160 2 O 17.1576 0.938935 0.0845039
32 1 H 3.51875 4.90822 0.142423
16 1 H 20.2387 5.35885 2.62289
1456 2 O 3.54043 4.26333 35.7393
1756 2 O 0.277506 5.3132 0.660074
631 1 H 1.22986 5.57407 0.64354
31 1 H 4.20103 4.53361 35.1142
54 1 H 3.79059 4.10154 2.90379
12 1 H 6.27414 5.39631 1.28336
1446 2 O 6.08455 5.55443 2.30737
1773 2 O 8.8113 3.97847 1.47634
665 1 H 8.20833 4.04971 2.17651
11 1 H 6.9189 5.72013 2.77888
2072 2 O 9.84891 6.5504 2.2318
1263 1 H 10.1481 6.0206 3.06668
1264 1 H 10.4427 6.21767 1.5451
163 1 H 11.4763 4.32566 1.41931
653 1 H 13.2416 5.45362 0.910107
1586 2 O 11.8072 4.99253 0.728909
292 1 H 11.5996 4.43242 -0.141304
1306 1 H 15.9777 3.8261 0.741767
1684 2 O 16.0865 4.2059 2.68744
7 1 H 15.1992 4.65797 2.62678
8 1 H 16.7258 4.82722 2.21622
1767 2 O 14.2632 5.81811 1.11003
654 1 H 14.7189 5.91803 0.278832
15 1 H 1.10831 6.17288 2.99615
1770 2 O 17.557 6.32218 1.90695
623 1 H 19.4076 4.00377 1.11311
660 1 H 18.5162 6.13057 1.71322
1266 1 H 3.1547 6.87914 0.088814
1929 2 O 2.98674 6.46762 0.991872
1137 1 H 2.39505 6.99593 1.46228
42 1 H 0.809195 8.40864 3.54718
1461 2 O 0.967134 8.31392 2.49904
797 1 H 5.99353 8.14375 3.28492
798 1 H 5.14544 7.37575 2.41479
664 1 H 6.63701 8.14419 1.05189
1772 2 O 5.90733 8.16472 0.438273
663 1 H 5.64919 9.15974 0.354412
17 1 H 5.03335 9.53756 3.40605
347 1 H 8.65211 7.63397 2.40504
348 1 H 7.97094 8.98341 2.63105
1614 2 O 7.80436 8.06473 2.3101
1536 2 O 8.18219 10.263 36.0951
681 1 H 11.0204 9.1749 2.77949
682 1 H 11.7298 10.362 2.04514
1781 2 O 10.8607 9.77267 1.9907
1138 1 H 12.549 8.4712 1.83605
616 1 H 10.5177 8.58167 0.416741
1169 1 H 13.3082 7.43063 0.94239
1945 2 O 13.2866 8.38928 1.27421
970 1 H 16.8112 7.89165 0.352728
643 1 H 17.5008 7.15503 2.38979
316 1 H 19.5057 10.0892 1.87938
969 1 H 17.3992 9.49079 0.731418
1925 2 O 16.7687 8.88584 0.286784
315 1 H -0.163814 10.1331 0.423679
779 1 H 17.1894 9.36539 3.3342
1830 2 O 18.1057 9.06062 3.23527
337 1 H 2.80077 11.5631 1.66388
1529 2 O 2.87825 10.6595 1.32432
466 1 H 2.17312 10.1595 1.88287
1421 1 H 19.6228 13.819 0.64865
146 1 H 4.6989 10.7915 2.47561
1609 2 O 4.96613 10.5628 3.47057
338 1 H 6.52044 12.177 1.64043
341 1 H 5.01457 13.3284 2.36193
1691 2 O 4.00997 13.2908 2.45064
369 1 H 7.51443 13.2386 1.7588
1545 2 O 7.01243 12.6278 2.39575
1128 1 H 9.52763 10.3756 2.68822
1127 1 H 8.46573 10.9778 3.83154
192 1 H 8.53785 10.3794 0.676104
849 1 H 9.47269 12.811 35.8635
1785 2 O 10.3946 12.6379 35.8741
2096 2 O 9.6504 13.4403 3.34089
1524 2 O 8.77098 10.218 3.25228
818 1 H 10.5903 12.4549 0.522664
2008 2 O 12.6575 12.0014 1.96585
1135 1 H 12.6495 12.1033 2.89701
1155 1 H 14.4762 9.7595 2.58325
501 1 H 15.6571 11.5137 1.12355
1136 1 H 13.5634 11.7559 1.60307
982 1 H 15.3783 10.2735 0.372458
2011 2 O 14.9536 11.0593 0.71031
1149 1 H 15.0556 12.8555 2.95855
1598 2 O 19.4573 10.4708 0.993088
1132 1 H 19.7309 12.2516 0.996665
2151 2 O 0.00989369 13.0309 0.678746
188 1 H 17.6039 12.3413 2.64665
1534 2 O 17.0782 12.6914 1.85182
822 1 H 3.52997 13.828 1.814
457 1 H 2.72834 15.9367 2.51412
1605 2 O 2.39894 14.0842 0.78968
1760 2 O 0.372372 16.554 2.54824
330 1 H 1.68785 13.3412 0.82154
329 1 H 2.30695 14.4802 -0.129715
1669 2 O 3.29235 16.5464 2.98962
458 1 H 4.16787 16.1299 2.92573
827 1 H 6.70086 16.5888 2.17718
1917 2 O 5.54028 14.6899 0.392034
952 1 H 6.11173 15.1796 2.17937
1854 2 O 6.12709 15.977 2.77608
953 1 H 5.02236 15.4461 -0.055518
1311 1 H 8.80001 13.1309 3.70934
1121 1 H 8.28025 15.8796 1.6815
1314 1 H 9.65954 15.7284 1.28548
1761 2 O 8.8633 15.1546 1.46746
1295 1 H 9.33144 13.9617 2.55698
816 1 H 12.508 14.403 1.90611
669 1 H 12.2137 14.2585 0.365547
1848 2 O 11.8224 14.6394 1.24462
826 1 H 12.8279 16.0474 1.10936
1853 2 O 13.144 16.9554 1.36801
1125 1 H 14.2491 13.5074 0.924305
1435 1 H 15.2957 14.7091 1.2513
2083 2 O 14.641 14.055 1.63008
1415 1 H 16.4776 15.6461 -0.194145
807 1 H 16.2506 16.5575 3.27572
1668 2 O 17.1604 14.9125 -0.0490677
825 1 H 13.8468 17.1007 0.69425
2084 2 O 16.0461 15.7597 2.77896
187 1 H 17.4639 13.5921 1.82663
640 1 H 0.0366168 16.2848 1.72266
135 1 H 18.9783 16.1192 36.1081
947 1 H 0.00996826 16.6301 35.9167
1912 2 O 19.8722 15.757 -0.130227
322 1 H 3.35382 18.7036 0.654522
2065 2 O 2.56184 19.3876 0.650926
289 1 H 2.15485 19.2915 1.54551
1608 2 O 0.825118 19.1908 2.74696
1447 2 O 4.29495 17.1282 36.0991
325 1 H 4.58574 19.973 1.39689
14 1 H 5.03717 17.566 0.257035
613 1 H 3.6244 18.3112 2.7129
1827 2 O 4.17157 19.1188 2.81284
1842 2 O 7.34284 17.7107 0.954003
1775 2 O 9.41644 17.3682 3.24064
804 1 H 8.08049 17.8254 0.332507
835 1 H 7.18326 18.6037 1.31528
829 1 H 10.201 17.9776 3.1581
1601 2 O 7.6572 0.0765401 1.67926
2158 2 O 10.2708 17.3753 36.0454
1436 1 H 10.563 16.5353 35.5753
1286 1 H 11.0598 17.7434 0.180913
507 1 H 12.3875 17.942 2.30203
508 1 H 12.3653 19.3185 2.97329
1694 2 O 11.9541 18.4474 2.99631
988 1 H 13.4456 19.2984 -0.0782924
976 1 H 16.0103 19.3185 3.07546
1522 2 O 14.7238 19.9939 0.743953
1745 2 O 15.0298 16.8508 36.1026
1122 1 H 15.6396 17.532 -0.112231
2 1 H 17.606 17.7004 1.48071
449 1 H 18.4157 18.5298 0.588774
2145 2 O 17.6405 17.935 0.571317
2007 2 O 3.1694 2.93997 5.99952
19 1 H 0.0387055 0.650498 4.86142
147 1 H 1.73274 2.12584 4.30071
1930 2 O 1.00927 2.07351 3.64334
1442 2 O 4.4324 1.98932 3.5882
1133 1 H 3.91336 2.36037 5.86271
1692 2 O 5.92733 2.4922 6.22958
4 1 H 4.92177 1.24923 4.03389
1849 2 O 6.69559 0.234823 4.44243
379 1 H 5.20676 20.234 5.23057
626 1 H 7.09481 1.02313 4.7311
831 1 H 9.45965 1.47178 4.10047
1856 2 O 9.78931 0.656321 3.77884
1696 2 O 10.0868 2.83406 5.60072
832 1 H 9.78327 0.00162899 4.48007
1310 1 H 9.16266 1.30531 6.4381
503 1 H 6.89849 2.30951 6.29274
52 1 H 12.2308 1.27947 3.83318
1466 2 O 12.9413 0.687381 3.62185
1759 2 O 13.6904 2.54132 6.08159
321 1 H 13.5918 20.3267 5.17893
1862 2 O 10.4226 19.4193 6.21071
493 1 H 15.8781 1.64108 4.46331
1687 2 O 15.8166 1.57441 3.47902
1922 2 O 17.0354 2.30906 5.95073
995 1 H 17.416 1.72293 6.64086
1104 1 H 17.1906 0.756229 3.38411
1992 2 O 18.1556 0.611653 3.00794
964 1 H 17.8595 2.72104 5.49955
1103 1 H 18.9629 0.797978 3.59424
1946 2 O 19.4772 0.794596 5.34661
980 1 H 0.484913 2.87599 3.96011
194 1 H 19.7604 3.03197 6.46378
1448 2 O 0.474469 5.54555 3.44302
1013 1 H 3.55878 5.59486 2.91781
1178 1 H 1.03697 6.40072 5.86343
1177 1 H 1.47821 4.97319 5.17723
2029 2 O 1.45135 5.48478 6.0265
21 1 H 3.34582 6.63277 5.42419
504 1 H 5.83183 3.33706 5.77818
1547 2 O 3.68452 4.81735 3.51402
481 1 H 4.80765 5.10654 4.79249
1441 2 O 5.42587 4.98541 5.58818
674 1 H 6.01829 5.71832 5.40999
612 1 H 7.24439 4.10892 4.41425
1505 2 O 9.75121 6.44405 6.30229
652 1 H 13.5747 3.03692 4.32525
647 1 H 10.6144 4.34587 4.41175
609 1 H 10.4215 6.0457 5.78806
648 1 H 12.0592 4.77676 3.96229
1764 2 O 13.0779 5.85211 5.96183
2004 2 O 11.176 5.14979 4.28042
651 1 H 13.2939 3.45406 2.78114
1766 2 O 13.3121 3.74063 3.72334
168 1 H 12.5282 6.36193 5.384
973 1 H 16.1138 4.11881 5.21432
974 1 H 15.4944 5.52909 5.05397
1927 2 O 15.7475 4.95748 5.76015
1139 1 H 18.9735 3.13182 3.64335
692 1 H 18.7071 4.48681 4.35376
1786 2 O 18.8397 3.51807 4.52905
523 1 H 18.8953 6.32366 4.34438
1000 1 H 17.1978 5.26156 6.87709
524 1 H 18.2881 6.47105 5.79431
41 1 H 0.140982 8.02692 2.13682
10 1 H 0.638953 8.93021 5.90668
1771 2 O 3.74252 7.50237 5.48907
23 1 H 3.03382 9.60322 5.8413
1445 2 O 0.219924 8.53873 5.07464
1839 2 O 5.06768 7.87054 3.26383
502 1 H 4.22665 7.61258 4.62557
1531 2 O 6.41022 9.30711 5.71264
522 1 H 8.6538 6.97612 5.19637
1701 2 O 7.65822 6.93523 4.97997
521 1 H 7.64505 7.39889 4.14629
981 1 H 7.01263 8.60483 5.50323
1688 2 O 9.73599 9.66843 6.0332
698 1 H 9.32361 9.50033 5.11473
645 1 H 11.2202 8.4469 4.62392
806 1 H 12.6597 8.89883 4.37823
1843 2 O 11.9412 8.35394 3.97845
2030 2 O 13.3567 9.0558 6.18742
1162 1 H 14.1676 7.07019 4.37552
1143 1 H 14.8757 8.67888 3.53947
2021 2 O 14.9749 6.98884 3.90639
1161 1 H 14.7976 6.75128 2.94831
1180 1 H 14.153 8.43111 6.65336
1702 2 O 18.105 6.48172 4.8561
1300 1 H 17.511 9.37983 6.22716
1290 1 H 18.1982 8.63741 4.13229
9 1 H 19.6747 8.35328 5.6173
27 1 H 1.04818 12.5335 3.9489
28 1 H 1.58583 11.1516 4.48025
219 1 H 3.13121 13.5283 5.84865
1454 2 O 0.944105 11.5363 3.83915
1452 2 O 2.88328 10.5637 5.52306
354 1 H 0.403495 10.5885 6.6836
349 1 H 3.82921 13.9208 3.93236
24 1 H 3.40375 10.4558 4.73921
350 1 H 4.76298 13.494 5.15216
1615 2 O 4.01898 14.1745 4.88899
212 1 H 5.93258 11.8088 4.68817
1546 2 O 6.04171 12.456 5.45429
659 1 H 6.79363 13.0502 5.3409
700 1 H 8.55147 13.7024 6.39636
1790 2 O 9.25532 13.049 6.12964
1308 1 H 10.3437 10.3894 6.04982
1144 1 H 11.5831 12.0135 5.33678
661 1 H 10.7912 12.0057 4.14329
2012 2 O 11.3834 11.3963 4.62534
1855 2 O 13.2656 13.0518 5.82018
830 1 H 12.8459 13.9534 5.91364
2002 2 O 14.8895 9.68387 3.43904
1124 1 H 15.1287 11.4128 3.82302
1289 1 H 16.1402 10.2305 5.96713
693 1 H 16.211 13.0227 4.61435
2015 2 O 14.7875 12.3402 3.78162
670 1 H 13.4957 12.9043 4.83885
2085 2 O 17.0225 10.1171 5.64433
1141 1 H 19.3918 11.174 3.71244
182 1 H 18.0558 11.0339 4.49659
345 1 H 19.189 12.6504 5.58698
1611 2 O 18.5963 11.6457 3.94523
2107 2 O 16.679 13.3326 5.40173
1337 1 H 1.22104 15.1726 3.30312
2109 2 O 1.0876 14.5118 4.04175
1338 1 H 1.73724 14.6702 4.72529
498 1 H 2.39055 16.9228 4.91177
378 1 H 4.92835 15.7347 5.35983
1629 2 O 5.22734 16.5005 5.82328
377 1 H 5.28884 16.0741 6.76167
1861 2 O 7.36861 14.6714 4.83071
841 1 H 6.97071 15.275 4.18778
842 1 H 7.19613 14.992 5.75885
1296 1 H 10.1327 14.4728 4.23094
496 1 H 9.88113 16.487 3.62079
977 1 H 11.4123 15.3276 4.62787
1841 2 O 13.1143 15.2362 4.18402
2088 2 O 10.4359 15.345 4.71605
994 1 H 13.0663 15.9245 3.47859
1281 1 H 13.7855 15.8022 4.74518
808 1 H 15.2128 15.3991 3.07717
2082 2 O 15.0276 17.041 5.18905
978 1 H 16.5863 16.5525 5.67289
344 1 H 17.6358 14.8975 3.65092
1612 2 O 18.5701 14.8889 3.32729
639 1 H 19.8582 16.2727 3.15667
346 1 H 0.165147 13.6169 5.72691
1613 2 O 19.5727 13.3097 6.18806
1174 1 H 15.8922 13.5603 5.98967
343 1 H 19.0419 14.2758 3.92826
1009 1 H 17.1102 15.1558 6.10318
2105 2 O 17.2941 16.1517 6.21124
335 1 H 0.535785 18.2312 2.8571
1865 2 O 2.58765 17.1625 5.82097
324 1 H 20.2011 16.0634 5.90167
362 1 H 2.61071 19.7486 5.1641
1621 2 O 1.65052 19.6148 5.18609
361 1 H 1.50434 18.805 5.72461
336 1 H 1.12044 19.5838 3.5966
372 1 H 6.5284 17.5119 5.02205
1630 2 O 4.371 19.984 5.67206
774 1 H 5.04523 18.7642 3.21617
529 1 H 3.53438 17.3509 5.75936
380 1 H 4.76671 19.127 6.12017
484 1 H 9.61326 16.353 5.89695
497 1 H 7.28384 19.7468 4.48507
1626 2 O 7.35814 18.0084 4.76077
515 1 H 8.41091 17.401 5.95424
819 1 H 7.8755 17.5993 3.9878
843 1 H 11.092 18.5936 6.1768
1339 1 H 11.9818 17.2301 5.24634
2110 2 O 12.3749 17.6037 6.02282
1340 1 H 13.2015 18.0667 5.77036
1315 1 H 15.0315 17.4623 6.09197
34 1 H 14.846 19.6628 5.75989
975 1 H 14.5746 19.2622 2.68671
1284 1 H 15.3938 17.7446 4.6685
1928 2 O 15.2426 18.802 3.20532
2081 2 O 13.9119 19.8795 5.95649
1924 2 O 16.5953 19.2485 5.64593
1602 2 O 19.8187 16.8377 5.59048
339 1 H 18.1925 19.3093 3.18389
487 1 H 17.0804 18.919 4.86352
1332 1 H 18.7302 17.9976 4.18723
2106 2 O 18.1423 18.2717 3.4443
488 1 H 17.197 18.9281 6.33092
1134 1 H 2.58222 2.44553 6.57246
174 1 H 0.57362 1.60641 8.11209
1527 2 O 1.34665 1.0827 7.72524
1468 2 O 2.77494 2.50931 9.67215
1523 2 O 0.0194882 2.87292 9.90158
55 1 H 3.33246 1.72929 9.26185
57 1 H 4.68627 0.43522 7.16135
58 1 H 5.14069 1.74292 7.69624
1469 2 O 4.75637 0.869564 8.07789
1700 2 O 6.27565 2.69692 9.59822
39 1 H 5.60447 3.18887 9.01951
2095 2 O 8.26341 1.24417 6.8444
1299 1 H 8.71295 2.06591 8.31618
1866 2 O 9.3476 2.29567 9.04747
852 1 H 9.36819 3.22059 9.19988
637 1 H 12.8781 2.03262 6.45022
537 1 H 12.2066 0.725698 8.488
538 1 H 10.9424 1.67429 8.19244
1709 2 O 11.6147 1.11482 7.67596
844 1 H 10.9537 20.1214 6.64432
519 1 H 13.453 2.38392 9.29787
1001 1 H 15.1926 2.11509 7.75822
1002 1 H 14.2252 0.943077 7.53169
1941 2 O 14.7793 1.39968 8.25848
1317 1 H 16.0226 0.306085 9.04826
1948 2 O 16.4852 3.09757 9.77562
1012 1 H 19.3357 0.0295908 5.88604
1017 1 H 17.793 1.88505 8.73263
1018 1 H 18.9228 0.752928 8.95428
1949 2 O 18.4419 1.35477 8.25852
5 1 H 19.9434 2.84786 9.03126
1 1 H 0.326221 4.33523 6.72028
1921 2 O 19.9252 3.71861 7.14328
198 1 H 3.48347 5.34958 8.98092
1539 2 O 2.9263 6.18038 9.30936
43 1 H 4.89182 4.80359 7.23405
44 1 H 3.81581 3.83442 7.39412
1462 2 O 4.34246 4.32854 8.02863
1787 2 O 6.57185 5.83716 8.97729
511 1 H 9.09715 3.22656 5.51975
539 1 H 8.59359 5.14755 6.84961
540 1 H 7.26826 4.58908 7.46639
1710 2 O 7.91418 4.42066 6.73803
517 1 H 10.2026 5.43043 8.89518
512 1 H 10.5236 3.03548 6.48632
167 1 H 13.3797 5.14668 5.36475
535 1 H 12.0351 3.88627 8.11424
536 1 H 11.8503 4.80588 7.05955
1708 2 O 11.2862 4.25354 7.63785
2027 2 O 13.3353 6.39205 9.4762
638 1 H 14.0982 3.02445 6.81227
1015 1 H 16.0147 3.54149 9.08197
1019 1 H 15.2215 4.66004 7.53006
1020 1 H 14.1607 4.95501 8.50467
1950 2 O 14.7349 4.19328 8.13302
2019 2 O 16.5859 6.46364 9.3418
29 1 H 0.820445 5.98031 8.94927
1455 2 O 20.1611 6.42243 8.90265
999 1 H 18.634 4.71529 7.4469
1158 1 H 17.2356 5.8211 8.96736
1460 2 O 17.9536 5.41801 7.53508
781 1 H 1.93086 7.6374 7.47887
782 1 H 1.49899 9.08432 8.1688
1831 2 O 1.61865 8.57775 7.30689
1548 2 O 2.82908 9.87681 9.30186
22 1 H 5.88794 8.91422 6.4554
53 1 H 5.97219 6.56006 9.09467
217 1 H 4.26694 8.76709 8.22495
218 1 H 4.16356 7.64249 7.34438
1549 2 O 4.80404 8.00681 7.93837
199 1 H 5.79068 10.436 9.30387
1780 2 O 6.20291 9.91348 10.0152
189 1 H 7.3901 7.98999 7.76031
190 1 H 8.85957 8.72725 7.73507
200 1 H 7.0019 9.52274 9.61137
1535 2 O 8.25224 8.05647 8.18125
642 1 H 10.1882 7.13985 6.94699
533 1 H 12.8021 6.76461 8.73517
495 1 H 10.6637 8.69618 8.41749
697 1 H 11.8299 8.5904 7.37754
1789 2 O 11.3603 8.04803 8.08227
1003 1 H 16.3972 7.52512 6.76179
1179 1 H 13.5982 9.99896 6.35345
679 1 H 13.5531 9.90769 8.38619
1004 1 H 15.7247 7.18204 8.04016
1942 2 O 15.497 7.57317 7.17913
2028 2 O 16.6024 9.51244 9.56753
1176 1 H 17.1428 8.7333 9.24091
179 1 H 19.1677 8.81164 8.07369
1172 1 H 18.8296 7.31887 7.68038
2026 2 O 18.7327 8.30346 7.39349
1540 2 O 19.807 9.26116 9.53733
1550 2 O 2.37028 13.2499 6.483
161 1 H 0.190441 11.9924 7.40305
215 1 H 3.19103 10.3928 8.45946
220 1 H 2.31701 12.2877 6.46102
1541 2 O 3.12312 13.1027 9.49207
2001 2 O 0.262365 11.0216 7.59916
1627 2 O 0.239069 13.2339 9.56595
203 1 H 4.5752 12.17 7.97742
204 1 H 5.47504 11.2386 7.05284
1542 2 O 4.92949 11.3314 7.84713
1867 2 O 6.3828 12.9545 9.54486
694 1 H 6.88401 12.4686 8.85184
644 1 H 8.64098 11.6358 7.1307
675 1 H 7.70267 10.5863 6.8948
695 1 H 9.05638 10.2556 9.42913
1762 2 O 7.97257 11.135 7.65504
1859 2 O 9.46002 13.2591 9.08662
838 1 H 9.97141 12.5915 8.66551
961 1 H 12.0815 12.3049 7.09374
1154 1 H 12.0915 11.2375 8.28569
1681 2 O 11.593 11.5236 7.52414
1776 2 O 13.1393 13.2649 9.76572
1322 1 H 14.4557 12.2257 7.19391
1321 1 H 15.6008 11.3811 7.85355
2101 2 O 14.8098 11.364 7.31058
671 1 H 13.5931 12.8265 9.02171
1157 1 H 17.1629 12.6275 9.10975
1163 1 H 18.5964 11.2167 8.18865
1164 1 H 17.7903 12.1539 7.18882
2022 2 O 17.7124 11.6394 8.00188
1159 1 H 19.8888 9.94198 10.2107
201 1 H 2.18437 13.4129 9.47813
1319 1 H 1.71376 16.1997 7.09543
1620 2 O 1.28049 15.5407 7.67274
376 1 H 3.52136 16.7867 8.82278
1320 1 H 1.56928 14.6652 7.50183
1323 1 H 0.533899 16.2355 9.1944
358 1 H 5.4369 14.451 8.42329
197 1 H 3.84635 14.9175 8.09028
1619 2 O 4.81465 14.8425 7.76879
360 1 H 6.84468 15.7958 9.128
486 1 H 8.06515 15.6367 7.24722
805 1 H 8.24143 14.4512 8.14198
1683 2 O 7.57112 14.909 7.66492
699 1 H 10.1123 13.5719 6.36499
1868 2 O 9.369 16.3102 9.33824
857 1 H 12.0484 14.6188 8.15784
858 1 H 11.9396 15.8847 7.14922
1869 2 O 11.6447 14.9618 7.34599
840 1 H 13.3795 15.6998 10.2118
855 1 H 10.0593 15.7781 8.84916
684 1 H 15.5623 14.3257 8.68743
683 1 H 15.8031 15.2347 7.59821
839 1 H 14.255 15.9026 8.93858
1782 2 O 15.0765 14.7022 7.97551
2108 2 O 17.2329 16.8423 9.06854
1329 1 H 17.8651 14.2448 8.2346
1173 1 H 20.0235 13.8702 9.00947
1336 1 H 17.9381 16.088 9.06173
1298 1 H 19.1472 14.7485 7.39754
2025 2 O 18.6621 14.7458 8.26762
2102 2 O 20.2298 16.8257 9.82166
173 1 H 1.07666 0.465595 7.10807
357 1 H 2.69249 20.2041 8.77678
18 1 H 1.62282 17.9951 8.16859
49 1 H 0.04474 18.0798 7.66
1625 2 O 0.843497 18.5749 8.01277
854 1 H 5.72496 0.273096 9.59407
363 1 H 4.3862 18.8023 8.521
364 1 H 5.2872 17.5367 8.2894
1622 2 O 4.60628 18.0938 7.90058
1682 2 O 9.06627 16.8364 6.50578
1309 1 H 7.75653 0.373052 6.82101
856 1 H 8.90045 16.9826 8.75932
859 1 H 7.91302 18.8435 7.78946
860 1 H 6.60776 19.4641 7.91068
1870 2 O 7.10323 18.972 7.20655
1699 2 O 9.31551 19.0544 8.69125
518 1 H 9.83344 19.2596 7.82906
837 1 H 10.0504 18.5855 9.25771
1947 2 O 13.2255 19.8452 9.42977
853 1 H 13.6441 19.1112 8.86883
2100 2 O 13.6787 16.4245 9.56987
1291 1 H 15.7895 18.7842 7.72239
1292 1 H 15.2733 17.5571 8.32969
2086 2 O 15.1024 18.2077 7.65329
1939 2 O 16.2858 19.845 9.55852
355 1 H 18.8551 16.6046 5.78159
1333 1 H 0.238331 19.4516 9.31493
59 1 H 18.256 19.4611 8.08714
60 1 H 18.0931 17.8823 8.18663
1470 2 O 18.3408 18.6489 7.57983
1467 2 O 19.8858 19.9599 9.92996
1335 1 H 17.4439 17.3438 9.88917
50 1 H 2.63752 0.0999134 12.6054
51 1 H 0.364471 2.43272 12.4093
61 1 H 0.791964 0.556455 11.0558
62 1 H 1.79124 1.62061 10.6447
1471 2 O 1.50163 1.10576 11.4738
1458 2 O 2.94487 2.89746 12.8623
40 1 H 5.76231 2.32796 10.3267
45 1 H 4.24645 1.74436 12.1052
46 1 H 5.37454 0.648992 12.0468
1463 2 O 4.82624 1.28797 11.5292
38 1 H 3.29736 20.2654 10.3066
530 1 H 9.21602 20.2063 12.1477
531 1 H 7.07766 2.61013 12.0606
541 1 H 8.724 1.28259 10.2941
542 1 H 7.68907 0.235102 10.671
1698 2 O 9.72555 2.65659 13.022
1711 2 O 8.32935 0.894812 11.1071
1940 2 O 12.9794 3.11305 9.71513
520 1 H 12.2856 2.72044 10.2945
525 1 H 10.7554 1.83671 11.9147
526 1 H 11.9189 0.822236 11.2744
1703 2 O 11.2319 1.50466 11.0205
1722 2 O 12.9484 3.06442 13.0289
1011 1 H 13.606 2.73827 12.3668
1021 1 H 15.271 1.8824 10.6515
1022 1 H 14.4681 0.654052 10.8704
1951 2 O 14.8837 1.33756 11.3768
1010 1 H 16.149 0.139001 12.337
166 1 H 19.6437 2.43889 10.4585
1005 1 H 17.3029 1.55395 11.5877
1006 1 H 18.4999 0.620899 11.7941
1943 2 O 18.1227 1.25679 11.095
1016 1 H 17.148 3.51942 10.2741
1962 2 O 19.9494 2.97749 12.9179
56 1 H 3.30837 3.077 10.3343
36 1 H 2.51765 3.73459 12.3899
47 1 H 2.12054 5.13381 11.0389
48 1 H 1.06375 4.11751 10.8814
1464 2 O 1.44965 4.70287 11.5477
33 1 H 0.0150324 5.97832 12.5974
210 1 H 2.55252 6.63351 12.2759
37 1 H 3.52419 6.71632 9.87169
63 1 H 3.95636 4.98337 12.1612
64 1 H 5.16287 4.04101 12.1525
534 1 H 6.35082 5.15961 9.70457
1472 2 O 4.5849 4.67261 11.4928
706 1 H 5.84231 6.67928 12.104
1779 2 O 9.55372 5.91755 9.49352
516 1 H 9.14379 3.31366 12.4782
513 1 H 7.08289 5.95867 12.3788
527 1 H 7.65724 3.71372 10.5403
528 1 H 8.66516 4.85657 10.6078
1704 2 O 8.35804 4.06573 11.0997
1721 2 O 9.38085 6.27975 13.1233
543 1 H 11.0265 5.71325 11.4358
544 1 H 12.0456 4.49873 11.7659
1014 1 H 12.5899 6.19764 10.1097
1712 2 O 11.5175 4.93323 11.0328
993 1 H 13.358 5.86425 12.5162
1697 2 O 12.9206 6.3739 13.1658
996 1 H 16.1314 3.7373 12.3825
1007 1 H 14.0061 4.21135 10.5147
1008 1 H 15.2811 5.04522 10.6591
1944 2 O 14.5683 4.70403 11.2507
1961 2 O 16.4015 6.44426 12.9858
30 1 H 19.5437 5.77875 9.53595
1023 1 H 17.8661 5.49435 11.6473
1024 1 H 18.9161 4.2705 11.6427
1952 2 O 18.5189 5.0638 11.1039
1937 2 O 19.7159 6.39334 13.2702
221 1 H 1.6712 8.60944 11.0063
222 1 H 0.959316 7.36021 10.3902
1551 2 O 1.39213 7.69108 11.2151
196 1 H 2.25059 10.4037 12.482
211 1 H 0.158879 9.03536 12.5908
216 1 H 3.46778 10.2789 9.97009
205 1 H 4.48705 7.73514 11.8096
206 1 H 5.23684 8.5884 10.7804
1543 2 O 4.89064 7.64233 10.9282
1562 2 O 6.16596 10.1287 13.092
1788 2 O 9.73957 9.68651 9.65586
691 1 H 6.79884 9.94451 12.3394
690 1 H 8.81843 6.96076 12.7182
701 1 H 9.00183 8.20989 10.7186
702 1 H 7.6397 7.56676 10.4797
1791 2 O 8.14116 8.11438 11.1368
1778 2 O 9.83016 9.70157 12.8412
2020 2 O 13.4039 10.1814 9.29264
678 1 H 9.25943 6.6485 8.91787
680 1 H 12.6927 9.53297 9.55127
685 1 H 11.0956 8.52168 12.0242
686 1 H 11.9583 7.16983 12.11
1783 2 O 11.6407 7.8575 11.4971
1802 2 O 13.1311 9.91922 13.2308
1171 1 H 13.6424 9.57245 12.4854
1170 1 H 16.1264 7.20608 12.4072
1181 1 H 15.37 8.76856 10.5624
1182 1 H 14.5314 7.35872 10.8326
2031 2 O 14.9112 8.14031 11.2774
1156 1 H 15.8868 10.3087 12.1835
1160 1 H 19.4008 8.55872 10.0705
997 1 H 17.0644 7.10383 9.83911
1165 1 H 17.6369 8.42649 12.0545
1166 1 H 18.7598 7.3578 11.9263
2023 2 O 18.3678 8.11192 11.4398
193 1 H 20.2226 12.6412 12.1045
207 1 H 1.8835 11.8284 10.8955
208 1 H 1.76968 10.4594 10.6583
1544 2 O 1.36299 11.1048 11.2762
213 1 H 5.7695 12.4367 10.0444
223 1 H 3.92436 12.0653 11.7965
224 1 H 4.84997 10.847 11.9303
1537 2 O 6.41346 12.9757 13.1234
1552 2 O 4.4702 11.4818 11.2762
673 1 H 7.05628 12.6043 12.4524
676 1 H 9.28244 10.2716 12.2123
687 1 H 7.41113 11.3032 10.6719
688 1 H 8.60859 12.3692 10.5759
1784 2 O 8.15536 11.7288 11.1313
1801 2 O 9.82353 13.3976 12.7959
850 1 H 9.45199 14.0692 12.1801
672 1 H 12.6491 12.5731 10.1883
696 1 H 10.3176 10.3559 10.0764
703 1 H 10.8429 11.7469 11.9395
704 1 H 11.8081 10.6061 11.492
1792 2 O 11.3016 11.3907 11.1251
1153 1 H 13.4465 12.2743 12.4755
2099 2 O 16.4515 13.2761 9.54604
1167 1 H 14.9594 10.7551 10.459
1168 1 H 15.5801 12.2096 10.5666
2024 2 O 15.0638 11.5428 11.1084
2041 2 O 16.6385 12.8378 12.9424
1330 1 H 15.7865 13.3088 13.2435
1175 1 H 17.0677 10.0235 10.2194
214 1 H 19.9219 12.5394 10.111
1183 1 H 17.8317 12.1264 11.3887
1184 1 H 18.7447 11.0991 11.744
2032 2 O 18.5474 11.5784 10.9285
1628 2 O 3.04194 16.6295 9.73753
370 1 H 2.73371 13.8305 12.8093
381 1 H 2.15122 15.8048 10.9715
382 1 H 1.09162 14.5982 10.6967
1631 2 O 1.67263 15.0325 11.4402
202 1 H 3.59937 13.7903 10.1286
1860 2 O 6.41525 16.5568 9.56721
359 1 H 5.53164 16.2367 9.86734
365 1 H 4.43763 15.3601 12.0864
366 1 H 5.2601 14.138 12.0532
1623 2 O 4.83302 14.7532 11.4815
851 1 H 7.17424 15.957 12.1601
861 1 H 8.38997 15.1446 10.4553
862 1 H 7.26663 14.1284 10.6541
1871 2 O 7.90096 14.7437 11.1735
1858 2 O 9.7213 16.768 13.0647
677 1 H 10.1052 13.7148 9.62144
845 1 H 11.0135 15.7378 12.016
846 1 H 12.0482 14.8021 11.7994
1863 2 O 11.3397 15.1837 11.2598
1882 2 O 13.155 16.6319 12.8467
1331 1 H 13.9898 16.1572 12.4919
1318 1 H 16.9771 13.663 10.2655
1341 1 H 15.5048 14.5348 11.3936
1342 1 H 14.0432 14.0114 11.7051
2111 2 O 14.6583 14.7649 11.7689
2098 2 O 16.5255 16.4582 13.2602
371 1 H 0.361994 15.7628 12.5428
1324 1 H 19.5961 16.1743 10.3697
1325 1 H 17.2804 15.6028 11.5312
1326 1 H 18.3816 14.4999 11.6053
2103 2 O 17.7246 14.9088 11.0172
356 1 H 2.94744 17.0981 12.6597
367 1 H 1.03763 17.7401 10.9566
368 1 H 2.05083 18.9306 11.3266
1624 2 O 1.59934 18.1744 11.6955
353 1 H 0.136 18.9976 12.9694
1459 2 O 2.79054 19.7195 9.64809
1707 2 O 6.42919 19.9346 9.78806
373 1 H 6.10432 19.2336 10.4111
375 1 H 3.58413 17.1779 10.2838
383 1 H 4.53243 18.7146 11.9474
384 1 H 5.5582 17.5685 12.0228
1632 2 O 5.08106 18.1026 11.3737
833 1 H 7.10763 19.2711 12.6551
836 1 H 9.13285 17.3231 12.3939
847 1 H 7.42244 17.5355 10.7069
848 1 H 8.4981 18.5207 10.5365
1864 2 O 7.91371 18.2263 11.2006
1334 1 H 12.5294 19.2873 9.87056
863 1 H 10.5972 18.5918 11.5331
864 1 H 11.2337 17.4171 10.9232
1872 2 O 11.0863 18.3625 10.6427
1857 2 O 12.8147 19.8422 12.8765
1313 1 H 13.2907 19.1576 12.4227
1316 1 H 15.8652 16.9161 12.6883
1327 1 H 14.4304 17.2771 10.6518
1328 1 H 15.272 18.6395 10.7662
2104 2 O 14.9424 17.8586 11.2475
2121 2 O 16.6901 19.8542 12.8757
998 1 H 17.2149 20.1147 9.94771
374 1 H 19.3876 19.2063 10.4277
1343 1 H 17.7348 18.9281 11.8371
1344 1 H 18.5265 17.6003 12.0263
2112 2 O 18.307 18.2884 11.3207
67 1 H 2.22974 2.49109 13.3847
73 1 H 0.703065 1.76953 15.106
74 1 H 1.79561 0.496266 15.135
1477 2 O 1.11539 1.02904 14.6448
81 1 H 3.9737 0.033124 13.5429
66 1 H 0.145043 -0.0120125 13.8062
1482 2 O 6.59686 3.06774 12.7938
84 1 H 6.20503 2.3398 13.4072
89 1 H 4.34456 1.7032 15.217
90 1 H 5.38956 0.516427 15.3011
1485 2 O 4.89561 1.12959 14.6804
546 1 H 6.96261 0.125737 13.663
547 1 H 8.91655 2.36654 13.5875
553 1 H 7.55258 1.76446 15.6957
554 1 H 8.75919 0.756118 15.2277
1717 2 O 7.93979 1.33092 14.8614
568 1 H 9.137 3.51407 15.877
1724 2 O 9.76832 2.99435 16.3856
564 1 H 12.4205 2.40089 13.638
569 1 H 10.8782 2.00154 15.386
570 1 H 12.0593 0.8977 15.1095
1725 2 O 11.4808 1.51996 14.7704
551 1 H 12.6231 3.63807 16.103
1938 2 O 16.6819 3.04462 12.8435
1027 1 H 15.9038 2.46786 13.146
1033 1 H 13.9981 1.64533 14.7079
1034 1 H 15.2992 0.906582 14.8343
1957 2 O 14.6242 1.09702 14.1367
1044 1 H 19.2686 2.40128 13.3919
1049 1 H 17.6144 1.82885 15.0313
1050 1 H 18.5526 0.66784 15.1322
1965 2 O 18.1618 1.23932 14.42
1041 1 H 17.3761 0.107203 13.4018
1481 2 O 2.91318 6.19096 13.0743
88 1 H 2.52771 3.57179 15.6383
91 1 H 1.87777 5.02195 13.9116
92 1 H 0.579565 3.92265 14.3254
1486 2 O 1.28242 4.56401 14.6288
1555 2 O 3.08527 6.30726 16.319
71 1 H 5.98132 3.40034 16.0361
69 1 H 3.89896 5.71761 16.1393
75 1 H 5.19948 5.01959 13.7946
76 1 H 3.95102 3.86411 14.1002
1457 2 O 6.37198 6.31383 12.9333
1478 2 O 4.62714 4.50824 14.4997
566 1 H 7.04104 5.94508 15.9422
571 1 H 8.61838 5.22222 14.3166
572 1 H 7.51847 4.05156 14.5592
1726 2 O 8.13251 4.60204 14.989
1795 2 O 9.91866 5.97856 16.8848
549 1 H 10.5568 5.61758 16.1799
555 1 H 12.0765 5.35163 14.385
556 1 H 11.1284 4.0428 14.2888
1718 2 O 11.606 4.64565 14.9007
2043 2 O 13.1385 6.52375 16.5592
1046 1 H 13.6966 5.94408 16.0284
1048 1 H 15.9586 3.61794 15.6766
1051 1 H 15.1111 5.16305 13.912
1052 1 H 13.9417 3.98177 14.2008
1966 2 O 14.7385 4.52744 14.6121
86 1 H 0.257974 5.86074 15.5715
1029 1 H 17.008 5.94882 15.86
1031 1 H 19.4109 3.6077 15.7111
1035 1 H 18.7465 5.16168 14.2677
1036 1 H 17.7513 4.11238 14.2163
1958 2 O 18.1684 4.77037 14.8653
1201 1 H 16.9989 6.9689 13.6064
226 1 H 20.3776 6.86012 13.9684
227 1 H 2.53097 9.06337 13.3725
233 1 H 0.997798 8.50629 15.2565
234 1 H 1.99911 7.25139 15.268
1557 2 O 1.47447 7.85988 14.6805
1564 2 O 2.79084 9.63395 16.3395
1538 2 O 2.95516 9.67173 12.7428
241 1 H 3.50043 6.76853 13.5483
244 1 H 5.77652 9.36715 13.5402
249 1 H 3.86715 8.49866 14.9
250 1 H 5.06476 7.52726 14.7167
1565 2 O 4.45095 8.08725 14.1939
231 1 H 5.6487 10.4285 15.5028
707 1 H 9.18602 9.15478 13.2236
713 1 H 7.44995 8.82718 15.2554
714 1 H 7.70795 7.58127 14.7895
1797 2 O 8.17361 8.44963 14.6922
721 1 H 10.0783 6.88196 13.469
724 1 H 12.5143 9.21535 13.5865
729 1 H 10.7295 8.44161 15.3243
730 1 H 12.042 7.72999 15.6451
1805 2 O 11.4575 7.94105 14.8723
2018 2 O 16.3976 9.74161 12.7972
1186 1 H 13.4856 7.03126 13.6047
1187 1 H 15.8749 9.20695 13.4746
1193 1 H 14.2873 8.77538 15.0806
1194 1 H 15.3857 7.62725 15.3505
2037 2 O 14.9546 8.23583 14.596
1208 1 H 16.0624 10.0277 15.9358
2044 2 O 16.6804 9.48091 16.4633
2042 2 O 19.9197 9.75022 12.9944
1204 1 H 19.3759 9.15067 13.551
1209 1 H 17.485 8.60422 15.0734
1210 1 H 18.5883 7.57296 15.1671
2045 2 O 18.2173 8.21823 14.4965
1561 2 O 3.05068 12.8927 13.1554
246 1 H 0.476839 12.4618 16.1011
248 1 H 2.09587 10.2575 15.8412
251 1 H 1.78976 11.6819 14.027
252 1 H 0.571985 10.7378 14.1313
1566 2 O 1.26046 11.1124 14.7279
229 1 H 3.50986 12.4361 15.7903
235 1 H 5.05803 11.6457 14.3154
236 1 H 3.7637 10.7438 14.3024
1558 2 O 4.36241 11.3256 14.913
1883 2 O 6.35682 13.1832 16.4394
726 1 H 7.16789 12.9558 15.8813
728 1 H 9.52017 10.4252 15.8007
731 1 H 8.72314 12.5508 13.9121
732 1 H 8.03952 11.0954 14.1387
1806 2 O 8.4409 11.8757 14.591
1875 2 O 9.86702 13.1592 16.5103
709 1 H 10.2991 12.5486 15.8619
711 1 H 12.4916 10.3016 15.611
715 1 H 11.9743 11.908 14.1239
716 1 H 10.7035 11.0352 14.1211
1798 2 O 11.2862 11.5614 14.7475
881 1 H 10.4432 13.8909 13.3375
1206 1 H 13.8899 12.6098 15.7771
1211 1 H 15.599 11.3208 14.1291
1212 1 H 14.1411 10.9083 14.244
2046 2 O 14.7878 11.3863 14.81
2017 2 O 19.7952 13.222 12.7753
1191 1 H 19.5071 10.1048 15.6315
1189 1 H 17.167 12.5621 15.8047
1195 1 H 18.8592 12.0993 14.2593
1196 1 H 17.7641 10.9839 13.9391
2038 2 O 18.296 11.4543 14.6773
1361 1 H 17.3165 13.21 13.5288
1618 2 O 3.44341 16.5696 13.2538
386 1 H 0.208616 13.5421 13.4022
387 1 H 2.67381 16.1031 13.6909
393 1 H 0.697881 15.2557 15.1824
394 1 H 1.82899 14.2428 15.2412
1637 2 O 1.14954 14.5553 14.6336
1642 2 O 6.63672 16.2781 12.9323
401 1 H 3.8166 13.3321 13.7089
404 1 H 6.22821 15.5479 13.4516
409 1 H 4.13414 15.0719 15.656
410 1 H 5.23847 14.0336 15.4536
1645 2 O 4.63469 14.6157 14.9114
866 1 H 6.9472 13.422 13.7884
867 1 H 9.07276 16.1603 13.4492
873 1 H 7.66077 15.4185 15.5303
874 1 H 8.77649 14.2686 15.6222
1877 2 O 8.10825 14.7047 14.9812